default_name
118896
  34.6689894  83.0644886  22.9022320  34.3564724  83.9293081  23.3199896
  34.7094633  82.3538662  23.6188058  34.1383783  82.9012162  22.0584942
  36.1177946  83.2555867  22.4389932  36.7594770  82.5388311  22.9514426
  36.2514589  83.0397543  20.9290103  35.4689212  83.6210682  20.4413545
  37.2222239  83.3278820  20.5256523  36.0320302  81.6150866  20.5379235
  37.0695121  80.7587540  20.2291231  36.5771446  79.5595450  19.9626704
  37.2379026  78.7417673  19.6750294  35.2614944  79.6019730  20.1138173
  34.6238615  78.8287984  19.9884163  34.8937946  80.8769059  20.4721829
  33.8434660  81.1138415  20.6418080  37.0138841  84.4654025  22.8772047
  38.2684694  84.3964985  22.7417137  36.4087504  85.5538912  23.3680342
  35.4014062  85.6259103  23.3810807  37.2019168  86.7143780  23.8355629
  38.2596715  86.5256299  23.6521824  36.7947953  88.0156031  23.0949724
  36.4284295  87.6945044  22.1198975  35.9706344  88.4347533  23.6721829
  37.9503282  89.1499793  22.8948015  38.6432912  88.7265457  22.1677478
  37.4380580  90.0045543  22.4527801  38.9133865  89.7207294  24.4079135
  40.5390145  90.3604154  23.8972458  40.4019224  91.2022187  23.2185175
  41.0929897  90.6896447  24.7763477  41.0970715  89.5730201  23.3906077
  37.0092359  86.8329627  25.3716976  35.8749828  87.0029227  25.8262134
  38.0847099  86.7128480  26.1649120  38.9837334  86.4938590  25.7600664
  37.9897042  86.8410212  27.6432660  37.0266572  87.2776083  27.9079001
  38.1132319  85.4797648  28.3270085  39.1178691  85.1085272  28.1245587
  37.9481593  85.5110016  29.4039836  37.1645364  84.4655877  27.7787013
  37.3829769  83.8957723  26.5102758  38.2840743  84.1803425  25.9670050
  36.4825107  82.9881155  25.9440419  36.6815619  82.5634269  24.9601116
  35.3403927  82.6299191  26.6324166  34.6318939  81.9170379  26.2105994
  35.0940726  83.2073523  27.9134397  34.1948723  82.9326909  28.4648923
  36.0139035  84.1363535  28.4712819  35.8114406  84.5873401  29.4427343
  39.0571368  87.7790894  28.1809451  40.0872563  87.9490788  27.5166422
  38.8210846  88.3837720  29.3621632  37.8907944  88.4552782  29.7488755
  39.9342787  89.0243118  30.0923616  40.3686339  89.7962793  29.4571444
  39.4895251  89.6673652  31.4097319  39.1230914  88.8681456  32.0539939
  40.3579640  90.1366489  31.8719947  38.3975247  90.7029532  31.2183252
  38.5296645  91.4802522  30.2161384  37.4447658  90.7282056  32.0702394
  41.0719634  88.0395285  30.3878060  42.2268385  88.2781130  29.9830407
  40.7535198  86.9240368  31.0512974  39.8210467  86.7218584  31.3825334
  41.8132961  86.0225232  31.4080724  42.7588219  86.3653619  30.9879036
  41.9703071  85.8963153  32.9359523  41.0704489  85.4489820  33.3581458
  43.1893723  85.0020144  33.2573994  44.0897428  85.4489676  32.8358939
  43.3003288  84.9128167  34.3380625  43.0389264  84.0127191  32.8252392
  42.1500560  87.3034296  33.5803756  41.2762579  87.9176066  33.3627390
  42.2597092  87.1979978  34.6597087  43.0401295  87.7804860  33.1701475
  41.6268650  84.6515224  30.7598863  40.5130547  84.1460437  30.7910125
  42.6837286  84.0569895  30.1616705  43.2115798  84.5604796  29.4631219
  42.6943737  82.5669463  30.1175795  42.0171785  82.1186944  30.8446119
  42.4736080  81.8747732  28.7383591  41.7200891  81.0966077  28.8598787
  42.0103110  82.8695925  27.6793760  42.7635793  83.6478609  27.5569581
  41.8667378  82.3512846  26.7313020  41.0690091  83.3216777  27.9919002
  43.6075270  81.0664928  28.3179170  43.7895306  80.2838936  29.0544733
  43.3916319  80.6117125  27.3511369  44.4923292  81.6973284  28.2326383
  43.6241438  81.8061391  31.0197407  44.8196976  82.1459910  31.1455215
  43.0628511  80.7882164  31.6788050  42.0846650  80.5672012  31.5587901
  43.8407573  79.9624968  32.5388626  44.8152078  80.3762210  32.7984348
  43.1107913  79.6145922  33.8110093  42.1440775  79.1815490  33.5540324
  43.9094950  78.6169523  34.6392731  44.8762229  79.0494943  34.8970431
  43.3623995  78.3814035  35.5521279  44.0623408  77.7048919  34.0623106
  42.6872548  80.8526083  34.6541072  42.0233886  81.4846484  34.0642691
  42.1679329  80.5202793  35.5529742  43.5734358  81.4210695  34.9363058
  44.0970747  78.6689011  31.7558871  43.1807925  78.0846840  31.2022091
  45.3510400  78.2501013  31.7339192  46.0446868  78.7737873  32.2484156
  45.7557902  77.0753783  31.0750686  45.0050927  76.7910023  30.3377202
  47.1227205  77.2601936  30.3740273  47.8641744  77.5142772  31.1315153
  47.5630034  75.9863606  29.6331484  46.8222225  75.7318910  28.8751315
  48.5271873  76.1585251  29.1548080  47.6520801  75.1645906  30.3436823
  47.0709432  78.4130424  29.3759393  46.4669028  78.1245866  28.5156897
  46.6296378  79.2887236  29.8518924  48.4877049  78.7450129  28.9141701
  48.9295238  77.8698894  28.4376675  48.4543159  79.5684818  28.2008095
  49.0922596  79.0340244  29.7738711  45.9172161  76.0440604  32.1896188
  46.9046148  76.0509712  32.9089193  44.9596641  75.1256825  32.2780384
  44.1577350  75.1470468  31.6643995  45.0429127  74.0718247  33.2566244
  44.9605451  73.0893245  32.7918575  45.9717129  74.1279226  33.8243237
  43.8999582  74.2656260  34.1810495  43.6660814  75.3713559  34.7395994
  43.1414200  73.1872741  34.3300398  43.2461823  72.3744144  33.7397998
  42.1375427  73.1587459  35.3555990  42.1011569  74.1204798  35.8673050
  41.1632231  72.9443200  34.9164837  42.4731478  72.0784612  36.3608473
  41.6752596  71.1731145  36.6081117  43.6872514  72.1646559  36.9239654
  44.4019992  72.7141950  36.4687274  44.0190640  71.5010443  38.1617287
  43.5395267  70.5249914  38.2356472  45.0965072  71.3858034  38.2797750
  43.4956093  72.3912323  39.2659051  42.8425234  73.4080669  39.0058816
  43.6998639  71.9949338  40.5169581  43.9566414  71.0439456  40.7400859
  43.3681621  72.8697689  41.5831858  42.3122488  73.1402239  41.5838573
  43.7359249  72.2147554  42.9446045  44.7816592  71.9077397  42.9278255
  43.5082589  73.2681939  44.1287829  42.4625795  73.5753448  44.1464895
  43.7668640  72.8061365  45.0815300  44.1401299  74.1412388  43.9655931
  42.8783523  70.9408771  43.0642590  41.8402374  71.2715173  43.0973549
  43.0482177  70.3694828  42.1517056  43.1598984  70.0934956  44.2322087
  42.9897950  70.6641030  45.1452103  42.5011631  69.2251681  44.2190108
  44.1977767  69.7620702  44.1995621  43.9563015  74.3091725  41.3726738
  43.3097923  75.2878877  41.5765227  45.1604340  74.4341545  40.8738968
  45.7289432  73.6668660  40.5450126  45.7404863  75.7702329  40.8801415
  45.6572920  76.2298256  41.8650031  47.1800620  75.6424560  40.5359557
  47.6358337  74.9015373  41.1927745  47.2677814  75.3125132  39.5008020
  47.8356329  76.8695464  40.6914068  48.7629856  76.7678357  40.4649742
  44.9163555  76.6447684  39.8887435  44.5605025  77.7527134  40.2107815
  44.5688345  76.0757306  38.7183790  44.7387278  75.0881456  38.5922386
  43.9651786  76.8086973  37.6350732  44.5041085  77.7377064  37.4490738
  43.9493749  76.2098590  36.7244458  42.5368687  77.1373673  38.0355177
  42.1113840  78.3011825  37.9514584  41.8171128  76.1307892  38.5334184
  42.1682994  75.1841043  38.5569790  40.4641959  76.3782329  39.0164715
  39.8667366  76.7993293  38.2078805  39.7982223  75.1047117  39.4982526
  40.4628327  74.6358553  40.2239012  38.7967789  75.1834518  39.9213497
  39.7497609  74.2627342  38.2411916  40.7508057  74.1724406  37.8194604
  39.2378855  72.9237144  38.5812910  38.2366221  73.0131616  39.0026811
  39.1993472  72.3095874  37.6815891  39.8984489  72.4563405  39.3115773
  38.9704143  74.8816921  37.0884540  39.4243519  75.8332730  36.8118063
  38.9905507  74.2075498  36.2321667  37.9377461  75.0478904  37.3951680
  40.4591951  77.3711283  40.1120625  39.6121241  78.1944464  40.1413729
  41.3242476  77.2444985  41.0952461  42.0139626  76.5075070  41.1304052
  41.3606258  78.2868891  42.1387314  40.4889112  78.1915199  42.7861242
  42.6007937  78.1489801  42.9789491  43.4881689  78.4083870  42.4015649
  42.5419817  78.7875188  43.8603738  42.6787412  76.8172209  43.3756195
  43.4615609  76.6897418  43.9164912  41.4750186  79.6454637  41.5547320
  40.9482564  80.5978272  42.1684348  42.3087238  79.7710777  40.5042565
  42.6944111  78.9429487  40.0735048  42.6682416  81.0705751  39.9488337
  42.9825192  81.8144741  40.6809151  43.7616769  80.9355403  38.8894443
  43.4574620  80.2005992  38.1441827  43.9200949  81.8991248  38.4051830
  44.6883589  80.6104600  39.3623951  41.3696999  81.5698728  39.3302908
  40.8948254  82.7100140  39.5914824  40.7508975  80.6750024  38.5505456
  41.1112543  79.7344175  38.4760983  39.5604935  81.0183154  37.7925393
  39.7081424  81.8885208  37.1529757  39.1388114  79.8646694  36.9398371
  38.9782383  78.9879769  37.5673134  38.2129540  80.1144824  36.4216849
  39.9174118  79.6493808  36.2080369  38.4753722  81.3582112  38.7771700
  37.7434906  82.3131659  38.5745057  38.3739838  80.6145230  39.8743182
  38.9780624  79.8238542  40.0476135  37.3311760  80.9050383  40.8352816
  36.3628685  80.9164796  40.3349327  37.3005353  79.8565013  41.9220844
  37.1726616  78.8918084  41.4310496  38.2698472  79.8846044  42.4198239
  36.2117880  80.0491623  42.9367607  36.3525525  80.9825891  43.4817382
  35.2330604  80.0531974  42.4569919  36.2976113  78.8642434  43.9176621
  36.2344067  77.9395515  43.3440342  37.2602643  78.9102404  44.4268603
  35.1570494  78.9003903  44.9658144  34.1735902  78.9701359  44.5010090
  35.1832358  78.0379213  45.6318178  35.4243044  80.1350151  45.7449931
  35.3996583  80.9343630  45.1281176  34.7197365  80.2403913  46.4609400
  36.3353760  80.0704089  46.1761237  37.5210696  82.2844863  41.4494286
  36.5648420  83.0309761  41.5775684  38.7456691  82.6238204  41.8349170
  39.5167571  81.9738639  41.7794267  38.9930432  83.9494571  42.4159983
  38.3428258  84.0992050  43.2779102  40.4622758  84.0804523  42.8770817
  40.7313975  83.0291169  42.9788978  40.9912036  84.5095919  42.0260972
  40.8547060  84.8366871  44.1591353  41.1550107  84.1040716  44.9082631
  41.9317439  85.7576481  43.9324786  41.6319999  86.4909008  43.1837512
  42.1753962  86.2688918  44.8638026  42.8070331  85.2136361  43.5774855
  39.7296872  85.6440727  44.8852635  38.9287104  84.9665619  45.1810925
  40.1422580  86.1268473  45.7711615  39.3327091  86.4024500  44.2104516
  38.6364912  85.0615646  41.3786481  38.0201498  86.0829045  41.7192963
  39.0232664  84.8613362  40.1193251  39.4216804  83.9890101  39.8024453
  38.8924076  85.9538329  39.1565603  39.3923819  86.8330020  39.5629918
  39.5001905  85.6330136  37.7984271  39.0690900  84.6666792  37.5367985
  39.2319210  86.3675290  37.0390730  41.0303008  85.5080145  37.8718484
  41.2868861  84.9131995  38.7484669  41.5997571  84.8379337  36.6152462
  41.3439564  85.4324583  35.7382026  42.6839784  84.7657341  36.7009903
  41.1766147  83.8387150  36.5122273  41.6923869  86.8187927  38.1242320
  41.3412168  87.2273318  39.0717946  42.7724484  86.6784935  38.1676409
  41.4485181  87.5107879  37.3181492  37.4307253  86.2484961  38.9903667
  37.0778988  87.3896874  38.8915441  36.6173138  85.1763990  39.0063577
  37.0535839  84.2720580  39.1156061  35.1955887  85.2275134  38.8161343
  35.0575080  85.7434612  37.8659602  34.5992497  83.8188749  38.7002413
  34.7738748  83.2968732  39.6410497  33.0737193  83.8536091  38.4026765
  32.8983331  84.3750864  37.4617192  32.6940987  82.8345163  38.3289392
  32.5576337  84.3756142  39.2084474  35.1720970  83.2066689  37.5638721
  34.8169570  82.3203034  37.4647147  34.5714102  85.9833593  39.9377150
  33.6250206  86.7123809  39.7031978  35.0770087  85.8269048  41.1470343
  35.8208357  85.1762588  41.3555540  34.5113467  86.5822357  42.2275229
  33.4431302  86.3723200  42.2818189  35.1348104  86.2445809  43.5518126
  36.0900992  86.7619808  43.6402433  34.4710096  86.5688590  44.3532564
  35.3549301  84.7764745  43.6540131  34.6171703  84.2735833  43.0287837
  36.3547228  84.5729656  43.2704796  35.2458648  84.2648886  45.0717647
  35.8272027  84.9706432  45.9744799  34.5681625  83.1816171  45.2311648
  34.6558716  88.0591263  41.9851540  33.8438709  88.8266427  42.4844561
  35.6524716  88.4549375  41.2037060  36.2302612  87.7701109  40.7375825
  35.9478009  89.8636952  40.9942298  35.5932368  90.4559236  41.8378227
  37.4445453  90.0468991  40.8699933  37.8465895  89.1638118  40.3733884
  37.6402199  90.9277096  40.2584506  38.0994978  90.2102399  42.2007472
  38.4316386  89.0991509  43.0028697  38.2323908  88.0920946  42.6364855
  39.0033959  89.2799658  44.2400704  39.2611987  88.4341384  44.8774209
  39.2727258  90.6007040  44.6732228  39.8565157  90.8975187  45.8970723
  40.0573817  90.1154719  46.4163556  38.9422233  91.6710952  43.8831421
  39.1357628  92.6844144  44.2350330  38.3748942  91.4717647  42.6644768
  38.1284467  92.3245881  42.0319771  35.2810071  90.3919316  39.7202014
  35.4577383  91.5353934  39.3437505  34.5342391  89.5242675  39.0506453
  34.4921856  88.5514486  39.3188881  33.7560062  89.9553097  37.9107312
  32.8703373  89.3232822  37.8456857  33.4527098  90.9888311  38.0778960
  34.5149913  89.8710238  36.6117826  34.0111687  90.3051929  35.5886042
  35.7151627  89.2913087  36.6488779  36.0169586  88.8775740  37.5194192
  36.5726467  89.1778276  35.5119034  36.5932380  90.0727187  34.8899346
  37.9774769  88.8957833  36.0003665  37.9694603  87.9578534  36.5556345
  38.9645899  88.7892901  34.8323356  38.9735026  89.7270730  34.2768317
  39.9637884  88.5863780  35.2177311  38.6593466  87.9785905  34.1707509
  38.3652101  90.0062686  36.9812117  37.6680999  90.0113729  37.8191337
  39.3752729  89.8290963  37.3506476  38.3286003  90.9698055  36.4729231
  36.0686613  87.9903725  34.7187337  35.5795275  87.0187784  35.3320623
  36.1417731  88.0792384  33.3741544  36.3646045  88.9497262  32.9129639
  35.8214259  86.8936531  32.5292691  35.0983117  86.2720374  33.0572832
  35.2384933  87.2783351  31.1838445  35.2711537  86.4329779  30.4965281
  34.2080294  87.6157060  31.2953119  36.0338121  88.3433593  30.6654188
  35.6903536  88.6122108  29.8102258  37.0517582  86.0390050  32.3268166
  38.1175520  86.5339074  32.0216639  36.8945777  84.7444860  32.5279008
  35.9688372  84.3414889  32.5543081  38.0188126  83.8606189  32.5196611
  38.9097855  84.2939662  32.0652641  38.4135519  83.2465082  33.9153322
  37.8314699  82.3402669  34.0826835  39.8996915  82.9081915  33.9449455
  40.4824701  83.8140821  33.7781158  40.1571869  82.4847740  34.9157772
  40.1235390  82.1834730  33.1621447  37.9919603  84.0396106  35.0689990
  36.9067037  84.1410653  35.0637831  38.3054371  83.5420356  35.9867413
  38.4489902  85.0278411  35.0177648  37.5182507  82.6732646  31.7771892
  36.3742567  82.2579354  31.9295878  38.4092629  82.0880159  30.9970692
  39.3354983  82.4678345  30.8631845  38.1004844  80.8367310  30.3964353
  37.0811363  80.5263832  30.6260281  38.2276568  81.0166188  28.8809365
  37.3443985  81.5896107  28.5987410  39.1231794  81.5950630  28.6539086
  38.2558014  79.7152110  28.1021017  39.0662878  79.0760277  28.4523264
  36.9266543  79.0211807  28.3377770  36.1156549  79.6596034  27.9873553
  36.9071451  78.0776149  27.7924297  36.8013128  78.8272161  29.4030317
  38.5258599  79.9657858  26.6394792  39.4905001  80.4607147  26.5271663
  38.5407393  79.0163045  26.1043482  37.7417803  80.6016781  26.2284329
  39.2192931  79.9502555  30.9077807  40.3807436  80.3564503  30.8697886
  38.8557843  78.7606255  31.3766632  37.8751122  78.5862376  31.5439069
  39.7959027  77.7286566  31.7064309  40.8252240  78.0780401  31.7872274
  39.3989514  77.0149189  33.0546319  38.3965499  76.6020217  32.9414664
  40.3842901  75.8818734  33.4156509  41.3868963  76.2941028  33.5294428
  40.0754507  75.4154378  34.3511489  40.3869648  75.1352389  32.6215279
  39.2627558  78.0732636  34.2135500  38.4916665  78.7989287  33.9548350
  38.9882762  77.5664630  35.1387061  40.2139566  78.5877228  34.3501141
  39.8835183  76.7188889  30.5870888  38.8728580  76.1642285  30.1559431
  41.1019751  76.4322474  30.1614202  41.9198214  76.8731554  30.5574340
  41.2779012  75.5533072  29.0541790  40.3079087  75.2404388  28.6677506
  42.0408696  76.2639239  27.9394448  42.8842324  76.7385445  28.4410161
  42.4087420  75.4952648  27.2597883  41.2571016  77.3222122  27.1410592
  40.7451836  78.0040274  27.8201533  42.2484038  78.1005150  26.2954389
  42.7604181  77.4193948  25.6157216  41.7183525  78.8583753  25.7185558
  42.9793854  78.5835290  26.9438707  40.1240521  76.7576884  26.1952956
  39.3895891  76.2155365  26.7908917  39.6346549  77.5843306  25.6802672
  40.5652272  76.0832373  25.4614161  41.9599706  74.3389609  29.6045439
  43.1231129  74.3554564  30.0170931  41.2047756  73.2558172  29.7053277
  40.2383265  73.2259202  29.4134687  41.7685734  72.0771006  30.3481878
  42.7326552  72.3224784  30.7936484  40.8287628  71.5741075  31.4567382
  41.0094819  72.2045991  32.3273243  39.8118279  71.7334411  31.0981907
  41.0120066  70.0712987  31.8542519  40.2688902  69.8412549  32.6177693
  40.7968283  69.4962743  30.9536163  42.4079280  69.7047090  32.3730914
  43.1155579  70.5428339  32.9399995  42.7949161  68.5328278  32.2222019
  42.0252102  71.0550716  29.2909706  41.1180743  70.7223718  28.5462262
  43.2449048  70.5182863  29.2491047  43.9277021  70.8329113  29.9235662
  43.6570789  69.5334788  28.2561659  43.5644758  70.0182783  27.2843154
  45.1194248  69.1560893  28.4755189  45.2266678  68.6613737  29.4408455
  45.4436240  68.4807611  27.6837317  45.7339296  70.0562038  28.4588733
  42.8415726  68.2447465  28.2380134  42.6642591  67.6200334  27.1596036
  42.4827074  67.7553921  29.4099545  42.5170474  68.3628276  30.2161445
  41.9464640  66.3477082  29.5922235  42.4057832  65.6730337  28.8697698
  42.2744680  65.8503333  31.0040237  41.9729944  66.6468084  31.6843474
  41.6477376  64.9742413  31.1706724  43.7859561  65.4745876  31.2704122
  44.1799771  64.8217711  30.4915163  44.4119297  66.3633754  31.3498813
  43.7855373  64.7538876  32.5648867  43.5774899  65.5063357  33.3255688
  42.9550498  64.0497277  32.5143999  44.9970657  64.0241207  32.9456701
  45.0782919  63.0730860  32.6154662  45.9817726  64.5228675  33.7157156
  45.9553233  65.7899300  34.0744664  45.1958575  66.3820597  33.7700094
  46.6946306  66.1635236  34.6523524  47.0110504  63.7528880  34.1059665
  47.0506928  62.7851012  33.8197545  47.7405912  64.1452639  34.6838160
  40.4532024  66.4131982  29.4772589  39.9113364  67.5146445  29.5264344
  39.7912712  65.2413159  29.3503141  40.3116303  64.4062147  29.1224288
  38.3156978  65.1318973  29.5086169  37.8292124  65.9516269  28.9799635
  37.7960931  63.7915091  28.9294975  36.7154212  63.7142695  29.0490028
  38.0433876  63.8093402  27.8680704  38.4930393  62.5438659  29.6127758
  38.8640419  61.5945996  28.8599926  38.7318093  62.5107127  30.8786667
  37.8161009  65.2124786  30.9542457  36.6919997  64.8185832  31.2318516
  38.6149497  65.7200529  31.8868700  39.5532402  65.9984710  31.6374837
  38.1644139  65.9499468  33.2624365  37.1031738  66.1982883  33.2764022
  38.3810932  64.6763611  34.0914567  38.0303031  64.8721700  35.1047209
  37.7820545  63.8813255  33.6474171  39.9163638  64.2254649  34.1364975
  40.1695179  63.8903192  33.1306689  40.4935434  65.1181495  34.3774956
  40.2580934  63.0784325  35.1772456  39.8439740  63.3615733  36.1449415
  39.7862053  62.1569404  34.8362567  41.7315835  62.8339599  35.3372362
  42.1348924  62.0942494  34.7802177  42.5223156  63.4915232  36.1954130
  41.9941448  64.4135550  36.9906400  41.0047947  64.6109386  36.9424100
  42.5839924  64.9135868  37.6403689  43.8371199  63.2758394  36.2313028
  44.2530079  62.6044564  35.6017138  44.4115207  63.7847709  36.8879239
  39.0229866  67.0555845  33.8841456  40.1283478  67.3517339  33.4059592
  38.5764197  67.5585039  35.0272743  37.6427852  67.3133036  35.3244320
  39.3282158  68.5077961  35.8308512  40.1603913  68.9241946  35.2632285
  38.4437832  69.6933121  36.3698760  39.0271096  70.3055815  37.0575938
  37.9848365  70.5548317  35.1793396  37.4010159  69.9433182  34.4913673
  37.3711167  71.3793730  35.5420792  38.8569831  70.9526254  34.6604733
  37.2733241  69.2019265  37.1545752  37.6249761  68.6230166  38.0085695
  36.6895448  70.0518516  37.5080274  36.6493568  68.5714988  36.5210717
  40.0321822  67.8729165  36.9893615  39.7696103  66.7096205  37.3504838
  40.9608625  68.6296664  37.5717226  41.2805956  69.5047598  37.1817460
  41.5403404  68.1824763  38.8184669  41.4982312  69.0260091  39.5075086
  40.9067887  67.3776027  39.1911466  42.9742089  67.6843536  38.7333031
  43.6632876  67.6723368  39.7507662  43.4094891  67.2691647  37.5435807
  42.7247070  67.0139422  36.8464192  44.8262022  67.1639374  37.1951738
  44.9161193  66.9540242  36.1293639  45.3197334  68.1090313  37.4217211
  45.4927300  66.0717314  37.9631397  45.2151115  64.9022793  37.7329966
  46.3680646  66.4397998  38.8885488  46.6837771  67.3955923  38.9715286
  47.0183211  65.4334956  39.6894559  47.1128461  64.5195007  39.1031306
  48.4225395  65.8738172  40.1445116  48.3417824  66.9167319  40.4509531
  48.6804634  65.2608371  41.0081265  49.5093221  65.7389032  39.0829478
  49.7928105  64.6909467  38.9853653  49.1304582  66.1027195  38.1278552
  50.7313674  66.5610057  39.4925025  50.7961098  66.5250308  40.5799827
  51.6070594  66.0764483  39.0606842  50.7146753  67.9539294  39.0723228
  49.9821407  68.2196739  38.4297714  51.5510002  68.9017817  39.5155640
  52.4553262  68.5533827  40.4324902  52.4899108  67.6009535  40.7668292
  53.1012078  69.2436560  40.7881014  51.5314605  70.1901697  38.9994094
  50.8738724  70.4291669  38.2710150  52.1749174  70.8829673  39.3545055
  46.1663999  64.9391592  40.8754306  46.6250892  64.0627030  41.6487969
  44.9531831  65.5002041  41.0092013  44.7619710  66.3668369  40.5270344
  43.9269854  64.9533691  41.8700519  44.3351955  64.1465049  42.4786847
  43.2678739  65.9668028  42.7872183  42.5997068  65.4500765  43.4761647
  44.3678369  66.7377237  43.6037747  45.0361525  67.2551138  42.9154714
  43.8904930  67.4644520  44.2611239  44.9406771  66.0289286  44.2017414
  42.4555673  66.8537666  42.0054599  42.0368608  67.4965277  42.5826455
  42.9183891  64.2997218  40.9290207  42.6720838  64.7889539  39.8499592
  42.4511542  63.1073250  41.2754400  42.6647980  62.7066558  42.1776150
  41.5889983  62.3650310  40.3822726  40.9062734  63.0537003  39.8845573
  42.3865056  61.6296204  39.3289306  43.0492789  62.3493874  38.8485492
  42.9801517  60.9086756  39.8910010  41.5721205  60.8977959  38.2635153
  40.2142840  61.1375878  38.1017008  39.7176723  61.8566876  38.7531391
  39.4786243  60.4621251  37.1076063  38.4114086  60.6516722  36.9926091
  40.1248781  59.5530284  36.2576520  39.3972784  58.8961848  35.2767243
  38.4686570  59.1395820  35.2722585  41.4841169  59.2990206  36.4001290
  41.9947513  58.5773488  35.7625218  42.2027285  59.9951201  37.3918819
  43.2763708  59.8393696  37.4973999  40.9232766  61.3945448  41.3211661
  41.5824875  60.5200386  41.8044475  39.6341979  61.6156464  41.6065205
  39.2048392  62.4666560  41.2725547  38.8050525  60.6579065  42.3084451
  39.4069444  60.0485867  42.9826519  37.7174040  61.3492572  43.1179844
  37.0593880  61.8980673  42.4442465  36.9166428  60.3232507  43.8759805
  37.5739454  59.7743145  44.5503112  36.1392523  60.8228947  44.4540108
  36.4563943  59.6289609  43.1729631  38.2960817  62.3128533  44.0417878
  37.5952230  62.7373010  44.5420293  38.0933322  59.8101659  41.2825820
  37.2427464  60.3237265  40.5318834  38.4176555  58.5118466  41.2777593
  39.1183797  58.1937918  41.9319199  37.7509851  57.5227500  40.4469935
  37.6424498  57.9905690  39.4684923  38.6188724  56.2683971  40.3190037
  39.3638289  56.2575933  41.1146314  37.7472289  55.0437187  40.4306345
  37.0022643  55.0535835  39.6350020  38.3633027  54.1491270  40.3397525
  37.2449094  55.0415833  41.3979864  39.2507900  56.1678624  38.9576786
  39.7933497  55.2231519  38.9222975  38.4423750  56.1495652  38.2267683
  40.1596052  57.2604609  38.6477168  40.9685971  57.2791119  39.3779799
  40.5745931  57.1166600  37.6501169  39.6176223  58.2055259  38.6824530
  36.4954963  57.1269266  41.2046594  36.4962233  57.1201444  42.4442430
  35.4303707  56.8224918  40.4794430  35.4769507  56.9423486  39.4776625
  34.1561353  56.3565537  41.0721164  34.3396566  56.0531749  42.1028348
  33.0739677  57.4385069  41.0661351  32.9060936  57.7432344  40.0331498
  32.1592315  57.0041655  41.4695023  33.4669953  58.6519166  41.8948536
  33.5765131  58.3254479  42.9290319  34.4273900  59.0096538  41.5236823
  32.4552219  59.7661889  41.8247620  32.3498548  60.0959963  40.7912129
  31.4935384  59.4064800  42.1906495  32.8722350  60.9128657  42.6449123
  32.5002054  60.9346072  43.5836458  33.6947345  61.9070289  42.2560007
  34.2189650  61.9168836  41.0454029  34.0033741  61.1713953  40.3989760
  34.8334676  62.6698693  40.7706323  33.9922015  62.9101679  43.0876253
  33.5977032  62.9252284  44.0172728  34.6101263  63.6485687  42.7826136
  33.7353019  55.1370607  40.2508698  33.6016810  55.2140699  39.0368471
  33.6615791  54.0047334  40.9180083  34.1494529  53.9045517  41.7966676
  32.9577410  52.8821842  40.4069345  32.1701846  53.2268017  39.7367907
  33.8790451  51.9455125  39.6346394  33.3152581  51.0677662  39.3187201
  34.2393051  52.4808462  38.7561574  35.0807497  51.4846430  40.4508762
  34.9349119  50.8393984  41.4627594  36.2797781  51.8105770  39.9867008
  37.1074337  51.5281224  40.4919784  36.3596037  52.3397130  39.1301124
  32.3354320  52.2399995  41.6217038  32.4416342  52.7642425  42.7598709
  31.6714517  51.1134524  41.4014502  31.6148617  50.6948566  40.4840220
  30.9201899  50.5112324  42.4753542  30.5647581  51.2687233  43.1739062
  29.7090567  49.7964538  41.8709752  28.8258237  50.1787356  42.3826972
  29.6675499  50.0754392  40.8181009  29.7485595  48.2835806  41.9921084
  30.0870493  48.0454089  43.0004733  28.7322266  47.9146898  41.8539555
  30.6563229  47.6315373  40.9937617  30.8448708  48.2906115  39.9324560
  31.1567535  46.4914766  41.2766270  31.8510915  49.5838657  43.2944331
  31.5225669  49.1612754  44.4085296  33.0183775  49.2644476  42.7521615
  33.2278887  49.4434842  41.7804875  34.0111056  48.5326042  43.5571301
  33.5340289  47.6761819  44.0336150  35.1442128  48.0358426  42.6975053
  35.5702676  48.8720997  42.1432034  35.9240014  47.5595916  43.2918240
  34.7065820  47.0329422  41.6862837  34.3715153  45.7402972  42.0288493
  34.0137490  45.0760544  40.9438664  33.7225059  44.0273134  41.0023370
  34.0900582  45.9003076  39.9099900  33.8695240  45.6714230  38.9513053
  34.5218241  47.1329477  40.3489963  34.6480337  47.9506726  39.6394201
  34.5601997  49.3520701  44.7354375  34.7973312  48.8161150  45.8192746
  34.7037271  50.6578789  44.5316827  34.3365871  51.0758538  43.6887091
  35.4312273  51.4998449  45.4528384  35.8340914  50.9154563  46.2800564
  36.6252398  52.1948839  44.6998338  37.2042656  52.7878683  45.4077871
  37.5138282  51.1436318  44.0792127  36.9355759  50.5505008  43.3707490
  38.3401796  51.6271179  43.5581704  37.9081027  50.4933082  44.8600638
  36.0957458  53.1520812  43.5828287  35.4677868  53.9220587  44.0310522
  36.9389567  53.6212486  43.0758998  35.5108075  52.5812324  42.8616631
  34.4776908  52.5201350  46.0731531  34.8000197  53.1016534  47.0697230
  33.2816097  52.6674876  45.5046653  32.9356400  51.9152167  44.9263118
  32.4521774  53.8642609  45.6562095  31.5138217  53.7209886  45.1204288
  32.1406811  54.1468205  47.1101363  31.7194791  53.2459383  47.5563418
  33.0807155  54.3912870  47.6047791  31.1614038  55.3034966  47.2800843
  30.8345665  56.0360583  46.2806550  30.7036987  55.4735111  48.4226936
  33.2149283  55.0642183  45.0411899  32.9079434  55.4911081  43.9369009
  34.2121662  55.5845757  45.7460437  34.3341329  55.2972351  46.7065950
  35.1432759  56.5650221  45.1928560  35.1695290  56.4784674  44.1066156
  34.7057932  57.9796417  45.5586347  35.4608881  58.6267095  45.1122779
  33.7312969  58.2078606  45.1269252  34.6618031  58.2138513  47.0615591
  35.7757705  58.7228557  47.7342522  36.6664222  58.9731724  47.1579010
  35.7630812  58.9138218  49.1261304  36.6523026  59.3010172  49.6235908
  34.6488510  58.5997658  49.8604060  34.6766134  58.8487976  51.2389043
  35.5071793  59.2285207  51.5348271  33.5320816  58.0688959  49.2268033
  32.6452600  57.8160188  49.8079238  33.5455670  57.8564370  47.8276159
  32.6811471  57.4104178  47.3357367  36.5436100  56.2703299  45.7845123
  36.6264497  55.6755058  46.8574642  37.6209570  56.6374264  45.0837080
  37.5017897  56.9311772  44.1247455  38.9634418  56.5372301  45.6074609
  38.9660921  56.8405835  46.6543940  39.6182310  55.1342852  45.4958920
  39.0369789  54.4354131  46.0974092  39.6619696  54.6691778  44.1216343
  40.2434836  55.3673473  43.5195531  40.1271980  53.6841095  44.0855310
  38.6481176  54.6063072  43.7263459  41.0688538  55.1023273  46.0844192
  41.0397593  55.3762481  47.1390390  41.4812306  54.0986071  45.9815070
  41.6968387  55.8098515  45.5429904  39.8040422  57.6170047  44.8910680
  39.6490352  57.8514976  43.6965007  40.7016258  58.2304932  45.6116578
  40.7831531  58.0232749  46.5968040  41.6160027  59.2130665  45.0320601
  41.1224767  59.8150499  44.2690744  42.0620520  60.1273829  46.1574701
  42.1152133  59.5183747  47.0599013  43.0502762  60.5278095  45.9312591
  41.0970880  61.2649923  46.3754658  40.8187467  61.9866540  45.3654853
  40.6360278  61.4781368  47.5164803  42.7636439  58.4729710  44.4635081
  43.4059686  57.7519391  45.1812837  43.0338445  58.6022916  43.1675540
  42.3994578  59.0348561  42.5113979  44.2142936  57.9243200  42.6437263
  44.6854226  57.2561869  43.3646526  43.9326224  57.1304251  41.3435578
  44.8842048  56.8520460  40.8906834  43.0719848  55.7954678  41.6531543
  42.1199999  56.0730887  42.1056500  42.8884393  55.2571001  40.7233308
  43.6269849  55.1557376  42.3393188  43.2945464  57.9708103  40.2818508
  43.9540325  58.8012867  40.0298806  43.1197683  57.3638732  39.3934931
  42.3445375  58.3601038  40.6479583  45.3826698  58.9422997  42.5242642
  46.5097224  58.6107294  42.1430442  45.1069044  60.1865167  42.8893827
  44.2019151  60.4273010  43.2676902  46.0958463  61.2349282  42.7558416
  47.0887980  60.8719567  42.4905155  45.8045701  62.0296570  42.0690639
  46.1338224  61.7846436  44.1501539  45.9248086  61.0645213  45.1115581
  46.4048139  63.0804991  44.2618097  46.5356770  63.6425980  43.4329435
  46.5210236  63.7261200  45.5563841  47.3912173  63.3160793  46.0689547
  46.6641727  64.7948225  45.3967513  45.2944603  63.5166281  46.4221650
  44.1682412  63.4998859  45.9265278  45.5146147  63.3558809  47.7227435
  46.4276961  63.5525104  48.1070851  44.4858325  62.8361737  48.6160041
  43.5138018  62.9606725  48.1387666  44.7118256  61.3555409  48.8793585
  45.6774032  61.2156507  49.3653530  43.9213425  60.9763753  49.5270237
  44.6989427  60.8118460  47.9347268  44.4516378  63.6129290  49.9277922
  43.3814220  63.9734649  50.4191057  45.6281012  63.8662499  50.4911868
  46.4669499  63.8660532  49.9286639  45.7577213  64.0941387  51.9257116
  44.8603220  63.7464777  52.4374785  46.9631043  63.3339289  52.4818103
  47.8475173  63.7073088  51.9655735  47.0343612  63.5730213  53.5428746
  46.8740132  61.8337241  52.3081570  47.7286495  61.1633556  51.4432820
  48.4698998  61.7368332  50.8867113  47.6513645  59.7929394  51.2816510
  48.3283955  59.2788966  50.5993821  46.7108172  59.0761268  51.9891992
  46.6296873  57.7113485  51.8313671  47.2728467  57.3670198  51.2073611
  45.8506759  59.7177305  52.8546017  45.1069798  59.1510847  53.4148956
  45.9357471  61.0889661  53.0094724  45.2589053  61.6034218  53.6916165
  45.8869168  65.5817731  52.2381080  46.3771372  66.3580902  51.4179057
  45.4442467  65.9712424  53.4287750  45.0641856  65.2908714  54.0712298
  45.5718064  67.3136400  53.8687159  46.3879542  67.7892274  53.3248239
  44.2518533  68.1526081  53.6344119  44.3054098  69.0742445  54.2139093
  44.1027633  68.4893579  52.1611432  44.0486709  67.5681532  51.5810080
  43.1908471  69.0671099  52.0104379  44.9616104  69.0748622  51.8330151
  43.0178241  67.3993983  54.0678734  43.0882018  67.1664380  55.1303603
  42.1351589  68.0133300  53.8887378  42.9376530  66.4736960  53.4980062
  45.7637879  67.1970887  55.3402682  45.4301184  66.1618772  55.9458091
  46.3025757  68.2453315  55.9309219  46.6185737  69.0485120  55.4063786
  46.4495567  68.2627101  57.3337446  45.5262137  67.9266111  57.8055224
  47.2673391  67.6044688  57.6270869  46.7557284  69.6604690  57.7978079
  46.7938850  70.5967635  56.9986422  46.9490078  69.8041360  59.1087682
  46.8737127  68.6768235  60.0822291  47.5872025  67.9007236  59.8052785
  45.8669530  68.2590800  60.0871578  47.2282482  69.3543483  61.4008851
  47.9124917  68.6975881  61.9380777  46.3083259  69.4673039  61.9745447
  47.8662699  70.7152084  61.1189329  48.9514160  70.6532347  61.0369809
  47.6010465  71.4593346  61.8699538  47.2544365  71.1068546  59.7455039
  46.3066794  71.6339070  59.8553703  48.2208814  71.9690665  58.9828979
  49.2746426  71.4985621  58.4672916  47.8980514  73.2474558  58.9553700
  46.9863563  73.5142360  59.2985021  48.7752862  74.3179128  58.3406880
  48.4495737  75.3125549  58.6451511  50.3114568  74.2019150  58.5795671
  50.7634051  75.1545899  58.3034264  50.6696830  73.8677484  60.0464010
  50.2184380  72.9149137  60.3231386  51.7526237  73.8000549  60.1501130
  50.2908318  74.6524116  60.7012872  50.9335035  73.2568140  57.6577260
  51.8761558  73.2115176  57.8336672  48.5016085  74.3871436  56.8598347
  48.9999261  75.3123852  56.1900782  47.7444446  73.4043583  56.3292824
  47.5405142  72.5781258  56.8732047  47.2946857  73.4428732  54.8979559
  48.0113123  74.0296202  54.3232617  47.1887372  72.0506865  54.2718537
  46.6124292  71.4262498  54.9545302  46.6485057  72.1537480  53.3307754
  48.5181448  71.4140649  54.0161613  49.0929989  72.0652922  53.3577187
  49.0427932  71.3031672  54.9651332  48.4045921  70.1033823  53.3911799
  47.2883522  69.6291165  53.0971278  49.5608767  69.4519725  53.1612119
  49.5453592  68.5387832  52.7299974  50.4381946  69.8796544  53.4210249
  45.9709148  74.2296047  54.7952222  44.9437505  73.7408945  54.3018817
  46.0456338  75.4851361  55.1942473  46.9503907  75.8456937  55.4616655
  44.8535950  76.3394327  55.4188691  44.0862474  75.7797214  55.9536588
  45.2485683  77.5857172  56.2728949  46.0313522  78.1899930  55.8144197
  44.3364316  78.1765330  56.3568198  45.6979731  77.1862227  57.6673082
  45.1495427  76.2343336  58.2548175  46.7459074  77.8192675  58.1741079
  47.0762483  77.5827819  59.0987966  47.2095068  78.5353621  57.6333815
  44.1001088  76.7289489  54.1760998  42.8677909  76.8455302  54.1959835
  44.8045082  76.9530024  53.0645124  45.8144302  76.9461165  53.0540481
  44.1158721  77.3282212  51.8667435  43.4331480  78.1516331  52.0764570
  45.0773369  77.7636090  50.8293733  45.9357767  77.0919898  50.8397660
  44.5909420  77.7156674  49.8550932  45.5302276  79.1437895  51.0850151
  44.7133017  79.8186667  50.8295279  45.7552791  79.2325741  52.1478279
  46.7005346  79.4922067  50.3149107  47.5048754  78.7734356  50.4714451
  46.4699622  79.5527502  49.2512988  47.1538498  80.8150494  50.7753211
  46.5912674  81.6080917  50.5020369  48.2310211  81.0294374  51.5387016
  49.0327294  80.0184593  51.8833364  48.8252613  79.0825039  51.5654613
  49.8428314  80.1944727  52.4602710  48.5276932  82.2639718  51.9431956
  47.9368211  83.0367569  51.6715831  49.3420654  82.4212312  52.5195342
  43.2296784  76.1819887  51.4142063  42.0683227  76.3945797  51.1712659
  43.7554977  74.9509982  51.3296642  44.7248009  74.7789402  51.5553777
  42.9847370  73.8735684  50.7549696  42.3552244  74.1402637  49.9060370
  43.8309436  72.6111444  50.3985289  44.5215047  72.9063813  49.6085536
  44.6061860  72.0288036  51.5506818  43.9162153  71.7328846  52.3409178
  45.1635711  71.1561923  51.2101350  45.3007243  72.7752094  51.9361607
  43.0032301  71.5578391  49.6085104  43.6063761  70.6544509  49.5179256
  42.1032606  71.3371806  50.1825001  42.5999480  72.0635550  48.1768449
  43.4994677  72.2839905  47.6020647  42.0238183  71.2913323  47.6670940
  41.9963538  72.9667221  48.2666394  41.8112098  73.5373319  51.6229835
  40.7372167  73.2481550  51.1083248  41.9888640  73.6109517  52.9360060
  42.9049150  73.8309336  53.3000911  40.8966918  73.3611829  53.8951829
  40.4598303  72.3807744  53.7053135  41.4159921  73.3943042  55.3311193
  41.9364845  74.3519702  55.3390364  40.6125923  73.4119151  56.0675556
  42.3972463  72.2802176  55.6767150  43.0685190  72.1438279  54.8288401
  43.2510779  72.6147997  56.9820021  42.5804748  72.7508774  57.8304555
  43.9361874  71.7927419  57.1892378  43.8208145  73.5297225  56.8194695
  41.6499893  70.9373387  55.7461363  41.1890843  70.7271062  54.7810103
  42.3531650  70.1420155  55.9933331  40.8774969  70.9900458  56.5133236
  39.8015993  74.4030716  53.7421003  38.6468352  74.0620342  53.7517588
  40.1847900  75.6736237  53.5936945  41.1665077  75.9017337  53.6592338
  39.2205786  76.7764784  53.4239009  38.4318278  76.6827340  54.1703480
  39.9048618  78.1674372  53.5939719  40.2246818  78.2392094  54.6335214
  40.7798498  78.1726711  52.9439961  39.0232994  79.3415727  53.2580543
  37.9919177  79.0299384  53.4230898  39.2750495  80.1443817  53.9510346
  39.1806619  79.8400584  51.8233390  38.9512678  79.0313925  51.1294103
  38.4979370  80.6718134  51.6496449  40.5474661  80.2963446  51.5755928
  41.0359874  80.7156124  52.3538350  41.1751898  80.2009041  50.4122613
  40.5929632  79.6875028  49.3334767  39.6407749  79.3550148  49.3872282
  41.1053675  79.6321917  48.4648674  42.4108293  80.6239733  50.3321829
  42.8623264  81.0121870  51.1479895  42.9073124  80.5603394  49.4549406
  38.5370089  76.6385779  52.0538042  37.3214822  76.6746208  51.9727690
  39.3212618  76.4986012  50.9807451  40.3181255  76.6462065  51.0483828
  38.7487532  76.2470307  49.6669475  38.1060450  77.0859659  49.4000898
  39.8092872  76.0812313  48.5827984  40.2526799  77.0769609  48.5778412
  40.5744086  75.3445832  48.8278267  39.2283934  75.7731451  47.1953960
  38.7623240  74.7915715  47.2813817  38.2032006  76.7820707  46.6302449
  38.6687122  77.7638439  46.5435314  37.8702924  76.4502469  45.6467990
  37.3464932  76.8447360  47.3012336  40.2696033  75.4862336  46.0882155
  40.8705630  74.6213659  46.3691975  39.7552321  75.2810641  45.1493710
  40.9178263  76.3537890  45.9647101  37.8119274  75.0605419  49.6775148
  36.6865909  75.1369828  49.2032116  38.2525093  73.9355645  50.2151518
  39.2165145  73.8132764  50.4905402  37.3608959  72.7590923  50.2466117
  36.8670379  72.6551145  49.2804895  38.1319243  71.4857759  50.5362433
  37.4650779  70.6288946  50.4404849  38.9516542  71.3889147  49.8243719
  38.6497152  71.5329267  51.8437472  39.1371451  70.7257977  52.0241762
  36.1613825  72.9017202  51.1476193  35.0662823  72.5611002  50.7884987
  36.3411962  73.4108507  52.3379685  37.2632008  73.5589963  52.7227538
  35.1757704  73.6821079  53.1947207  34.6569956  72.7538602  53.4341537
  35.6435096  74.3295577  54.4964821  36.1416626  73.5461654  55.0676556
  36.3701034  75.0923232  54.2165707  34.5831276  74.9398935  55.3206534
  34.4135887  75.9710505  55.0106976  33.6570458  74.3738872  55.2200984
  35.0118667  74.9166089  56.6920449  35.0624330  73.8831856  57.0349417
  35.9990295  75.3725994  56.7674217  34.0333369  75.6867314  57.5538250
  34.0119344  76.7307968  57.2414633  33.0369065  75.2569063  57.4514729
  34.4641353  75.6036411  58.9707801  35.3872538  76.0022655  59.0659149
  33.8148457  76.1157878  59.5506325  34.4836225  74.6362970  59.2605466
  34.1225189  74.5388162  52.4609113  32.9448710  74.1434503  52.3706211
  34.5554472  75.6630067  51.8532643  35.4934554  76.0139164  51.9840400
  33.5786902  76.5200776  51.1507993  32.7395097  76.7016566  51.8222934
  34.1562561  77.8779788  50.7059657  33.3023601  78.5537830  50.7533930
  34.8644021  78.1322108  51.4946326  34.8258063  78.0121717  49.3713186
  35.4420003  77.1425989  49.1427386  34.0165801  78.0845339  48.6446716
  35.7295810  79.3432112  49.3020424  35.3824253  80.3087687  50.0508357
  36.8061322  79.4163878  48.5786008  32.8720740  75.8001671  50.0322625
  31.8391149  76.2306667  49.5313916  33.4271068  74.7119282  49.6009127
  34.3258255  74.3970412  49.9374393  32.7724031  73.9397502  48.5303572
  32.1049268  74.5676950  47.9402217  33.8584427  73.4095299  47.6279988
  34.5661940  72.9353692  48.3079687  33.3949654  72.6495888  46.9988897
  34.6153398  74.4453681  46.7246745  35.0657957  75.2346857  47.3264786
  35.6669291  73.6973971  46.0361100  35.2171835  72.9081411  45.4336958
  36.2292033  74.3713669  45.3898026  36.3391695  73.2544941  46.7709774
  33.7483612  75.1466490  45.7209120  32.9615256  75.6944915  46.2394270
  34.3537090  75.8432082  45.1408597  33.2990860  74.4124578  45.0521713
  31.8880403  72.8154651  49.0718768  31.3810206  71.9612000  48.3042076
  31.7067607  72.8032521  50.3869595  32.1217840  73.5216190  50.9629837
  30.9103474  71.7633428  51.0407404  30.6655969  72.1204017  52.0410930
  29.9933449  71.6436102  50.4637916  31.6073460  70.4087136  51.1531580
  30.9341152  69.3690171  51.3334920  32.9550397  70.4034112  51.0651610
  33.4136854  71.2311489  50.7121825  33.7764991  69.1544728  51.2464625
  33.1505152  68.2633992  51.1992262  34.8777198  69.0600563  50.1894253
  35.5407174  69.9161922  50.3141886  35.6953552  67.7536570  50.3102485
  35.0330676  66.8970243  50.1851238  36.4647187  67.7332376  49.5383913
  36.1656062  67.7082662  51.2925432  34.1985866  69.1809232  48.8417505
  33.8971850  68.1785019  48.5377614  33.3122856  69.8006078  48.9779888
  35.0629895  69.7777353  47.7911455  35.9493327  69.1583089  47.6540081
  34.5103061  69.8329794  46.8532818  35.3644353  70.7804147  48.0942369
  34.2494454  68.9684538  52.6943080  34.8103834  69.8803472  53.3112529
  33.9465853  67.8098367  53.2635744  33.4686676  67.0893018  52.7415367
  34.3720486  67.5088721  54.6359954  34.5143706  68.4292120  55.2024034
  33.2898208  66.6754471  55.3221381  33.1629592  65.7937735  54.6939209
  33.7173698  66.3798162  56.2802114  31.9619601  67.3207479  55.5478259
  32.0551336  68.1402258  56.2604797  31.5922250  67.7064293  54.5977496
  30.9569120  66.2558367  56.1054642  30.6426899  65.2601066  55.3646051
  30.5024608  66.4124112  57.2865804  35.6320860  66.6395034  54.6081221
  35.7989158  65.8342658  53.6960711  36.4855679  66.7847784  55.6133031
  36.3319875  67.5157095  56.2931944  37.6503583  65.9118454  55.7828236
  37.8855257  65.4427013  54.8274706  38.8898344  66.6555631  56.2800196
  39.7341595  65.9663327  56.2667156  39.2123387  67.8858047  55.3892706
  38.3685996  68.5757542  55.4024489  40.0993858  68.3900652  55.7726345
  39.3957469  67.5564453  54.3665368  38.6358928  67.0809884  57.6246630
  39.4016078  67.5521772  57.9612072  37.3401901  64.8351408  56.7975088
  36.4182921  64.9826095  57.5990468  38.1371283  63.7678030  56.7792485
  38.7356610  63.5835430  55.9868431  38.0904389  62.7972291  57.8380834
  37.6926657  63.2628810  58.7397729  37.1966871  61.6125208  57.4644796
  37.0734667  61.0218763  58.3722544  36.2391683  62.0518067  57.1846836
  37.6833774  60.7290180  56.3563422  38.4499525  59.5773234  56.6249669
  38.6961489  59.3335727  57.6584428  38.8925929  58.7537863  55.5896288
  39.5015237  57.8714266  55.7864703  38.5439748  59.0875196  54.2676759
  38.9185437  58.2991814  53.1712207  39.4276673  57.5250131  53.4223305
  37.7825227  60.2479065  53.9994967  37.5266057  60.5185086  52.9751035
  37.3698752  61.0269881  55.0298208  36.7735114  61.9181956  54.8343735
  39.5137454  62.3944590  58.1598315  40.4034761  62.5235299  57.3157130
  39.7382184  61.9213782  59.3723526  38.9787216  61.8523449  60.0345447
  41.0694370  61.5511892  59.8120935  41.7965102  62.2895223  59.4739691
  41.1088487  61.4905389  61.3368765  40.1863816  61.0075407  61.6591598
  41.9595782  60.8652133  61.6076665  41.2392717  62.8647679  62.0296684
  41.9891800  63.4444651  61.4914402  40.2750925  63.3689016  61.9640193
  41.6618052  62.7353214  63.5415381  42.0730495  61.7397519  63.7083269
  42.4236019  63.4837729  63.7596791  40.4736414  62.9474136  64.4493931
  39.5667334  62.8786866  63.8486478  40.4715408  62.1581430  65.2011555
  40.5243873  64.3181480  65.1456984  40.5259066  65.0496550  64.4492827
  39.7161094  64.4228545  65.7422078  41.3644629  64.3818728  65.7027544
  41.5520787  60.2130305  59.2263980  40.8118408  59.2345575  59.2251508
  42.8135714  60.1789880  58.7644994  43.3023389  61.0528328  58.6318310
  43.4744406  58.9479881  58.3504690  42.8838364  58.3559921  57.6513078
  44.8335625  59.2690392  57.6983649  45.3643006  59.9433555  58.3704614
  45.6956591  58.0349761  57.4296349  45.1657399  57.3603560  56.7571957
  46.6356066  58.3407950  56.9702072  45.9010142  57.5228723  58.3696777
  44.6496105  60.0481532  56.4101491  44.1345583  60.9851384  56.6220026
  45.6244028  60.2611272  55.9713762  44.0574776  59.4589162  55.7099496
  43.6137983  57.9688088  59.5432533  43.7992816  58.3935372  60.6945494
  43.5153770  56.6533437  59.3044754  43.3522354  56.2577285  58.3896132
  43.5509506  55.7441675  60.4617995  42.9934063  56.1905384  61.2852050
  42.9335303  54.3870182  60.1336485  41.9376602  54.5427653  59.7188175
  43.5509061  53.8592702  59.4067172  42.8121367  53.5360611  61.3697434
  41.9808935  53.8023280  62.2362482  43.6421085  52.5188359  61.4753318
  43.5997225  51.9185332  62.2864667  44.3170959  52.3438119  60.7446750
  44.9487227  55.5119046  61.0679826  45.8200797  55.0043546  60.4277396
  45.1662388  55.9191296  62.3024203  44.5305939  56.5617609  62.7530643
  46.3985557  55.5913439  62.9758263  46.8565539  54.6563465  62.6531550
  47.4696832  56.7302095  62.8865183  48.1862751  56.6108503  63.6991368
  48.2034964  56.6623187  61.5459215  47.4875710  56.7820713  60.7327726
  48.9453918  57.4593409  61.4964525  48.7011205  55.6970992  61.4519885
  46.9120194  58.1219815  63.1900998  46.5044031  58.1381028  64.2008872
  47.7105018  58.8595196  63.1090872  46.1232330  58.3614092  62.4769440
  46.1029119  55.1524163  64.4009437  46.9295948  55.3005147  65.2955767
  44.8998181  54.6282121  64.6232525  44.1857033  54.6666674  63.9100480
  44.5432934  54.0851517  65.9317557  44.7376028  54.8332689  66.7003022
  43.0705453  53.7023405  65.9866591  42.4962088  54.5765175  65.6799809
  42.9173553  52.8972058  65.2680556  42.6347971  53.2759125  67.2795890
  41.7022651  53.0505886  67.2447610  45.4469936  52.9219037  66.2810292
  45.8536173  52.8020673  67.4134842  45.8439839  52.1154021  65.3058231
  45.5069542  52.2000660  64.3574865  46.6753355  50.9536058  65.6484206
  46.6482014  50.7971317  66.7267891  46.1809039  49.6926607  64.9626657
  46.3435988  49.7979130  63.8900280  46.7599130  48.8481243  65.3363055
  44.7047818  49.4518046  65.2293977  44.5015136  48.3837162  65.1521317
  44.5034191  49.7867756  66.2469175  43.7977816  50.2196442  64.2469241
  44.3413270  50.7655251  63.2714620  42.5592380  50.2723739  64.4147579
  48.1477456  51.2081649  65.4039248  48.5686395  52.3750340  65.1951094
  48.9328576  50.1375953  65.4253469  48.5422041  49.2390269  65.6704265
  50.3897454  50.2495388  65.2912407  50.7277728  51.1710344  65.7652476
  51.1038484  49.0621365  65.9598674  50.6398438  48.1553381  65.5719040
  52.1459008  49.1008247  65.6424875  51.0351288  49.0550985  67.5204465
  51.6584705  49.8686129  67.8915802  50.0001055  49.2273652  67.8156632
  51.5109195  47.7558775  68.1011823  52.5914195  47.6833853  67.9772324
  51.2647716  47.7274145  69.1626438  50.8767960  46.5916894  67.4347474
  50.0050478  46.7361944  66.9455922  51.3915686  45.3534239  67.4732787
  52.5300301  45.1420340  68.1266559  52.9953937  45.9116833  68.5861956
  52.9242778  44.2127731  68.1604558  50.7998356  44.3324598  66.8469924
  49.9456794  44.4873936  66.3307436  51.2093356  43.4103284  66.8926230
  50.8624612  50.4953615  63.8512559  50.3942516  49.8813471  62.8834584
  51.7357972  51.4806489  63.7041271  51.9056782  52.1367498  64.4529738
  52.4830343  51.6435525  62.4557785  51.7957572  51.6402353  61.6097653
  53.2443012  52.9665470  62.4605820  53.6378581  53.0347945  63.4747588
  54.0705758  52.9710062  61.7497019  52.3234246  54.1714587  62.1850317
  51.6249998  53.8686883  61.4048818  51.5429028  54.6568586  63.4070602
  52.2407048  54.9602583  64.1875214  50.9199865  55.5063695  63.1270471
  50.9108444  53.8504481  63.7789536  53.1800663  55.2216898  61.5890001
  53.6231566  54.8490800  60.6654567  52.5770536  56.1034250  61.3721594
  53.9715503  55.4868493  62.2899584  53.4357411  50.4641106  62.4182871
  53.5914773  49.8230517  63.4293646  53.9913926  50.1406154  61.2516954
  53.5983558  50.5078414  60.3968466  55.0780329  49.1885700  61.1541732
  55.6100317  49.1381766  62.1041926  54.6682249  47.7707383  60.7471502
  55.5349117  47.1121847  60.8042482  53.6221393  47.2816504  61.6527418
  52.7548894  47.9394813  61.5958460  53.3315858  46.2722433  61.3615777
  54.0018541  47.2694396  62.6743920  54.1918134  47.6831948  59.3029819
  54.9927730  48.0014549  58.6356916  53.9151602  46.6543124  59.0728433
  53.3261111  48.3310871  59.1655193  56.1868244  49.6131387  60.2453829
  55.9913462  50.3317130  59.2967390  57.3796015  49.1267920  60.5839292
  57.4745256  48.6268404  61.4563610  58.5556877  49.3191235  59.7759719
  58.3091056  49.9699964  58.9371269  59.6983460  49.9574794  60.5713477
  59.3346829  50.8492875  61.0817658  60.0736008  49.2460341  61.3069628
  60.8116304  50.3378722  59.6265809  61.0237541  49.4905009  58.9746098
  60.4395830  51.1706316  59.0297604  62.0773531  50.7561702  60.2902915
  62.3461355  50.4733998  61.4955566  62.9119868  51.4231392  59.5016079
  63.7964087  51.7470227  59.8662979  62.6585185  51.6034580  58.5407019
  58.9620798  47.9660794  59.2396975  59.0889129  47.0245084  59.9886183
  59.1202427  47.8431162  57.9367802  58.8517664  48.5640537  57.2823576
  59.6051149  46.5761034  57.4075407  59.6287024  45.8374736  58.2087703
  58.6993371  46.0492105  56.2790109  57.6872177  45.9671217  56.6752116
  58.7141613  46.7796081  55.4700612  59.1472421  44.6949171  55.7476481
  58.8184688  43.4908192  56.4024072  58.2267065  43.5336667  57.3167818
  59.2387219  42.2534071  55.8972958  58.9921063  41.3140478  56.3921560
  60.0102603  42.2493836  54.7667555  60.4963473  41.0991885  54.1956813
  60.2384120  40.3062179  54.6713564  60.3218784  43.4168996  54.1049629
  60.9093283  43.3733399  53.1878448  59.9028853  44.6162074  54.5870857
  60.1598592  45.5352219  54.0603250  61.0549500  46.8234770  56.9792305
  61.2645961  47.5859689  56.0637763  62.0323538  46.2735744  57.7124235
  61.7826813  45.7137448  58.5151400  63.4469932  46.3668772  57.3436822
  63.5906238  46.6753894  56.3081680  64.2979254  47.3065697  58.2697412
  64.9688166  46.6837082  58.8613896  65.1174285  48.3178686  57.4664634
  64.4471470  48.9414410  56.8748715  65.6898519  48.9462768  58.1487647
  65.8001139  47.7875859  56.8025036  63.4929233  47.9675544  59.2811713
  63.0146598  47.2185339  59.9123087  64.1301724  48.6050553  59.8940381
  62.7287128  48.5760177  58.7975852  64.1410314  44.9878079  57.5180669
  63.9167386  44.2566830  58.5219270  65.0089035  44.6672001  56.5521116
  65.0837392  45.2627590  55.7398256  65.8211228  43.4590881  56.5997687
  66.2999518  43.2693932  55.6391242  66.9129356  43.6692230  57.6593612
  66.4210801  43.9653155  58.5859175  67.4186617  42.7148432  57.8059915
  67.9466322  44.7425853  57.2605871  68.4558357  44.4055744  56.3576827
  67.4115971  45.6688467  57.0511132  68.9576721  44.9830614  58.3450222
  68.4633181  45.4877232  59.1751003  69.3409358  44.0200338  58.6823444
  70.1258473  45.8516539  57.8384575  71.0394096  45.4693672  58.2938271
  70.1804451  45.7282234  56.7568462  69.9703482  47.3453724  58.1769306
  69.9201704  47.4600053  59.1791488  70.7647605  47.8561389  57.8189828
  69.1241003  47.6999070  57.7547118  64.9597650  42.2246813  56.9176168
  65.2605272  41.4917995  57.8303223  63.8424894  42.0405724  56.2266505
  63.5185606  42.7554262  55.5909198  63.0499706  40.8160689  56.3565089
  62.4914964  40.7015082  55.4274871  63.7563365  39.9922897  56.4591467
  62.0800991  40.7830592  57.5229032  61.1865583  39.9169071  57.5936021
  62.2457515  41.7557927  58.4052268  62.9069803  42.4820745  58.1698747
  61.6307906  41.7818105  59.7303068  60.9890250  40.9098662  59.8565971
  62.7216360  41.7602187  60.8374686  63.6709726  41.9761127  60.3473166
  62.4804774  42.5651464  61.5317553  62.8356231  40.4063824  61.6253164
  62.8485784  39.5912231  60.9018191  63.7734231  40.4133885  62.1808198
  61.5924860  40.1946488  62.6603347  60.6826214  40.4338834  62.1098692
  61.5862080  39.1385953  62.9301702  61.6611761  41.0853501  63.9911235
  62.6945150  41.0093607  64.3295568  61.4618150  42.1045724  63.6601549
  60.7187110  40.7300983  65.1454392  60.9035731  39.7858498  65.4525556
  60.8701050  41.3693796  65.9125762  59.7611345  40.8008647  64.8321687
  60.6555447  42.9790287  59.8933928  60.9526158  44.1422713  59.5159365
  59.4833017  42.6744558  60.4161534  59.1761763  41.7139531  60.4727906
  58.5225534  43.7027715  60.6216157  58.8653611  44.6532514  60.2127515
  57.1202499  43.3685544  60.0047139  56.9815428  43.9964955  59.1246284
  56.9929606  41.9028864  59.6076840  57.1310983  41.2743012  60.4873988
  56.0036835  41.7247009  59.1861631  57.7529215  41.6597596  58.8650876
  56.0772905  43.7264794  60.9091803  55.2269657  43.5156067  60.5166493
  58.5659201  44.1787009  62.0827155  58.4517829  43.3808576  63.0093653
  58.7757838  45.4878944  62.2667003  58.9462751  46.0656308  61.4559891
  58.7841302  46.1180186  63.5753942  58.7309865  45.3686283  64.3651341
  60.0811414  46.8956530  63.7301221  60.1016588  47.6555301  62.9489275
  60.0758929  47.3794801  64.7068431  61.3216951  46.0050702  63.6084547
  62.0044035  45.8972358  62.3980800  61.6422818  46.4570900  61.5357978
  63.1292846  45.0924502  62.2805027  63.6578222  45.0202402  61.3299578
  63.5827699  44.3808828  63.3824867  64.6877027  43.5922827  63.2436001
  65.0538557  43.6124969  62.3564005  62.9341228  44.4561217  64.6059523
  63.2931638  43.9021282  65.4732937  61.7969251  45.2638463  64.7135463
  61.2622237  45.3287695  65.6611641  57.6236146  47.0762564  63.8045450
  57.6411632  48.1885572  63.2695291  56.6322920  46.6746876  64.6398910
  56.5179203  45.3834856  65.3434644  57.1877360  45.3735582  66.2033183
  56.7845336  44.5718755  64.6664818  55.1093009  45.3470854  65.7291424
  55.0285665  44.8035167  66.6704788  54.5579350  44.8145433  64.9542257
  54.6353234  46.6957263  65.8602875  54.8166284  46.9393029  66.9071389
  53.5859693  46.8713334  65.6233955  55.5179267  47.5533631  64.9703878
  55.0621196  47.9308730  64.0550603  56.0334893  48.7130319  65.7909781
  57.0421716  48.5723538  66.4852481  55.3547645  49.8555314  65.7083609
  54.5746832  49.9349124  65.0717518  55.7354360  51.0324555  66.4886942
  55.9160066  50.7328984  67.5210502  57.0079468  51.6961654  65.9403417
  57.4551970  52.3949839  66.6472499  57.7100752  50.8879463  65.7356527
  56.8238523  52.4608965  64.6246284  56.6630143  53.8471497  64.6207220
  56.6395482  54.3754216  65.5738631  56.5332399  54.5578589  63.4246288
  56.3924754  55.6385395  63.4450104  56.5837130  53.8861520  62.2082233
  56.4764616  54.4343716  61.2722466  56.7734751  52.4979424  62.1892919
  56.8261944  51.9549683  61.2456289  56.8955305  51.8098494  63.3987614
  57.0518335  50.7311143  63.3987079  54.5915594  52.0458797  66.4980027
  53.5756316  51.8739621  65.8043896  54.7802667  53.0734220  67.3073163
  55.6617200  53.0987720  67.7997558  53.8925960  54.1776253  67.4543771
  53.0466307  54.0643356  66.7764336  53.3669430  54.2515112  68.8790952
  54.2163667  54.5365981  69.4998239  52.6271308  55.0519606  68.8867455
  52.7514688  52.9980719  69.4208807  53.1756374  52.1295190  68.9170973
  52.9415054  52.9250902  70.4917037  51.3058063  53.0424731  69.1834882
  50.8756272  53.8792242  69.7338449  51.1193754  53.1749704  68.1177549
  50.6604389  51.8181616  69.6196755  51.2151292  51.1174223  70.0901885
  49.3631435  51.5876412  69.4442535  48.6067693  52.5132852  68.8246444
  49.0293110  53.3711889  68.4997446  47.6202748  52.3455435  68.6875648
  48.8420643  50.4310361  69.8686392  49.4356748  49.7472204  70.3159901
  47.8573980  50.2468469  69.7397780  54.7269791  55.4315080  67.2440560
  55.9660325  55.4340298  67.4783043  54.0391582  56.5128993  66.8736019
  53.0343516  56.4770307  66.7778083  54.7098947  57.7645924  66.5990860
  54.0649575  58.5999529  66.8717176  55.6379228  57.8220194  67.1679140
  55.0287957  57.8511559  65.1328995  54.7521152  56.9178695  64.3671120
  55.6318060  58.9651415  64.7617667  55.9195167  59.6296844  65.4658296
  55.8241451  59.3195208  63.3504602  54.9220898  59.0217154  62.8159443
  56.0020336  60.8616464  63.2069359  56.9062884  61.1737908  63.7294195
  56.0846641  61.1217244  62.1516483  55.1397021  61.3691789  63.6392485
  56.9897865  58.5845262  62.7133226  56.8974946  58.1317696  61.5692218
  58.0890177  58.4409766  63.4661217  58.1289487  58.8159038  64.4031032
  59.2900923  57.8001979  62.9221874  59.1579470  57.5902790  61.8607870
  60.4723954  58.7201284  63.0876330  60.6383642  58.9956659  64.1290900
  61.3462389  58.1899685  62.7089140  60.3796265  60.0013404  62.3145329
  59.6979864  61.0897833  62.8196021  59.1932201  61.0236340  63.7834149
  59.6564586  62.2870222  62.0855774  59.0936922  63.1380539  62.4691654
  60.3285633  62.3881948  60.8764896  60.3261539  63.3212680  60.3130462
  60.9868114  61.3201257  60.4022704  61.4934648  61.3928923  59.4399256
  61.0274892  60.1499278  61.1100451  61.5860173  59.2978248  60.7226606
  59.5818442  56.4322417  63.5687047  59.3662706  56.2451689  64.7347874
  60.0816884  55.4638211  62.7899606  60.4734097  55.4022175  61.3728222
  61.4471688  55.8755143  61.2467925  59.7332337  55.9291559  60.7706807
  60.5061522  53.9152328  61.0777943  61.3441194  53.7137103  60.4104872
  59.5744371  53.6400799  60.5835279  60.6588639  53.1746989  62.4034883
  61.7054033  52.8875249  62.5053972  60.0298164  52.2882549  62.4848275
  60.2833735  54.1902896  63.5052743  59.3529176  53.9074972  63.9975938
  61.3841768  54.3355233  64.5470901  62.3236808  55.1018874  64.3145835
  61.2325106  53.6554797  65.7123815  60.0514047  52.8474176  66.0710142
  60.1203324  51.8620978  65.6100433  59.1429245  53.3444044  65.7307689
  60.1487878  52.7902433  67.5998247  59.5732161  51.9676911  68.0243528
  59.8473382  53.7254632  68.0716226  61.6174789  52.5646853  67.7534743
  61.8528596  51.5682536  67.3795508  62.0232018  52.6802541  68.7585278
  62.2156297  53.6244704  66.8234635  62.2897298  54.6266244  67.2457131
  63.5818132  53.1752937  66.3483970  63.6549337  52.2789653  65.5101162
  64.6317089  53.8635626  66.7989166  64.5091341  54.7862270  67.1910456
  65.9762028  53.3727411  66.6114059  65.9293861  52.4302006  66.0659477
  66.8911782  54.3337078  65.8494164  66.9603473  55.2757595  66.3933406
  68.2885013  53.7179138  65.7149993  68.2201986  52.7759920  65.1707391
  68.9379761  54.4044688  65.1719292  68.7023392  53.5347822  66.7066154
  66.3309477  54.6290230  64.4534824  65.3444859  55.0833838  64.5459568
  66.9984742  55.3142379  63.9309994  66.2509423  53.6997376  63.8894534
  66.5856537  52.9639894  67.9599005  66.9150408  53.8150030  68.8045246
  66.7483721  51.6475541  68.1242778  66.4371687  51.0216752  67.3952185
  67.1598619  51.0716834  69.4027605  66.8358285  51.7207125  70.2163101
  66.5311070  49.6665927  69.6083728  66.4172311  49.2046050  68.6277103
  67.0319338  48.9706239  70.2813511  65.1495078  49.8675212  70.1503807
  63.9567048  49.6948928  69.4754390  64.0120089  49.3238086  68.4520438
  62.8928264  50.0535050  70.2995379  61.9167822  49.9917077  70.0473112
  63.3796359  50.4902069  71.5119256  62.6844464  50.9491775  72.6723840
  61.5955751  50.9862103  72.6394212  63.4454063  51.3236719  73.7820597
  62.9481474  51.6826094  74.6831686  64.8816727  51.2456524  73.7621148
  65.4812682  51.5299301  74.6268523  65.5640513  50.7882722  72.5944904
  66.6514779  50.7240347  72.6329314  64.8055829  50.4028625  71.4558899
  68.6610979  51.1325821  69.6019885  69.1361024  51.5353337  70.6540702
  69.4187119  50.8423625  68.5680501  69.0495501  50.4255499  67.7253840
  70.8688867  50.9863044  68.6926484  71.2421323  50.3702006  69.5106967
  71.5322833  50.5353801  67.4040983  71.2246895  49.5050372  67.2255518
  71.2026002  51.1613183  66.5748755  73.0260413  50.5830081  67.4746213
  73.6212389  51.5366853  67.9844709  73.6557204  49.5606848  66.9257085
  74.6651231  49.5279621  66.9373360  73.1251269  48.8160292  66.4966871
  71.2828809  52.4150814  69.1297824  70.9313672  53.3770249  68.4683237
  72.0011560  52.5542360  70.2783323  72.5629473  51.5024314  71.1459375
  73.4449639  51.0698322  70.6737036  71.8181886  50.7229011  71.3064550
  72.8913832  52.2485849  72.4066114  73.7819396  51.8032704  72.8501239
  72.0535419  52.1482893  73.0965854  73.1204106  53.6932821  72.0451043
  74.1700158  53.9006137  71.8366780  72.7726521  54.3489038  72.8434300
  72.2872426  53.9184385  70.7863451  71.3233976  54.3708275  71.0196801
  73.0456779  54.8135822  69.8383030  72.7940720  56.0172922  69.8315392
  73.9771883  54.2735404  69.0549837  74.1807414  53.2844215  69.0725735
  74.7620781  55.1304755  68.1554108  75.0009360  56.1038445  68.5838952
  76.0738998  54.4523535  67.6389456  75.8304226  53.4545473  67.2739769
  76.7187370  55.2805134  66.4915982  76.9629320  56.2783648  66.8559633
  77.6286293  54.7853636  66.1524473  76.0172969  55.3591451  65.6609972
  77.0428611  54.1454900  68.7844524  76.4633861  53.6535651  69.5656818
  77.7862378  53.4513104  68.3925272  77.7267262  55.3341627  69.3506511
  76.9839635  56.0286364  69.7432192  78.3925359  55.0220045  70.1552341
  78.3068137  55.8263833  68.5700634  73.9238065  55.5319316  66.9386201
  73.9378909  56.7058778  66.4797149  73.2338121  54.5455435  66.3950575
  73.3819995  53.5926812  66.6953796  72.3017568  54.7871411  65.3174280
  72.8402833  55.1723836  64.4515893  71.6194753  53.5270749  64.9295953
  71.0683588  53.1338982  65.7838685  70.9272520  53.7251183  64.1112397
  72.3611283  52.7956724  64.6085027  71.2824880  55.8641827  65.7322371
  70.9543201  56.7382290  64.9213426  70.8488146  55.8284736  66.9917836
  71.1538734  55.0649248  67.5783258  69.9116618  56.7631486  67.5296201
  69.0254984  56.7668149  66.8949547  69.4818431  56.4304154  68.9756387
  69.0986791  55.4259435  69.1554183  70.3805723  56.5880163  69.5719169
  68.4312647  57.4488535  69.3675493  68.8001065  58.6987972  69.9209328
  69.8488569  58.8799483  70.1563184  67.8513760  59.6872127  70.1651320
  68.1507054  60.6493180  70.5808928  66.5242577  59.4438115  69.8746635
  65.5565003  60.4086634  70.1329956  65.9194220  61.2110146  70.5152521
  66.1250584  58.2262377  69.3193798  65.0745485  58.0417626  69.0946614
  67.0815830  57.2403109  69.0514728  66.7799826  56.2987643  68.5925315
  70.4730993  58.1763696  67.4591348  69.8113307  59.1018136  66.9855900
  71.6867032  58.3751798  67.9362209  72.2275168  57.6493597  68.3843339
  72.2627747  59.6938925  67.8354862  71.6387232  60.4023592  68.3802190
  73.6615365  59.7342991  68.4165428  74.2378006  59.0221059  67.8259501
  73.9891750  60.7475442  68.1839758  73.8813654  59.4557484  69.9116263
  73.5593875  58.4496895  70.1804694  75.3831657  59.5848856  70.1354548
  75.7058308  60.5908934  69.8672487  75.6120536  59.3980847  71.1846528
  75.9073554  58.8581799  69.5147903  73.1433049  60.4985796  70.7321085
  72.0780114  60.4522462  70.5060500  73.2978803  60.3028960  71.7932002
  73.5234305  61.4902881  70.4869196  72.3016355  60.0886592  66.3707920
  72.0524214  61.2518587  66.0472472  72.5477707  59.1205998  65.4834542
  72.6440487  58.1540883  65.7603755  72.7462722  59.4620182  64.0723490
  73.4856735  60.2554337  63.9633681  73.2519297  58.2273540  63.3553024
  73.8782952  57.6179831  64.0067873  72.3413460  57.6799755  63.1117572
  74.0079352  58.5436733  62.0789945  74.7217054  59.5598871  61.9871768
  73.9393860  57.6886187  61.1958566  71.4399324  59.9988346  63.4107651
  71.4110841  61.0592933  62.7664755  70.3988011  59.2188280  63.5809277
  70.6131654  58.3557745  64.0597658  69.0401882  59.4542510  63.1765801
  68.9045415  59.4506025  62.0950599  68.2958561  58.2659319  63.7634875
  68.9881524  57.4552605  63.5362499  68.2720095  58.4314775  64.8405789
  66.9274352  57.9008336  63.2854105  65.7747157  58.2003991  64.1103792
  65.9485654  58.7159805  65.0548641  64.4365795  57.8420687  63.7221412
  63.5703511  58.1100272  64.3270780  64.2602978  57.1326615  62.5043370
  62.9635896  56.7473005  62.1626078  62.3093959  57.0141456  62.8125492
  65.3965339  56.8130728  61.6647611  65.2458257  56.2797838  60.7261502
  66.7302279  57.2007341  62.0705196  67.5848876  56.9538803  61.4406625
  68.5455947  60.8074342  63.7592064  68.1323604  61.7240403  63.0467567
  68.6273457  60.9403125  65.0525309  68.9792213  60.1894081  65.6290945
  68.2184711  62.1097167  65.6740358  67.1424433  62.2412492  65.5601827
  68.5421624  62.0401002  67.1439581  67.9911778  61.1705090  67.5021849
  69.6006220  61.9191858  67.3744857  68.0366523  63.2473622  67.8507530
  66.8094406  63.3767161  68.0498008  68.9352212  64.2128512  68.1252321
  68.6400940  65.0518350  68.6038823  69.8999355  64.0933198  67.8511165
  68.9048696  63.3388412  65.0716490  68.2971001  64.4041089  64.8090411
  70.1813598  63.1917735  64.8266244  70.6550836  62.3040140  64.9136201
  70.9211370  64.3020156  64.3744065  70.7355873  65.1687148  65.0088377
  72.4064150  63.9664046  64.4307206  72.8130679  63.7076749  65.4083666
  72.4726644  63.1020852  63.7699157  73.2102133  65.0548078  63.8614370
  73.7229200  64.9702742  62.7484559  73.1829457  66.1693450  64.5389030
  73.7099333  66.9673158  64.2139007  72.6349739  66.2290313  65.3852276
  70.5550406  64.5792882  62.9229712  70.6618438  65.7052063  62.4449215
  70.1498008  63.5320637  62.2043179  70.0956071  62.6134838  62.6206992
  69.8109022  63.6717211  60.8064303  70.6332142  64.1447780  60.2696628
  69.5512145  62.3082313  60.1919348  70.5461932  61.9171989  59.9793078
  69.0933981  61.7215827  60.9883942  68.7009485  62.2192992  58.9505566
  67.8270723  62.8653570  59.0345246  69.5408413  62.6703907  57.8173759
  70.4147385  62.0244839  57.7324820  68.9630023  62.6221689  56.8944038
  69.8638663  63.6970179  57.9899789  68.2494215  60.7919041  58.7676810
  67.6675695  60.4803658  59.6351437  67.6332648  60.7171532  57.8716539
  69.1206482  60.1451497  58.6638941  68.5750874  64.5627239  60.6611382
  68.5913861  65.4934461  59.8494354  67.5380839  64.3166560  61.4613884
  67.5663387  63.5758375  62.1473104  66.3124987  65.0740003  61.3192216
  66.0411882  65.1272140  60.2648697  65.1714862  64.4286033  62.0811528
  65.3142544  64.4885367  63.1600988  64.2494641  64.9418533  61.8081149
  64.9689912  62.9840050  61.7562628  64.9013070  61.9730820  62.6384025
  65.0227432  62.2516208  63.6851925  64.6826432  60.7470711  61.9943338
  64.5566664  59.8495956  62.4401669  64.6166010  60.9809865  60.6521762
  64.4011243  60.0805641  59.5873653  64.2817924  59.0199654  59.8086998
  64.3553411  60.6123297  58.3175113  64.1932332  59.9496125  57.4674367
  64.5158393  62.0203100  58.0822286  64.5089441  62.4211877  57.0686463
  64.6877772  62.9304393  59.1575346  64.7680632  63.9956991  58.9410249
  64.7600779  62.4048975  60.4634176  66.5152609  66.5260082  61.7950123
  66.0052355  67.4180947  61.2149910  67.2844181  66.7225505  62.8504029
  67.7200466  65.9153069  63.2731143  67.5053463  68.0102446  63.4523403
  66.5611891  68.5212088  63.6409723  68.2273247  67.7880117  64.8058641
  67.5050303  67.3201090  65.4747865  69.0470960  67.0953542  64.6153371
  68.7810273  69.0727639  65.4633671  69.4828643  69.5386501  64.7716477
  67.9484227  69.7516903  65.6475697  69.5043417  68.7635751  66.8056713
  69.6971727  69.7043906  67.3212112  68.8506128  68.1419569  67.4174953
  70.7894527  68.0555148  66.6148504  71.3179728  68.2286027  65.7717570
  71.2716093  67.2053624  67.4940203  70.5835003  66.9922889  68.6350197
  69.7160374  67.4835137  68.7972118  70.9390291  66.3425449  69.3217014
  72.4304060  66.5698265  67.2554090  72.9323111  66.7465785  66.3969510
  72.7946971  65.9180126  67.9355041  68.3352748  68.8194167  62.4504874
  68.1278346  70.0297769  62.2303245  69.2811656  68.1424652  61.8206769
  69.4560639  67.1710023  62.0346152  70.1237880  68.7888950  60.8560236
  70.4937406  69.7735207  61.1419373  71.3410410  67.8706110  60.5484027
  70.9768267  66.9303312  60.1344919  72.2790616  68.5335780  59.5512577
  72.6440735  69.4737592  59.9646886  73.1229358  67.8733428  59.3510951
  71.7433090  68.7293870  58.6224258  71.9946835  67.4845916  61.7891692
  72.7446561  66.9183160  61.5930229  69.4066693  69.1465374  59.5475849
  69.5857763  70.2137701  59.0239590  68.6328137  68.2384681  58.9834930
  68.7187245  67.2570715  59.2061574  67.6885662  68.6324566  57.9369178
  68.2511260  68.9025582  57.0432339  66.7533691  67.5320274  57.6166179
  66.3382448  67.1307888  58.5411610  65.6288093  68.0513441  56.7414439
  66.0431453  68.4523506  55.8164465  64.9430660  67.2366904  56.5086431
  65.0908628  68.8387484  57.2693710  67.5497333  66.4592749  56.8800726
  67.9141171  66.8982195  55.9512815  68.3969228  66.1867986  57.5094581
  66.7884189  65.3030027  56.5880451  65.9412501  65.5746302  55.9582647
  67.4126065  64.5791192  56.0641350  66.4240537  64.8632104  57.5164419
  66.8861486  69.9264815  58.2820939  66.8790977  70.8952207  57.4685193
  66.2899782  69.9524558  59.4862156  66.3046066  69.1255208  60.0659258
  65.4815497  71.0792694  59.9149934  64.8674817  71.4069997  59.0761773
  64.5558887  70.7338347  61.0975447  65.1842637  70.2787162  61.8631237
  64.1248870  71.6574807  61.4838293  63.4157326  69.7520764  60.7132523
  62.8849370  69.7930019  59.5382717  63.0497955  68.9534776  61.6344010
  66.3122330  72.3439345  60.1990245  65.9339792  73.4380643  59.7462971
  67.4567857  72.2013914  60.8711641  67.7126182  71.3365505  61.3258060
  68.3374092  73.3894840  61.0648312  67.7249413  74.2143421  61.4289622
  69.4772650  73.1475377  62.0626869  70.0194583  72.2490745  61.7679165
  70.1533282  74.0023069  62.0424881  68.9752690  72.9662186  63.4652290
  67.8608108  73.3391797  63.7761839  69.8050766  72.3870367  64.3278208
  69.5142464  72.2422656  65.2841466  70.7223906  72.0945386  64.0227297
  68.9080000  73.9252713  59.7889899  68.9271919  75.1222800  59.5755822
  69.3959537  73.0306698  58.9210363  69.5867252  72.0706437  59.1701455
  69.8077925  73.5034951  57.5769046  70.5598517  74.2856151  57.6808014
  70.3975598  72.3684502  56.7547649  69.7356611  71.5053000  56.8251992
  70.4664309  72.6889779  55.7152368  71.7584880  71.9949239  57.2524299
  72.4676508  72.8130394  57.1264298  71.7318103  71.6960489  58.3003154
  72.2762058  70.6209008  56.2695287  72.8851865  71.4604940  54.7951574
  73.7001888  72.1306606  55.0685566  73.2470267  70.7223423  54.0794029
  72.0770953  72.0368757  54.3447422  68.6635541  74.2177705  56.8412972
  68.8690759  75.2548969  56.2085069  67.4586902  73.6902638  56.9598420
  67.3151341  72.8062725  57.4268005  66.2795114  74.3899679  56.4052895
  66.4026089  74.4244096  55.3228108  65.4022473  73.7918684  56.6518334
  66.0753583  75.8103274  56.9276354  65.6446482  76.7005578  56.1945238
  66.4410972  76.0420036  58.1835583  66.8539289  75.3058470  58.7383041
  66.1430442  77.3175732  58.8352205  65.0734422  77.5196106  58.7783734
  66.5517188  77.2780159  60.2946894  67.5221146  76.7879714  60.3739839
  66.6301846  78.3002753  60.6647284  65.5295652  76.5155877  61.1247473
  64.6825205  77.1741246  61.3169587  65.1947384  75.6522063  60.5497988
  66.1116692  76.0511852  62.4347043  66.6589125  75.1254940  62.2566046
  66.8001140  76.8163932  62.7933126  65.0383225  75.8104035  63.4756726
  64.2323906  76.5372110  63.3740597  64.6319965  74.8030447  63.3849725
  65.6952003  75.9703246  64.8352986  66.0713993  76.9038384  64.9197133
  65.0093582  75.8168487  65.5606714  66.4417468  75.2966541  64.9298262
  66.7467546  78.5063939  58.1294592  66.1906300  79.5910651  58.1311870
  67.8758565  78.2474169  57.4912197  68.2126947  77.2958666  57.5257359
  68.6204878  79.2048114  56.7263805  68.7507029  80.1418758  57.2677248
  69.9700804  78.5984860  56.4869579  70.5142441  78.6165568  57.4312346
  69.8189865  77.5650675  56.1750016  70.7632890  79.3277364  55.4375638
  70.2935296  79.2237431  54.4594982  70.7792648  80.3797481  55.7223715
  72.1598913  78.8086289  55.3755704  72.7950249  78.6499381  56.4745056
  72.5786965  78.5284320  54.2262798  68.0308131  79.5252357  55.3497229
  68.4085491  80.5387622  54.6964546  67.1368128  78.6611660  54.8732852
  66.8146048  77.8612997  55.3991133  66.6818992  78.8122207  53.4984761
  67.4103078  79.3895871  52.9291184  66.4795787  77.4629479  52.8380254
  65.6729100  76.9268918  53.3380554  66.1255683  77.6688100  51.4063507
  66.9320222  78.2044360  50.9055140  65.9786076  76.7018539  50.9252071
  65.2065753  78.2510446  51.3388676  67.7783049  76.6694982  52.9917161
  68.4921777  77.0678536  52.2707451  68.1489505  76.8414454  54.0022385
  67.6097197  75.2026820  52.7664981  67.2395157  75.0299093  51.7559545
  68.5701451  74.7026234  52.8914938  66.8962863  74.8035014  53.4874470
  65.4290075  79.6630219  53.4832194  64.4195068  79.2766016  54.1018442
  65.5090837  80.8766710  52.8600287  66.7344899  81.5723237  52.4074405
  67.1356873  81.0317569  51.5501609  67.4588428  81.5502665  53.2216428
  66.2983504  82.9954504  52.0530610  66.8281316  83.3458038  51.1672373
  66.4959048  83.6714212  52.8850088  64.7534076  82.8701307  51.7862191
  64.5839445  82.6701155  50.7282138  64.2158045  83.7731572  52.0754001
  64.2657477  81.6733018  52.6313258  63.8885636  81.9804934  53.6067558
  63.1720624  80.8951396  51.8816212  63.4225033  80.3560895  50.7897191
  61.9660299  80.8389638  52.4424634  61.7387882  81.3690658  53.2715909
  60.9138690  80.0078447  51.8354903  61.2368541  78.9669150  51.8511501
  59.5950639  80.1127942  52.5516417  58.9335537  80.7782114  51.9969125
  58.9514844  78.7212985  52.6557384  59.6122520  78.0554050  53.2107804
  57.9963099  78.8001080  53.1749011  58.7887299  78.3199399  51.6554770
  59.8344220  80.6406569  53.8455311  59.0029201  80.7154320  54.3194653
  60.6283026  80.4177876  50.4002873  60.3685763  79.5674027  49.5302075
  60.6340678  81.7155545  50.1553756  60.7982526  82.4079391  50.8721365
  60.2131432  82.1582707  48.8785835  59.7986237  81.3189970  48.3201102
  59.1378243  83.2450737  49.0000054  58.8188834  83.4977432  47.9888011
  58.2977959  82.8209421  49.5500643  59.6172844  84.4843424  49.6972487
  60.8580202  84.7320044  49.7868270  58.7313232  85.2297080  50.1750989
  61.3825929  82.5549343  47.9873117  61.1599890  82.8993634  46.8594207
  62.6116238  82.4625158  48.4810362  62.7442543  82.2252117  49.4537619
  63.7817081  82.7536361  47.6799154  63.5452289  82.5952993  46.6277242
  64.1699339  84.1649934  47.8688529  64.4185085  84.3369171  48.9161126
  65.0374260  84.3899243  47.2483983  63.3409884  84.8119390  47.5817816
  64.9677987  81.7986089  48.0367881  66.0918754  82.2303329  48.3771628
  64.7129823  80.4890029  47.9355867  63.4876705  79.8712401  47.4195303
  63.0757965  80.4777730  46.6129462  62.7511949  79.7809359  48.2179962
  63.9773538  78.5469745  46.9464332  64.3462710  78.6321739  45.9243079
  63.1668048  77.8189789  46.9801077  65.0924982  78.1637418  47.9099448
  65.8532024  77.5859744  47.3849564  64.7277065  77.5923522  48.7634907
  65.6827610  79.4883370  48.3842215  65.7357235  79.5415875  49.4716301
  67.0538804  79.6990358  47.8056322  68.0096034  79.3994428  48.4833988
  67.1389067  80.1822077  46.5610272  66.2833017  80.3571968  46.0536632
  68.4296151  80.4394058  45.8741611  69.0299177  79.5298712  45.8521903
  68.1742214  80.8882098  44.4426228  69.0994380  81.2687756  44.0099067
  67.7923666  80.0752355  43.8250794  67.1517110  82.0215619  44.3549335
  67.3978269  83.3679029  44.4746779  68.4358695  83.6648946  44.6242218
  66.2473391  84.0638832  44.3766568  66.1618943  85.0675902  44.4499436
  65.2098390  83.1879781  44.1629219  63.8430267  83.4420569  43.9737155
  63.5043667  84.4781022  43.9779861  63.0037094  82.3521025  43.7920350
  61.9383999  82.5127837  43.6265138  63.5072488  81.0141572  43.8170844
  62.8549138  80.1484114  43.7028794  64.8818219  80.7853991  43.9931518
  65.2297340  79.7524679  44.0036927  65.7457953  81.8896304  44.1604362
  69.2383557  81.5016209  46.6164864  70.4248837  81.6446043  46.4245954
  68.5876304  82.2448747  47.4966593  67.6275536  82.0441166  47.7375908
  69.2714419  83.3479058  48.2035901  70.0513718  83.7727515  47.5716765
  68.2682614  84.4434411  48.5416910  67.3198695  83.9298329  48.6993576
  68.6110406  84.8698701  49.4844321  68.0835040  85.5271889  47.5478875
  69.0478103  86.0199027  47.4236006  67.7555588  85.1246374  46.5895017
  67.0575542  86.5378714  48.0525735  66.7290315  86.4949364  49.2742237
  66.5480169  87.3418358  47.2334532  69.8248292  82.8495303  49.5167372
  70.3448458  83.6602748  50.3084487  69.6510912  81.5353199  49.7963587
  69.1040228  80.9460925  49.1851086  70.2210247  80.9424126  50.9993606
  69.6971218  81.3007588  51.8854830  70.1371319  79.3943206  50.9662661
  70.6651472  79.0199879  50.0892399  70.5949214  78.9857869  51.8671708
  69.0922755  79.0874838  50.9190914  71.6746391  81.3844183  51.1139031
  72.3774142  81.4780651  50.1007558  72.1164843  81.6373851  52.3497129
  71.4577148  81.6430924  53.1152777  73.5022043  81.9561413  52.6329382
  73.7307038  82.9494452  52.2466294  73.7857176  81.9400104  54.1565543
  72.8476580  82.1524411  54.6694057  74.1238152  80.9375777  54.4190777
  74.8472846  82.9670154  54.5842113  75.4070521  83.2176029  53.6831191
  74.3503665  83.8602392  54.9627951  75.8605206  82.4499760  55.6805365
  75.4768106  81.7801919  56.6765576  77.1465116  82.8052047  55.5033426
  77.8457566  82.5073407  56.1685004  77.4064956  83.3680342  54.7060141
  74.3853004  80.9582764  51.9069955  75.2141113  81.3498750  51.1125459
  74.1659420  79.6631303  52.1529519  73.4933349  79.4087831  52.8621814
  74.9216043  78.5752504  51.4747891  75.9061533  78.9385036  51.1801544
  75.1006615  77.3894519  52.4063177  74.1427868  76.9944199  52.7447332
  75.6504771  76.6080015  51.8817817  75.8842289  77.7133579  53.6302724
  75.2906942  77.9539624  54.8520547  76.2287030  78.2102510  55.7427621
  75.9648270  78.4184417  56.7796445  77.4057906  78.1573478  55.1402433
  78.3034538  78.3055233  55.5788143  77.2169517  77.8669391  53.8130610
  78.0734642  77.8028405  53.1419583  74.3542516  78.0244211  50.1538807
  74.7192006  76.9231559  49.7450578  73.5040026  78.7782119  49.4752887
  73.2913492  79.7221633  49.7648288  72.7727773  78.2225330  48.3579295
  72.1275762  77.4443970  48.7657518  71.9121758  79.2710860  47.7149749
  72.5444690  80.0527395  47.2938774  71.3183470  78.8178795  46.9212045
  71.2479372  79.7050812  48.4623266  73.6763583  77.5631998  47.3411610
  73.3764923  76.4748566  46.7899191  74.8067618  78.1906766  47.0912858
  75.0974544  79.0206155  47.5880741  75.6235253  77.7340200  45.9646269
  74.9862971  77.5542345  45.0987651  76.6629788  78.7788464  45.5940231
  76.9591680  79.3144349  46.4959743  77.5252551  78.2521434  45.1851667
  76.1384890  79.7720805  44.5625884  75.8232692  79.3173030  43.4064435
  76.0317031  80.9846154  44.9180556  76.2567712  76.3822096  46.2478797
  76.1522023  75.4542289  45.4083464  76.8546195  76.2797864  47.4364238
  77.0038735  77.1349230  47.9527222  77.3798397  75.0328566  47.9930069
  78.1693685  74.6267140  47.3607162  77.9713796  75.3370826  49.3871737
  78.9550792  75.7692817  49.2037662  77.3197442  76.0919524  49.8272224
  78.1073828  74.1370113  50.3650126  77.1848739  74.0508829  50.9391728
  78.2574781  73.2288799  49.7811712  79.3038544  74.3319373  51.3348820
  80.1660219  74.6754687  50.7632594  79.0357033  75.0856477  52.0752299
  79.6601078  72.9910254  52.0610370  79.0701896  72.9619111  52.9771426
  79.3461968  72.1819703  51.4015001  81.1578479  72.8217733  52.4071776
  81.4488185  73.5711233  53.0186596  81.2982044  71.9353732  52.8705295
  81.7046162  72.8482943  51.5583902  76.3484295  73.8759190  48.0724693
  76.5985093  72.7810331  47.5918801  75.1900946  74.1467417  48.6743342
  75.0276898  75.0702264  49.0497006  74.1673207  73.1225698  48.8855982
  74.6450820  72.2213256  49.2697886  73.0975439  73.5669965  49.8764607
  72.6862823  74.5226814  49.5514538  72.2962045  72.8311594  49.9435345
  73.6077536  73.7715364  51.2664947  74.8383576  73.4169826  51.7344000
  75.5107562  72.9343404  51.0251494  74.9662729  73.7692548  53.0826351
  75.7895048  73.6335176  53.6518136  73.7903877  74.3402536  53.5042327
  73.4337877  74.8539638  54.7737359  74.1731536  74.8135929  55.5736153
  72.1725162  75.3739958  54.9202616  71.8621946  75.7791281  55.8834170
  71.2697982  75.3958510  53.8533367  70.2678632  75.8068962  53.9768988
  71.6288585  74.8835592  52.5750055  70.8848652  74.9215800  51.7793113
  72.9051756  74.3563558  52.3953859  73.5075451  72.6975219  47.5785116
  73.1102612  71.5397859  47.4341412  73.3741843  73.6279009  46.6516438
  73.6819385  74.5775722  46.8049775  72.7178565  73.3271500  45.4476124
  71.8220436  72.7462400  45.6670708  72.3084282  74.5870701  44.6864895
  71.9492487  75.3050467  45.4237811  73.1867353  74.9919308  44.1837328
  71.2126478  74.3220158  43.6598988  70.2545315  73.5501170  43.9518020
  71.2933735  74.8601843  42.5409636  73.5879380  72.4369978  44.5789161
  73.0642106  71.6882677  43.7803888  74.9005280  72.5690971  44.7052938
  75.2522883  73.3781857  45.1969641  75.8684705  71.6509425  44.0948688
  75.6398495  71.5454270  43.0343510  77.2981109  72.1555004  44.2365678
  77.3774829  72.6715526  45.1933799  77.9601661  71.2896012  44.2353479
  77.7068203  73.1186979  43.0957447  77.5057488  72.6092213  42.1533516
  77.0722154  74.0014935  43.1735299  79.2296073  73.5570046  43.1446939
  79.7366976  72.8708561  43.8230438  79.6289677  73.4333134  42.1380603
  79.4687020  75.0605578  43.6313021  80.2122973  75.4915161  42.9608980
  78.5208106  75.5839837  43.5062965  79.9528520  75.2072202  45.1079679
  80.8313929  74.7226340  45.2239069  80.0766557  76.1855907  45.3260593
  79.2637627  74.8083286  45.7293700  75.7971233  70.2358719  44.6217519
  76.0608933  69.3278411  43.8553380  75.4388815  70.0391726  45.8991094
  75.3131698  70.8142801  46.5343293  75.2488154  68.6683989  46.4196208
  76.0717169  68.0351784  46.0880123  75.2129576  68.6622062  47.9427114
  74.3720350  69.2745461  48.2682699  75.0654473  67.6355767  48.2779315
  76.4777015  69.2007512  48.5296384  77.3060762  68.5521916  48.2445652
  76.6514255  70.2037370  48.1398417  76.3748466  69.2728653  50.3098893
  77.0268959  67.7097989  50.8467212  78.0551474  67.6061693  50.5002263
  77.0041868  67.6606506  51.9353761  76.4219591  66.9022549  50.4343800
  73.9948412  67.9864626  45.9476806  72.9664291  68.6471914  45.7644019
  74.0720973  66.6717761  45.7610449  74.9596780  66.2384064  45.5501168
  72.8880050  65.8339991  45.7932773  72.0291297  66.3697388  45.3890306
  73.0305799  64.4682333  45.0328208  72.0471650  63.9986178  45.0114456
  73.5558444  64.6274311  43.5900515  74.5394941  65.0965886  43.6106447
  73.6313241  63.6468721  43.1200450  72.8681437  65.2514079  43.0192439
  73.8719402  63.5780814  45.7581637  73.9483868  62.7490903  45.2801157
  72.5138836  65.5646503  47.2655679  73.3325481  65.6293039  48.1745775
  71.2441694  65.3193270  47.4882905  70.5552689  65.5038203  46.7731138
  70.7930875  64.8429971  48.7549968  71.0632670  65.5565934  49.5333814
  69.2639111  64.6682478  48.7572592  68.9355934  64.6018277  47.7200056
  69.0371060  63.7335883  49.2701637  68.5767220  65.7518591  49.4091885
  68.8732937  66.6567842  48.8788521  67.5135968  65.5705857  49.2510532
  68.8882822  65.9725087  51.1912797  69.1509932  67.6520105  51.1113630
  68.2587785  68.1416869  50.7211464  69.3677605  68.0342493  52.1088630
  69.9949478  67.8573424  50.4528187  71.4327141  63.5241395  49.1861225
  71.5331826  63.3020943  50.4125739  71.7520101  62.6245844  48.2443175
  71.3541077  62.6387679  47.3161085  72.6105336  61.4775835  48.6232574
  72.1223058  60.9256055  49.4264094  72.8669423  60.5122217  47.4461745
  71.8933085  60.2281129  47.0469020  73.4207417  61.0688261  46.6901336
  73.6423146  59.2637081  47.8236922  74.7040792  59.5100516  47.8321555
  73.3327957  58.9580811  48.8231382  73.3900451  58.1064822  46.8300447
  72.3497875  58.1336916  46.5056641  74.0429104  58.2282148  45.9657257
  73.6795022  56.7621398  47.5023713  72.8384620  56.5030366  48.1455024
  73.7939254  56.0010898  46.7304844  74.9360053  56.8337231  48.3254083
  74.8300250  57.5385730  49.0409881  75.1063425  55.9372904  48.7584137
  75.7155267  57.0733825  47.7295820  73.9549471  61.8710337  49.2821376
  74.3100793  61.3155983  50.2982004  74.6623276  62.8531430  48.7103646
  74.2826432  63.2814367  47.8781966  75.9128532  63.3840436  49.2552868
  76.6703584  62.6002908  49.2593575  76.4173163  64.5367369  48.4271417
  75.5974097  65.2497361  48.3406284  77.2375222  64.9925650  48.9817433
  76.8923817  64.1536501  47.0581526  77.6773717  63.4023674  47.1445569
  76.0400209  63.7284908  46.5282282  77.4379213  65.3899629  46.2630455
  78.1819130  66.2587872  46.8588388  77.1386875  65.4608488  45.0550110
  75.6971953  63.9307090  50.6022128  76.5186002  63.6771780  51.4971128
  74.6286285  64.7290117  50.7890408  74.0091762  64.9793937  50.0316195
  74.3775439  65.3128173  52.1194876  75.2735781  65.8246370  52.4705753
  73.2249450  66.3258976  52.0607241  73.4011923  66.9913062  51.2155807
  72.3249952  65.7385351  51.8785277  73.0426227  67.1577392  53.3366834
  72.6917442  66.4777482  54.1129549  74.2808294  67.8489971  53.8035750
  74.6320699  68.5295506  53.0279617  74.0625357  68.4136208  54.7100234
  75.0531656  67.1092141  54.0140945  72.0222872  68.2421711  53.0381861
  71.0776850  67.7827785  52.7470083  71.8696175  68.8529708  53.9279708
  72.3861596  68.8702342  52.2250240  74.0647969  64.2563974  53.1878000
  74.5721498  64.2887123  54.3167012  73.1664766  63.3465787  52.8388510
  72.7096957  63.3922234  51.9392027  72.7867233  62.3020781  53.7403159
  72.3202662  62.7124968  54.6359015  71.8049442  61.3502491  53.0428303
  72.1547501  61.1682727  52.0266508  71.7051780  60.0013159  53.8047457
  71.3549656  60.1824458  54.8209366  71.0035446  59.3442257  53.2908940
  72.6868762  59.5288187  53.8381241  70.4149693  62.0293742  52.9614485
  69.9996638  61.9430670  53.9655267  70.6250366  63.0767064  52.7445001
  69.3875455  61.4804954  51.9256380  69.1766144  60.4332649  52.1422395
  68.4645687  62.0569577  51.9881208  69.8019886  61.5669022  50.9212124
  74.0779392  61.6360762  54.1379199  74.3771961  61.5853450  55.3115918
  74.8589110  61.1530835  53.1712715  74.5714368  61.2814625  52.2115962
  76.1077130  60.3958818  53.4364910  75.8978984  59.5354319  54.0718673
  76.6857479  59.9079865  52.1472103  76.8404171  60.7346823  51.4538484
  77.6488238  59.4716698  52.4121868  75.8034378  58.8366417  51.4795388
  76.0081081  58.5261287  50.2888093  74.9352623  58.2417891  52.1559408
  77.1328021  61.2646754  54.1831128  78.0070553  60.7721999  54.9012034
  77.0404957  62.5777540  54.0017975  76.4571070  63.0190351  53.3053580
  77.9450151  63.4122479  54.7704759  78.9055450  62.9040974  54.8557095
  78.1686662  64.7647924  54.1296410  78.9421822  64.6617270  53.3686222
  77.2374937  65.0816262  53.6599237  78.5944608  65.7923009  55.1402717
  77.7727747  66.4915964  55.2949283  78.8216373  65.2862063  56.0785473
  79.8046259  66.5402431  54.6709947  80.2014516  66.0421736  53.7863732
  79.5081749  67.5568496  54.4126779  80.9121662  66.5850054  55.7887123
  80.8054079  67.5147541  56.3475241  80.7636879  65.7391551  56.4599729
  82.3109444  66.5137769  55.1829565  82.4488865  67.2977099  54.5612485
  82.9994864  66.5443537  55.9212485  82.4102208  65.6521261  54.6654614
  77.4489594  63.5205312  56.2072697  78.2492705  63.6018390  57.1011535
  76.1323768  63.5290685  56.3906587  75.5129802  63.4287731  55.5992120
  75.5432337  63.7171658  57.7087619  76.1116796  64.4479306  58.2840455
  74.0752294  64.1709127  57.6112223  73.5810757  63.6051491  56.8213970
  73.3556503  63.9343737  58.9299828  73.8489856  64.5002195  59.7202609
  72.3193672  64.2608689  58.8426965  73.3821272  62.8722593  59.1735217
  73.9980208  65.6459233  57.2101343  74.4572410  66.2240881  58.0119717
  74.5817371  65.7643346  56.2972522  72.5884440  66.1418979  56.9748121
  72.0042086  66.0242292  57.8874582  72.6152836  67.1948775  56.6944325
  72.1287037  65.5644738  56.1727397  75.6149400  62.4296770  58.5188209
  75.9763365  62.4441899  59.6959386  75.2672457  61.3150483  57.8834214
  75.1702168  61.3082850  56.8781160  74.9672089  60.0892438  58.6155370
  74.7099204  60.3296815  59.6470851  73.7802268  59.3517752  57.9718784
  73.9999071  59.1820270  56.9178265  73.6463093  58.3933698  58.4735010
  72.1476441  60.1850323  58.0232247  71.4820228  59.2261062  57.3858023
  76.1678407  59.1358276  58.6907026  76.7135327  58.7998459  57.6757614
  76.5536264  58.6624951  59.8668075  76.1804152  59.0276225  60.7313852
  77.5984241  57.6148924  59.9398227  78.2619332  57.7458139  59.0850043
  78.4559034  57.6460189  61.2474390  79.0392662  58.5663907  61.2739517
  77.8367191  57.5830191  62.1422808  79.4914828  56.4507967  61.3280370
  80.6491986  56.3078665  60.5544337  80.8631199  57.0979436  59.8346311
  81.3057358  55.1282237  60.8918883  82.1711476  54.8118667  60.4782699
  80.5949170  54.4632118  61.8661603  80.8695245  53.2070545  62.5060388
  81.7618309  52.6640194  62.1945893  79.9895644  52.7588622  63.4777506
  80.1840812  51.8231887  64.0019436  78.8333721  53.4990940  63.8052718
  78.1246435  53.1368407  64.5499703  78.5513682  54.7761738  63.1542333
  77.6439275  55.3085412  63.4392544  79.4462397  55.2545700  62.1804288
  76.9032100  56.2642637  59.7999178  77.3320586  55.4209761  59.0526434
  75.8243215  56.0285649  60.4934247  75.4736223  56.6251518  61.2290833
  75.2824224  54.7147806  60.3721482  76.0960700  53.9932405  60.2982791
  74.4348973  54.3668236  61.5785616  74.2916729  53.2878990  61.6377967
  75.1682161  54.8557961  62.8375749  75.3114007  55.9347765  62.7792734
  74.5754909  54.6156247  63.7202377  76.1385933  54.3642774  62.9074180
  73.1549842  55.0162312  61.4802599  72.6227084  54.7920916  62.2471004
  74.6312731  54.4041134  59.0169717  74.1901971  55.2883724  58.2614347
  74.5778115  53.1210237  58.7114221  74.9986891  52.4400454  59.3272386
  73.9282247  52.6430742  57.4865767  74.2340872  53.2657340  56.6458377
  74.3170459  51.1858063  57.1859071  74.7920998  50.8070071  58.0908569
  73.3817128  50.6523383  57.0166034  75.2477866  50.9710625  55.9948555
  74.7642453  51.3642399  55.1005959  76.1745745  51.5156478  56.1753906
  75.5690760  49.4416451  55.7887158  76.0623846  49.0854536  56.6930793
  74.6195664  48.9210169  55.6643083  76.4983257  49.1559506  54.5311377
  76.1127038  49.7328261  53.6905363  77.5051676  49.4961979  54.7732127
  76.5378933  47.6701099  54.1555052  75.6050908  47.3547374  53.9307399
  77.1390614  47.5413451  53.3541834  76.8955924  47.1354352  54.9341408
  72.4288148  52.7094080  57.5942047  71.7769546  52.9039661  56.5893692
  71.8877402  52.4494389  58.7854105  72.4760937  52.1558059  59.5520389
  70.4355857  52.5024439  59.0025021  69.9457674  51.8396613  58.2891323
  70.0205108  52.0631129  60.4710712  69.0968898  52.5839417  60.7235822
  69.7984549  50.4824745  60.6146761  70.7218489  49.9609573  60.3627572
  69.5167834  50.2463672  61.6408406  69.0054887  50.1635110  59.9382388
  71.0535116  52.4539144  61.3867549  70.8083609  52.1909365  62.2768920
  69.9219334  53.9299874  58.6923634  69.0133731  54.0963516  57.9033685
  70.5451670  54.9353448  59.2968288  71.2853177  54.7075791  59.9452107
  70.1506841  56.3343680  59.1604235  69.1226259  56.3994654  59.5167349
  71.0138439  57.2011017  60.0270813  72.0450173  57.1534958  59.6770598
  70.6610792  58.2312498  59.9775614  70.9639255  56.8496510  61.0576587
  70.1543661  56.8237227  57.7092783  69.1634439  57.4153375  57.2290168
  71.2756851  56.6112445  57.0344289  72.0964658  56.3440717  57.5588687
  71.3990879  56.7687067  55.5913033  71.3690183  57.8249619  55.3238714
  72.7206556  56.1882047  55.1254083  72.9482232  55.3349766  55.7644028
  72.5860389  55.8470712  54.0989551  73.8010841  57.1251551  55.1785424
  73.7194040  57.8359311  54.3562124  73.7821939  57.6631439  56.1263363
  75.0757152  56.3776722  55.0603647  75.1902709  55.6838966  55.8932220
  75.1090857  55.8256322  54.1210896  76.1761423  57.3177495  55.0851389
  75.9314083  58.2934430  54.9944362  77.4602050  56.9930883  55.1855724
  77.8286200  55.7099544  55.2954986  77.1257162  54.9847075  55.3020691
  78.8076327  55.4735529  55.3713146  78.3756862  57.9719693  55.2085368
  78.0810572  58.9362494  55.1497341  79.3559295  57.7407855  55.2845360
  70.2909176  56.1098259  54.7683721  69.6770227  56.7528119  53.9624967
  70.0950266  54.8137695  54.9328212  70.6727536  54.3109275  55.5912137
  69.0750350  54.0719212  54.2006529  69.3121928  54.0991630  53.1371148
  68.9916454  52.5877014  54.6529212  69.3497997  52.5658305  55.6821667
  67.9339710  52.3251157  54.6311576  69.8010407  51.5595811  53.7980452
  69.5333087  50.5552233  54.1262003  69.5198430  51.6867257  52.7526438
  71.3134054  51.7595636  53.9479591  71.6163380  52.6048631  53.3300598
  71.5346019  51.9763752  54.9930257  72.0809282  50.5824665  53.5408214
  72.5627840  50.6518710  52.6558936  72.2020801  49.4482230  54.2490474
  71.5881144  49.2808140  55.4444391  71.0195732  50.0237454  55.8251146
  71.7015255  48.4137839  55.9499056  72.9398476  48.4635427  53.7339264
  73.3858791  48.5873831  52.8362518  73.0490631  47.5986259  54.2439162
  67.7480342  54.6908572  54.4213249  66.9765124  54.8070350  53.4935648
  67.4786801  55.0661365  55.6668480  68.1477709  54.9331310  56.4116476
  66.1642009  55.6243224  56.0040389  65.3954374  54.9899405  55.5628343
  65.9189793  55.7127973  57.5129910  66.2348063  54.7728604  57.9656178
  66.4508429  56.5392439  57.9843797  64.4973853  55.8831286  57.8459171
  63.6375533  54.7598230  57.8438024  64.0426765  53.7710798  57.6284841
  62.2362287  54.9171320  58.1236476  61.5788558  54.0476726  58.1250786
  61.7095554  56.2043638  58.3978874  60.6479751  56.3372945  58.6063979
  62.5753913  57.3216392  58.3992339  62.1834318  58.3134815  58.6244378
  63.9667518  57.1512678  58.1049980  64.6286308  58.0169586  58.0805923
  65.9829154  56.9894191  55.3932846  64.8787824  57.3536211  54.9685184
  67.0776307  57.7378747  55.3168092  67.9854769  57.3843640  55.5831640
  66.9811236  59.0672720  54.8990684  66.1519632  59.6118969  55.3507053
  68.2754367  59.8044252  55.2124878  69.1140726  59.2759987  54.7591058
  68.2242860  60.8163747  54.8106894  68.4161319  59.8495299  56.2924275
  66.6778508  58.9978552  53.3952809  65.9175057  59.8022508  52.8997365
  67.1934839  57.9785870  52.7042934  67.6655741  57.2471854  53.2164282
  67.0340966  57.8211639  51.2585218  67.3890837  58.7141704  50.7441069
  67.8567362  56.6047960  50.7638116  67.5077497  55.7678042  51.3685863
  67.5415619  56.4618587  49.7302091  69.3832202  56.6764909  50.8256861
  70.1289466  55.4942821  50.7217987  69.5955687  54.5528360  50.5903198
  71.5098944  55.5036306  50.7825986  72.0660864  54.5664173  50.7630096
  72.2117706  56.7571990  50.9371978  73.6022067  56.7503132  50.9340334
  73.9727126  55.8715262  50.8242223  71.5102993  57.9438990  51.0236690
  72.0167830  58.9040579  51.1220036  70.0798890  57.8899445  50.9811111
  69.4970271  58.8066896  51.0702769  65.5672917  57.4953200  50.9842970
  64.9749167  57.9966153  50.0490591  65.0033746  56.6202239  51.8138537
  65.5778947  56.0661992  52.4327904  63.6013657  56.4027328  51.8229399
  63.2652247  56.0180123  50.8600804  63.2787171  55.3928297  52.8809011
  63.9236297  54.5375332  52.6792706  63.4996605  55.7880609  53.8724031
  61.8317529  54.9573376  52.8231771  61.1819867  55.7946564  53.0777397
  61.5285655  54.4975941  51.4459835  62.1776651  53.6599313  51.1908570
  60.4873583  54.1801403  51.3893150  61.6975489  55.3143714  50.7442571
  61.5689701  53.8604314  53.8734222  61.7866197  54.2494402  54.8681082
  60.5244144  53.5528086  53.8247082  62.2097604  53.0021608  53.6712876
  62.8725946  57.7299993  52.0688124  62.1101351  58.1340694  51.2378606
  63.1422130  58.4324960  53.1786468  63.7443044  58.0507764  53.8941015
  62.5425341  59.7572639  53.4051557  61.5036127  59.6546580  53.7185463
  63.2981447  60.4656368  54.4816874  63.4772592  59.8263327  55.3461569
  64.2523850  60.7746994  54.0550661  62.6309036  61.7180040  55.0010213
  61.6391782  61.6407165  55.9627771  61.3401548  60.6519541  56.3106765
  61.0496186  62.7354924  56.4660934  60.2475043  62.6597539  57.2002439
  61.4683271  63.9493453  56.0458241  61.0091315  64.8448333  56.4645608
  62.4589375  64.0629801  55.1037566  62.7828324  65.0506037  54.7754398
  63.0376352  62.9467305  54.5786712  63.8203473  63.0413027  53.8259974
  62.5350075  60.6271312  52.1221249  61.4979240  61.1827832  51.7677595
  63.6549810  60.7113109  51.4186691  64.5350876  60.3701549  51.7780077
  63.6561610  61.4001855  50.1729856  63.3520585  62.4184797  50.4152620
  65.0412363  61.4470662  49.4989036  65.4857715  60.4518346  49.5002330
  64.8702814  61.9432897  48.0140128  64.4261964  62.9387217  48.0118850
  65.8452908  61.9799395  47.5280972  64.2208680  61.2551324  47.4728997
  65.8898918  62.4736142  50.1953087  66.0013067  62.2020892  51.2450529
  66.8722256  62.5135321  49.7246427  65.4124770  63.4507536  50.1219976
  62.6473775  60.8529198  49.2168239  61.8563748  61.6519395  48.6579533
  62.6763027  59.5145714  49.0061210  63.3331742  58.9283208  49.5010245
  61.7605283  58.8816061  48.0554274  61.9907220  59.2722414  47.0642089
  61.8421887  57.3330180  48.0092610  61.5546338  56.9423800  48.9853826
  61.1201301  57.0066353  47.2607921  63.2373499  56.7597102  47.6363943
  63.5420255  55.6483555  48.0502172  64.0443565  57.4651065  46.8690668
  64.9523845  57.0972430  46.6235849  63.7509147  58.3701742  46.5301787
  60.3259691  59.2364704  48.4162007  59.5147292  59.4947656  47.5516318
  60.0239124  59.1511462  49.7049084  60.7426885  58.9163090  50.3744692
  58.6820824  59.2737171  50.1691762  58.1042060  58.6052301  49.5309888
  58.5085123  58.8467560  51.6629726  59.3099741  59.2659874  52.2712525
  57.1545529  59.3878112  52.1554144  56.3525071  58.9686330  51.5478678
  57.0065941  59.1041257  53.1973988  57.1442314  60.4744297  52.0702504
  58.4429022  57.2916383  51.7901634  57.4122114  57.0078667  51.5774410
  59.0967939  56.8908453  51.0156377  58.8600493  56.7215702  53.1597358
  58.2062689  57.1215789  53.9347609  58.7785084  55.6347760  53.1416030
  59.8908513  57.0045598  53.3729586  58.2005922  60.6976724  49.9250809
  57.0419556  60.9338707  49.5987901  59.1079665  61.6574239  50.0127165
  60.0726391  61.4977173  50.2656983  58.6326922  63.0304901  49.9380929
  57.5612809  63.0530916  50.1372568  59.3425886  63.9267013  50.9662512
  60.4263857  63.8109806  50.9566748  59.0849215  64.9526713  50.7033950
  58.8495317  63.6508788  52.3343524  57.6649241  63.8465267  52.6063317
  59.7153825  63.1116093  53.1978828  59.4210152  62.9069909  54.1421174
  60.6601258  62.9111592  52.9022804  58.6463886  63.6079500  48.5674411
  57.7370009  64.3749905  48.2273472  59.6819117  63.2833892  47.7933569
  60.4462005  62.7240814  48.1442655  59.8333268  63.9252043  46.4744832
  58.9381544  64.4806116  46.1946828  61.0565145  64.8755725  46.3794830
  61.1860917  65.1823110  45.3415907  60.8408522  66.1457637  47.2772994
  60.7116524  65.8398348  48.3154785  61.7092137  66.7996924  47.1971369
  59.9517796  66.6806803  46.9433596  62.3675331  64.1602000  46.7427301
  62.5290143  63.3270471  46.0587110  63.1985395  64.8610792  46.6633805
  62.3060864  63.7844360  47.7640658  59.7733601  62.9228689  45.3292523
  60.1064574  63.2655924  44.1787912  59.3059247  61.7141181  45.6670979
  59.0132350  61.5772207  46.6240155  59.2425325  60.5986106  44.7716436
  59.3495283  59.6464849  45.2913625  57.9269651  60.5913361  44.0105566
  57.9290627  59.7410920  43.3285150  56.7156434  60.4829006  44.9650128
  56.7126118  61.3331041  45.6471011  55.7935190  60.4807329  44.3838234
  56.7855366  59.5583030  45.5380178  57.8591153  61.7657493  43.2187467
  57.0322261  61.7755851  42.7311425  60.3472294  60.4884569  43.7325300
  60.1154477  60.1914811  42.5469451  61.5447141  60.7039816  44.1945563
  61.6668128  61.0419937  45.1384520  62.7102174  60.5069251  43.3886004
  62.5361402  59.6845795  42.6946667  63.0491173  61.7722008  42.5774868
  64.0483174  61.6754710  42.1528202  62.3234083  61.8942555  41.7734040
  63.0055324  62.9038144  43.4281583  63.2166851  63.6922906  42.9228667
  63.8481005  60.1430583  44.2918965  63.7069347  60.1068837  45.5436251
  64.9570997  59.7924490  43.6300475  64.9486482  59.8937592  42.6251773
  66.1268557  59.2215181  44.2495592  65.8325529  58.5879119  45.0862361
  66.9037931  58.3637683  43.2316575  67.0105309  58.9758301  42.3360646
  67.8862339  58.1867859  43.6693643  66.2345838  56.9668824  42.8445159
  65.4200365  57.2112419  42.1626786  66.9891568  56.3854803  42.3147137
  65.6812303  56.1345910  44.0350452  66.0573073  56.3420026  45.2055611
  64.8513280  55.2239654  43.7949737  67.0065590  60.3170692  44.8318125
  67.2132565  61.3594098  44.2453842  67.5293476  60.0947666  46.0193712
  67.3864367  58.9152728  46.9052295  67.5871058  58.0078997  46.3355751
  66.3708213  58.8790844  47.2993295  68.4131783  59.1617976  47.9828918
  69.2219320  58.4483023  47.8249647  67.9312278  58.9581225  48.9391039
  68.8977703  60.5383860  47.9261106  69.9863307  60.5830907  47.9598254
  68.4858448  61.0806240  48.7772246  68.3847195  61.1638486  46.6010124
  67.7202546  62.0032165  46.8060641  69.5711457  61.6463352  45.7232763
  69.9923929  62.7901472  45.8570223  70.1361957  60.7955169  44.8720621
  69.8725311  59.8207702  44.8932590  71.2077095  61.2032814  43.9678541
  71.9047751  61.8291477  44.5250706  71.9944023  60.0066229  43.3538109
  72.9424745  60.3269023  42.9217467  72.1837791  59.2929536  44.1556292
  71.2576633  59.2537947  42.2699589  70.4834312  58.1235366  42.5280062
  69.9729482  57.6687287  41.3911814  69.3289821  56.7893485  41.3813287
  70.3904058  58.4513434  40.4071746  70.1501776  58.3503928  39.4313676
  71.2136482  59.4377235  40.9247761  71.6774299  60.1654163  40.2588399
  70.7108077  62.1130223  42.8363356  71.5151569  62.7814269  42.1928167
  69.3923303  62.1822628  42.6494794  68.7723998  61.6465320  43.2400537
  68.8054946  62.9974847  41.5882678  69.4855914  63.0720387  40.7397342
  67.5097445  62.3346165  41.1191896  66.8603039  62.1768238  41.9802515
  67.0130840  62.9923071  40.4058373  67.7855234  61.0865277  40.4994910
  68.3830734  61.2881132  39.6104475  68.3530305  60.4543399  41.1824065
  66.5619981  60.4070909  40.1157302  65.6373718  60.2092218  40.9616120
  66.5510681  60.0360453  38.9153395  68.4884251  64.4238256  41.9882410
  68.2250929  65.2633116  41.1352642  68.4545834  64.7100671  43.2818076
  68.7258194  64.0496988  43.9962613  67.8461099  65.9824391  43.7024745
  67.5786750  66.5266596  42.7967141  66.6033995  65.7555618  44.5095356
  66.1397329  66.7159536  44.7348354  65.6190531  64.8863743  43.7173410
  66.0818764  63.9255717  43.4920549  64.7181014  64.7251873  44.3092915
  65.3565760  65.3897223  42.7868314  66.9506701  65.0195542  45.7295540
  67.6656405  65.5994161  46.3132317  66.0509804  64.8511183  46.3214047
  67.3938678  64.0603158  45.4620875  68.8761195  66.8635747  44.4075937
  69.8047635  66.3549756  44.9809132  68.7568511  68.1750241  44.2314161
  68.0030740  68.5236838  43.6566502  69.5930254  69.1301745  44.9155903
  70.6422787  69.0111081  44.6454237  69.1365724  70.4978069  44.4813875
  69.3835363  70.6439960  43.4298473  68.0577888  70.5778671  44.6152396
  69.7857608  71.4920229  45.2629072  69.4917451  72.3618422  44.9826056
  69.3063971  69.0166505  46.4199684  68.1480765  69.0182774  46.8127528
  70.3413520  68.9239330  47.2568130  71.2383770  68.6193816  46.9065360
  70.1956379  69.1475517  48.7130355  69.5008641  68.3806164  49.0553786
  71.5443469  68.9544726  49.4443723  72.2477830  69.7207965  49.1187568
  71.3899871  69.0372334  50.5202087  71.9473191  67.9690951  49.2103983
  69.5950906  70.4987926  49.0660056  68.8394197  70.5852878  50.0233504
  69.8987190  71.5404453  48.2896722  70.4976658  71.4269511  47.4843889
  69.3470369  72.8852442  48.5700427  69.6292188  73.1761621  49.5818922
  69.8686295  73.9590440  47.5825478  70.9516712  74.0112752  47.6938659
  69.6233770  73.6129339  46.5784766  69.2602341  75.3608713  47.8064348
  68.1780251  75.3000201  47.6914493  69.5826664  75.8533724  49.1537024
  70.6647701  75.9149366  49.2692890  69.1459793  76.8421980  49.2938065
  69.1766312  75.1686256  49.8982544  69.7737721  76.4338611  46.8196235
  69.5297078  76.1367615  45.7996902  69.2996631  77.3897394  47.0423757
  70.8546260  76.5328690  46.9198796  67.8020682  72.8553029  48.4290737
  67.0715932  73.2345407  49.3265195  67.3420754  72.4276285  47.2551745
  68.0046968  72.2269576  46.5198083  65.9428794  72.2537761  46.9775418
  65.4107331  73.1962846  47.1063717  65.7691881  71.7929553  45.5508546
  66.0232639  72.6336684  44.9052958  66.3515229  70.9200503  45.2558578
  64.3793355  71.4728524  45.2875568  63.3767189  72.3579748  45.0713986
  63.6705045  73.4059329  45.0116182  62.1736237  71.7215256  44.9719839
  61.2691150  72.1633511  44.8898026  62.3950544  70.3728266  45.0570334
  61.4865004  69.2970845  44.9789787  60.4318035  69.5041921  44.7978171
  62.0069057  68.0303131  45.1408009  61.3376782  67.1723546  45.0764458
  63.4068778  67.8063132  45.3921096  63.8013420  66.8009881  45.5398224
  64.2991201  68.8745798  45.4534298  65.3636954  68.6600023  45.5469005
  63.7863591  70.1873819  45.3089493  65.3450019  71.2364429  47.9201131
  64.2398558  71.4089495  48.4324242  66.0267868  70.1574841  48.2047730
  66.9053826  69.8556540  47.8084559  65.3294422  69.2491683  49.1270582
  64.3000511  69.1225803  48.7917546  65.9891982  67.8880675  49.1879578
  66.0333314  67.4888754  48.1746478  66.9918126  67.9049408  49.6152511
  65.2185817  66.9415632  49.9740378  64.0825126  66.3010150  49.3970671
  63.8609001  66.4526844  48.3406656  63.2607679  65.4888593  50.1699809
  62.3475883  65.0601438  49.7571774  63.6129959  65.2299227  51.4680296
  63.0169797  64.5381611  52.0632862  64.7547947  65.8617878  52.0407843
  65.0182303  65.6724249  53.0813820  65.5268457  66.7134275  51.2776963
  66.3912175  67.2089148  51.7197976  65.1642158  69.8227736  50.5603318
  64.1165632  69.6974009  51.1864778  66.2036765  70.4446072  51.0915140
  67.0982489  70.4490782  50.6226648  66.0944914  71.1239256  52.3946141
  65.8451877  70.4025574  53.1728010  67.4402711  71.7936107  52.7546944
  67.7145083  72.4539371  51.9319780  67.3420129  72.3765194  53.6704797
  68.5328264  70.7261918  52.9412549  68.6181854  70.0921277  52.0587713
  69.7683908  71.4477723  53.1364581  69.6839543  72.0817503  54.0190911
  70.5853037  70.7396047  53.2752129  69.9698443  72.0673863  52.2626186
  68.2189232  69.7925176  54.1486974  67.2682229  69.2867392  53.9800072
  69.0112676  69.0509960  54.2508603  68.1573928  70.3857889  55.0610252
  65.0000884  72.1929219  52.4207485  64.3697201  72.4000604  53.4351150
  64.8164443  72.8606671  51.2997029  65.4014575  72.6404590  50.5063762
  63.8431933  73.8604129  51.1513764  63.9126779  74.5642574  51.9807581
  64.0458631  74.6386062  49.8212358  64.9197259  75.2887760  49.8629756
  64.1331405  73.9679239  48.9664446  62.8539604  75.5318794  49.5509174
  62.5875747  76.7904449  50.1006088  63.3262156  77.1911010  50.7948595
  61.3619312  77.2848756  49.6096635  60.9200553  78.1565543  49.8646566
  60.8542705  76.3611347  48.7301788  59.6874375  76.3846558  47.9967992
  59.0298539  77.2505138  48.0740798  59.4297602  75.2919270  47.2031015
  58.5324387  75.2907129  46.5843021  60.2747141  74.1920200  47.1648975
  60.0021672  73.3139073  46.5794610  61.4469121  74.1667410  47.8394542
  62.1009942  73.3036703  47.7154132  61.7618406  75.2507339  48.6727371
  62.4552624  73.2165203  51.1341650  61.5373799  73.6798857  51.8292177
  62.3256919  72.1469032  50.3310605  63.1072041  71.8378951  49.7708356
  61.0767980  71.4603555  50.1914633  60.3143269  72.1364701  49.8046741
  61.2391448  70.3154577  49.2264232  61.7355602  70.7256075  48.3469643
  61.8673080  69.5432744  49.6705449  59.9186769  69.7169325  48.8232085
  59.3306206  68.6862115  49.5818415  59.8389796  68.3322041  50.4786967
  58.1178184  68.1207780  49.2005818  57.6411220  67.3370514  49.7893390
  57.5049738  68.5953914  48.0583680  56.3176308  68.0547049  47.6714148
  56.0104548  67.3627396  48.2616914  58.0881528  69.6011199  47.2755567
  57.5925706  69.9441373  46.3673509  59.2808698  70.1520077  47.6530731
  59.7382927  70.9315270  47.0437998  60.5521796  70.9672107  51.5387342
  59.4126767  71.1649609  51.8121805  61.3658327  70.3348166  52.3907667
  62.3085664  70.0806686  52.1323847  60.8727317  69.9429506  53.7451955
  59.9138661  69.4310304  53.8265190  61.9136383  69.0987442  54.3703020
  62.8839581  69.4803549  54.0525727  61.8422962  69.0935632  55.9270504
  60.8723653  68.7116157  56.2455642  62.6317878  68.4562525  56.3253450
  61.9727638  70.1091949  56.3006440  61.9353187  67.6728495  53.7422956
  62.1440772  67.7484128  52.6751442  62.7106054  67.0756327  54.2222565
  60.9664583  67.1956447  53.8895567  60.5462905  71.1747084  54.6555789
  59.4746653  71.2349402  55.3479086  61.4656166  72.1574570  54.6508981
  62.3576802  72.0163867  54.1987686  61.2187665  73.4421867  55.3184148
  61.1983924  73.2813977  56.3962974  62.2835290  74.4671918  55.0031062
  63.2586128  74.0463027  55.2483882  62.2447808  74.6964197  53.9381869
  62.0729373  75.7005416  55.7780446  61.0446163  75.7529845  56.1356848
  62.7548130  75.7358595  56.6276918  62.3489670  76.8756175  54.8594772
  63.3891664  76.8414689  54.5355665  61.6957111  76.8121907  53.9892282
  62.0909080  78.1753584  55.5897156  61.8424459  78.9629819  54.8783674
  61.2701915  78.0526397  56.2964431  63.2712790  78.5288455  56.2929690
  64.0317965  78.6430285  55.6382362  63.1208589  79.3957997  56.7888159
  63.5014457  77.7993428  56.9524750  59.8772986  74.0479388  54.9346202
  59.1295289  74.4101609  55.8421832  59.5563863  74.1559855  53.6234348
  60.1970228  73.8970939  52.8867807  58.3242364  74.8370681  53.2579676
  58.1518896  75.6747447  53.9337587  58.4085369  75.3662617  51.8442992
  57.4507317  75.8496324  51.6517867  59.1981681  76.1175534  51.8562838
  58.6863208  74.3724268  50.7726980  59.3469472  74.8181231  50.0290391
  59.1715196  73.5016380  51.2136187  57.4042098  73.9169000  50.0765768
  56.5121658  74.7181824  49.8453668  57.3137986  72.6426269  49.7410774
  56.4822194  72.3029197  49.2793669  58.0766598  72.0138057  49.9477849
  57.0357454  73.9899466  53.5148123  55.9364829  74.4681440  53.3059101
  57.1994612  72.7495393  53.8790389  58.1105637  72.3202797  53.8033564
  56.1015325  71.9463097  54.3720710  55.1467961  72.3449145  54.0290087
  56.2572979  70.5391231  53.8393760  57.2469786  70.1223835  54.0263501
  55.4980781  69.8556483  54.2195704  56.0614096  70.5632359  52.0996208
  56.2408621  69.2575050  51.9214028  56.0698403  71.9242732  55.9049911
  55.3945903  71.0883240  56.5282313  56.7843644  72.8036934  56.5947493
  57.3896685  73.5297443  56.2390015  56.6423202  72.6615424  58.0792036
  56.5513218  73.6666530  58.4909940  55.7204330  72.1095744  58.2623830
  57.7937368  71.9456667  58.7702250  57.8573254  71.9082266  60.0310103
  58.7056162  71.3737914  57.9987486  58.6976879  71.4358523  56.9906886
  59.7630530  70.6248596  58.6287036  60.6998036  70.8503614  58.1190504
  59.8339387  70.9337441  59.6716154  59.5201197  69.1403719  58.5729467
  58.4732470  68.7331311  58.0814260  60.4773807  68.3440881  59.0767566
  61.2777455  68.7905399  59.5012520  60.4682070  66.8689989  58.9777786
  60.3373471  66.6061744  57.9280652  61.7933167  66.2020927  59.5015824
  61.6515216  65.1218809  59.5353028  62.9755883  66.5333911  58.5844651
  63.1183006  67.6134774  58.5506058  63.8786997  66.0599916  58.9696687
  62.7718444  66.1626753  57.5798962  62.1032069  66.6905332  60.8074349
  62.9124535  66.2789012  61.1193313  59.3538745  66.1556732  59.6561460
  58.7324130  65.1716359  59.0934336  59.0684269  66.6359282  60.8656818
  59.6453924  67.3259888  61.3250581  57.9500976  66.0760325  61.5997563
  58.0282220  64.9892166  61.5710015  57.9086085  66.5216641  63.0520500
  57.6688900  67.5839317  63.0991977  56.8293362  65.7164428  63.8093604
  57.0686404  64.6540456  63.7630421  56.8003251  66.0367451  64.8508324
  55.8564838  65.8896081  63.3492816  59.1896111  66.2859818  63.6446251
  59.1734111  66.5646015  64.5631614  56.6127642  66.3736689  60.9332452
  55.8191357  65.4491595  60.7354875  56.3662561  67.6252437  60.5736798
  57.0127994  68.3760696  60.7694897  55.1038856  67.9520596  59.9034097
  54.2610920  67.6372239  60.5187769  55.0100373  69.4306934  59.6835839
  55.2072957  69.8994976  60.6476435  55.8050643  69.6901840  58.9845154
  53.6989778  69.9183535  59.1509820  53.8772373  70.8541437  58.6212452
  53.3203238  69.1723499  58.4522677  52.6919304  70.1429795  60.2343415
  51.7275636  70.3644569  59.7771287  52.6102192  69.2349778  60.8317991
  53.0585478  71.2509587  61.1140885  53.8134476  71.8544476  60.8207851
  52.4457254  71.5133414  62.2719200  51.4841590  70.7542513  62.6992634
  51.1940886  69.9560191  62.1526514  51.0302425  70.9651592  63.5765190
  52.8013846  72.5320215  63.0132886  53.5526248  73.1352976  62.7103098
  52.3228781  72.7099038  63.8847748  54.9008007  67.2664725  58.5560015
  53.7860798  66.8510324  58.2325177  55.9653864  67.1818492  57.7606014
  56.8112545  67.6487684  58.0548682  55.9252571  66.6066724  56.4321684
  55.0211495  66.9497449  55.9291874  57.1691736  66.9980024  55.5854863
  57.4129228  68.0350742  55.8160701  58.4151143  66.0939120  55.8696927
  58.1722629  65.0566791  55.6388860  59.2494585  66.4182288  55.2477689
  58.6924062  66.1764110  56.9205982  56.8246896  66.8879829  54.1199879
  56.5433098  65.8513748  53.9345971  55.9647789  67.5343317  53.9442433
  57.9153508  67.2680988  53.2140685  58.7755129  66.6218406  53.3889156
  57.5845905  67.1603195  52.1810727  58.1969835  68.3047976  53.3985637
  55.6821036  65.0949729  56.4542155  55.0697867  64.5180939  55.5278912
  56.0837131  64.4316432  57.5258183  56.4165242  64.9156995  58.3474178
  56.1363955  62.9748061  57.5131634  56.0186785  62.6068984  56.4939059
  57.4837711  62.4909055  58.0553573  58.2940762  63.1189106  57.6850678
  57.4711417  62.5199043  59.1448983  57.8210047  61.0832183  57.6678519
  58.0539475  60.7594066  56.3351548  57.9835430  61.5309938  55.5684760
  58.3726343  59.4682290  55.9841944  58.5526012  59.2237450  54.9373228
  58.4686565  58.4471044  56.9853055  58.7207673  57.4288696  56.6890996
  58.2439135  58.7453169  58.3213855  58.3117221  57.9905479  59.1048559
  57.9195545  60.0718008  58.6502711  57.7353358  60.3463339  59.6889217
  54.9919813  62.3758926  58.2871653  54.6438368  61.2048621  58.0974895
  54.3939778  63.1871323  59.1537609  54.6169667  64.1721392  59.1420658
  53.4368823  62.7058212  60.1457774  53.7399618  61.7259107  60.5145829
  53.3793241  63.6916980  61.3452118  53.2436660  64.7016498  60.9583093
  52.5283453  63.4261008  61.9724225  54.5718410  63.6364654  62.1169020
  54.5081425  64.2542125  62.8489749  52.0163687  62.5503457  59.5729078
  51.6143929  63.2336609  58.6318479  51.2533080  61.6964786  60.2154669
  51.6933750  61.0020582  60.8021701  49.8164458  61.6071326  59.9993641
  49.5033582  62.0381241  59.0484058  49.2956356  60.1402711  60.0768580
  49.5427594  59.7163076  61.0501432  47.7953525  60.1305469  59.8895158
  47.5474646  60.5539677  58.9161879  47.4285937  59.1055132  59.9433159
  47.3268809  60.7251419  60.6737943  50.0603786  59.2579072  59.0397095
  51.1270735  59.2757129  59.2631980  49.6951703  58.2323993  59.0949910
  49.8933938  59.6489044  58.0360471  49.1803262  62.5834158  60.9751924
  48.8915269  63.7473159  60.5971176  49.0552817  62.1951102  62.2454088
  49.1607399  61.2229538  62.4981731  48.6305075  63.1453699  63.2873955
  47.6146522  63.4667933  63.0575603  48.6350458  62.4887125  64.6737394
  49.6652142  62.2402167  64.9288929  48.0289001  63.4446244  65.7898979
  46.9985257  63.6931968  65.5356543  48.0524273  62.9380341  66.7547357
  48.6195307  64.3590310  65.8457242  47.8033765  61.3166709  64.5960888
  47.7846333  60.8804006  65.4510258  49.4467654  64.4244753  63.2737398
  50.6730276  64.3647043  63.3463652  48.7785962  65.5726926  63.1467279
  47.7897267  65.5652428  62.9413479  49.4772897  66.8801613  63.1931068
  48.7361700  67.6627501  63.0306402  50.2174632  67.1644904  64.5434880
  49.6279344  66.7217989  65.3463449  51.2059743  66.7056263  64.5237495
  50.3817288  68.6926786  64.8285627  49.5763591  69.5435273  64.3753961
  51.4503409  69.0511518  65.5681904  51.6073923  70.0252269  65.7840896
  52.0890276  68.3440121  65.9030538  50.4508918  67.0305072  62.0356164
  51.3391364  67.9265012  62.0563638  50.2095456  66.2538158  60.9910647
  49.4477193  65.5907155  60.9868128  51.0395524  66.3417342  59.8274771
  51.5964858  67.2767020  59.8887912  51.7349786  65.5028051  59.8535477
  50.2854506  66.3084913  58.5373428  49.0348743  66.3212642  58.5277572
  51.0451433  66.2004903  57.4483039  52.0164014  65.9446265  57.5545616
  50.5377155  66.4351331  56.1081977  50.0029837  67.3848792  56.0962162
  51.3793668  66.4838962  55.4172963  49.6109772  65.3503045  55.6690657
  48.8213930  65.5089232  54.7382199  49.6580632  64.2445972  56.3736956
  50.3037907  64.1639110  57.1461107  48.8474024  63.0666719  56.0143697
  48.3956012  63.1895263  55.0300518  49.7711570  61.8455813  55.9799023
  50.4868150  61.9416166  56.7964255  49.1600451  60.9565636  56.1357541
  50.5386671  61.7178626  54.6290026  50.9353290  60.7159880  54.4646630
  49.7979485  61.9450855  53.8623164  51.6673849  62.7065811  54.5151959
  51.6862730  63.5683905  53.6333338  52.5589813  62.6536480  55.4566756
  53.3435989  63.2894459  55.4412602  52.4640732  61.9769044  56.2003906
  47.6800925  62.8596308  56.9478044  47.0576939  61.7776270  56.9762431
  47.3423859  63.9038648  57.7139106  47.7800289  64.8086153  57.6139381
  46.3755265  63.7222472  58.7777494  46.7023108  62.9093281  59.4261888
  46.2222330  65.0031017  59.6302070  47.2125002  65.3551625  59.9192111
  45.7256127  65.7673926  59.0324380  45.3914857  64.7197568  60.8914364
  44.4305074  64.3376480  60.5470319  45.9007067  63.9506352  61.4721645
  45.1697264  65.9279442  61.7492731  46.0190205  66.1893988  62.6233366
  44.1250343  66.6284581  61.5807628  44.9825627  63.2843492  58.3031116
  44.2847736  62.5884442  59.0007939  44.5822225  63.7473995  57.1291146
  45.2703313  64.1055228  56.4823122  43.1996947  63.7763804  56.7381733
  42.6407308  62.9961818  57.2548441  42.6175048  65.0994757  57.1014789
  43.3714161  65.8736935  56.9589877  41.7620041  65.3032206  56.4575018
  42.1853207  65.0920474  58.4969296  41.4858306  64.2671076  58.6321656
  43.0622158  64.9306769  59.1239198  41.5526401  66.3189096  58.8695561
  41.9667337  67.1577893  58.3101759  40.4762558  66.2691983  58.7051632
  41.8018128  66.5404371  60.3081709  42.7546000  66.6030719  60.6373711
  40.8115269  66.6552818  61.1970975  39.5722828  66.6003627  60.7595452
  39.3932198  66.4741746  59.7735873  38.8055557  66.6846386  61.4115628
  41.0620455  66.8285511  62.4978416  42.0170625  66.8746438  62.8232922
  40.2952820  66.9126601  63.1498371  43.0336658  63.5553032  55.2572157
  43.9770670  63.6737473  54.5150411  41.8218257  63.1847765  54.8622290
  41.1308804  63.0374614  55.5840270  41.4300110  63.0020847  53.5048489
  42.1590217  63.4529453  52.8315233  41.3520093  61.4926406  53.2066136
  41.0759202  60.9842727  54.1304296  40.5713900  61.3401276  52.4613127
  42.6360479  60.9374885  52.7001237  42.8793203  61.4488023  51.7687389
  43.4080007  61.1460631  53.4408581  42.5632194  59.4180277  52.4480501
  43.5511500  59.0164035  52.6734168  41.8385710  59.0182029  53.1573626
  42.1375697  58.9918981  50.9433531  41.6034635  58.0463200  51.0366968
  41.4513952  59.7631747  50.5935016  43.3174163  58.8291945  49.9082441
  43.9531271  58.1142554  50.2320241  42.9420641  58.5637958  49.0089253
  43.8121954  59.7053967  49.8212824  40.0430167  63.6538341  53.3778744
  39.4756109  64.0317909  54.3622444  39.5368794  63.8208058  52.1468734
  40.0780092  63.5205192  51.3486844  38.2300841  64.3866684  51.9137030
  37.9486227  65.0222973  52.7532592  38.2298633  65.2166753  50.6622121
  38.6380930  64.6096475  49.8541496  37.2290973  65.5540967  50.3925561
  39.0856916  66.4424372  50.7517148  40.1714285  66.5905360  49.9063746
  40.3865159  65.7907544  49.1977234  40.9858637  67.7313931  49.9444208
  41.8101361  67.8601949  49.2429325  40.7330816  68.6832249  50.8746479
  41.3617508  69.5709744  50.9437551  39.6275046  68.5155630  51.7731638
  39.4153354  69.2815724  52.5190284  38.8425686  67.4018653  51.6965020
  38.0133459  67.2706339  52.3916767  37.2085136  63.2916520  51.7245952
  37.4809729  62.2503716  51.1191877  36.0530547  63.5364815  52.3134570
  35.9628262  64.3721231  52.8735116  34.9235774  62.6602797  52.2137095
  35.2397173  61.6249828  52.3414402  33.7975249  62.9648879  53.2374480
  33.4517166  63.9900004  53.1045562  32.5976467  61.9725377  53.0058549
  32.9425997  60.9471742  53.1390396  31.8058216  62.1851366  53.7241273
  32.2125218  62.0972044  51.9938082  34.3239825  62.8624986  54.6761488
  35.1318012  63.5800360  54.8199232  33.5166406  63.0801650  55.3753771
  34.6977763  61.8545037  54.8559409  34.4555393  62.8741044  50.7864249
  34.1448367  63.9903454  50.3600401  34.4493951  61.7772837  50.0420053
  34.7940282  60.8940561  50.3901955  33.9399528  61.8286999  48.6951207
  33.4821989  60.8755726  48.4303398  33.2004102  62.6241957  48.6036747
  35.0748422  62.1052505  47.7502257  34.8574345  62.0848106  46.5525875
  36.2755636  62.4026054  48.2551862  36.4220752  62.5803707  49.2385647
  37.4325213  62.4762335  47.3547486  38.2471784  61.9249739  47.8243716
  37.1523774  61.9855434  46.4226317  37.9050585  63.8941899  47.0469527
  37.1456341  64.8239407  47.1028366  39.1823160  64.0506052  46.7258459
  39.8100651  63.2667859  46.6178749  39.7200280  65.4135559  46.5195814
  39.2691440  66.1087057  47.2277971  41.2453093  65.4048358  46.7411711
  41.6459931  66.4145898  46.6520165  41.4816441  65.0065274  47.7278810
  41.8138798  64.5929518  45.7654550  42.7664674  64.5712095  45.8825192
  39.4013254  65.8541580  45.0872059  39.4904047  67.0418707  44.7587969
  38.9843321  64.8963372  44.2452975  38.9476377  63.9265082  44.5249127
  38.5655380  65.2449669  42.8762764  39.4119361  65.6550284  42.3253145
  38.1971896  64.3550751  42.3658732  37.4611923  66.2783856  42.9230353
  37.4119592  67.2061703  42.1051713  36.6604250  66.1890117  43.9920241
  36.8457052  65.4776728  44.6846767  35.5685807  67.0817229  44.2139262
  34.8616765  67.0291411  43.3859040  34.8602013  66.6959458  45.4717314
  35.5266190  66.9758677  46.2875932  33.9618254  67.3120619  45.5094355
  34.4860724  65.2691796  45.6076459  33.8168415  65.0381496  44.7788782
  35.3044524  64.5494101  45.6246229  33.7163485  65.1518772  46.8937552
  32.4842882  65.1390790  46.8716283  34.4353554  65.1863007  48.0526418
  33.9600949  65.1108819  48.9406400  35.4397012  65.2870482  48.0174173
  35.9208876  68.5183734  44.3987298  35.0076271  69.3589070  44.2741650
  37.1916854  68.8364723  44.7548281  37.8983282  68.1552503  44.9929288
  37.5076787  70.2437181  44.9230882  36.7358139  70.6654524  45.5668770
  38.8839755  70.4890727  45.5773680  39.6221592  69.8452853  45.0991193
  39.2940056  71.9167163  45.4222614  38.5564916  72.5611341  45.9006961
  40.2666541  72.0688173  45.8901510  39.3585607  72.1636632  44.3625673
  38.8141975  70.2097973  47.0589112  38.5228286  69.1719186  47.2202002
  39.7911292  70.3865037  47.5088879  38.0781647  70.8689850  47.5191590
  37.3553497  70.8897845  43.5192292  36.7510164  71.9802729  43.3445481
  37.8854835  70.1974199  42.5233455  38.2662389  69.2761220  42.6856257
  37.9424912  70.7401557  41.1727778  38.1881921  71.8015333  41.2075310
  39.0032341  70.0254877  40.3711375  38.9360238  68.9515962  40.5453187
  38.8637358  70.2303108  39.3096821  40.2617163  70.4847246  40.7727593
  40.9427567  70.0348686  40.2673749  36.6312807  70.5896589  40.4557068
  36.2530045  71.4661496  39.6570672  35.9619265  69.4693174  40.7148973
  36.3672638  68.7192796  41.2564177  34.6564557  69.2537816  40.1054226
  34.7570815  69.3301443  39.0227674  34.0741420  67.8886671  40.4448075
  34.0321159  67.8079306  41.5310002  33.0633313  67.8501902  40.0387518
  34.8794414  66.7506113  39.8897688  34.5604438  66.5462533  38.8677222
  35.9317602  67.0347263  39.8914510  34.6859491  65.4749571  40.7576352
  33.6198753  65.3540859  41.4426912  35.5867848  64.5888645  40.7534987
  33.6497311  70.3719122  40.4519432  32.9088781  70.8332140  39.5645050
  33.6149954  70.7661602  41.7225143  34.2144097  70.3262003  42.4060618
  32.6801810  71.7431760  42.1727678  31.7083100  71.5533988  41.7171906
  32.5247348  71.6980702  43.6889020  33.5086219  71.7492740  44.1552105
  31.9234398  72.5461819  44.0163938  31.8430468  70.4123912  44.0925342
  30.9374240  70.3106199  43.4945453  32.5205102  69.5885149  43.8680945
  31.4841864  70.3828660  45.5562956  32.3768317  70.4086072  46.1812923
  30.8330939  71.2165925  45.8191227  30.7653948  69.1243176  45.8123533
  30.6042319  68.5269367  45.0140665  30.2942225  68.7474061  46.9864672
  30.4869418  69.5069286  48.0565072  30.9956003  70.3752611  47.9706863
  30.1241592  69.2134965  48.9522672  29.6536051  67.5725023  47.0953774
  29.5369833  66.9869747  46.2807260  29.2912332  67.2795500  47.9914601
  33.0227430  73.1426269  41.7364029  32.1193449  73.9663188  41.6115409
  34.3001088  73.4507970  41.5305543  35.0564682  72.7964951  41.6716527
  34.6219419  74.7785025  41.0736006  34.0264527  75.5573216  41.5499751
  36.1533754  75.1285903  41.2135259  36.7439731  74.2973048  40.8284816
  36.4878200  76.4037184  40.4230298  35.8979064  77.2356006  40.8078343
  37.5484810  76.6307585  40.5305082  36.2545721  76.2503103  39.3693882
  36.6039625  75.1849427  42.6967995  36.3481572  76.1781230  43.0659299
  36.0188905  74.4371157  43.2320984  38.1537619  74.9144481  42.9336845
  38.7395082  75.6622101  42.3990323  38.3748453  74.9743452  43.9993457
  38.4102419  73.9212030  42.5651984  34.2166710  74.7610778  39.6115891
  33.7343799  75.7371913  39.1068290  34.4003538  73.6445959  38.9286931
  34.8494366  72.8239589  39.3094540  34.0490118  73.6443747  37.5344288
  34.5110339  74.4990524  37.0403024  34.5379797  72.3516603  36.8445230
  35.6050481  72.4463445  36.6432790  34.3689853  71.5117623  37.5184016
  33.8029107  72.1134770  35.5519131  32.7852455  71.8501429  35.8402071
  33.7973303  73.0752029  35.0389276  34.4365777  70.8752001  34.4591132
  33.8448701  69.3125810  35.1910802  32.7553968  69.3161438  35.2247587
  34.1863550  68.4741535  34.5840151  34.2387966  69.2124135  36.2024602
  32.5287681  73.8728138  37.3809212  32.0575489  74.5517478  36.4394568
  31.7741446  73.3046356  38.3253538  32.1961318  72.6791829  38.9967962
  30.3373831  73.5895982  38.4456943  29.8249655  73.1925417  37.5694104
  29.7230007  72.9636089  39.6955189  30.3358553  73.2393703  40.5536937
  28.7267523  73.3911145  39.8087804  29.6190336  71.4651056  39.6148430
  29.7683127  70.8814391  38.5186176  29.3989106  70.8846434  40.6883618
  30.0808182  75.0577388  38.5621573  29.2347643  75.5626841  37.8780564
  30.7581457  75.7346645  39.4689809  31.4504873  75.2813549  40.0480085
  30.5218791  77.1460622  39.6622959  29.4656573  77.3104696  39.8755211
  31.3332721  77.6839182  40.8093278  32.3768289  77.5169222  40.5424929
  31.1354635  78.7551437  40.8473768  31.0584995  77.0783799  42.1498327
  31.1517248  75.9925015  42.1331569  32.1065616  77.6528520  43.0393010
  32.0136755  78.7387447  43.0568516  31.9813568  77.2616348  44.0489413
  33.0925325  77.3790731  42.6637922  29.6301147  77.4661914  42.6048416
  28.9043386  77.0943859  41.8815788  29.4272920  77.0262949  43.5812920
  29.5518041  78.5512730  42.6724023  30.8869669  77.9427104  38.4230883
  30.2384932  78.9286082  38.1412557  31.9110205  77.5315824  37.6921615
  32.4709402  76.7479913  37.9964219  32.3103481  78.2368887  36.4833888
  32.1791286  79.3118416  36.6073111  33.7911514  77.9529649  36.2044442
  33.8895829  76.8864009  36.0023261  34.0718824  78.5180869  35.3156657
  34.7002822  78.3344636  37.3523470  34.4337819  77.7829439  38.2539592
  36.0777544  77.9840669  36.9503291  36.3451542  78.5355858  36.0489840
  36.7681837  78.2437494  37.7528085  36.1378522  76.9139278  36.7521099
  34.5782812  79.7946703  37.6025658  33.5459215  80.0353279  37.8563704
  35.2304999  80.0780082  38.4286600  34.8688355  80.3429140  36.7064040
  31.4781481  77.9121622  35.2398588  31.6585180  78.5591736  34.1937059
  30.6057069  76.9108425  35.3258717  30.4890353  76.4296656  36.2061875
  29.7893415  76.4684567  34.1690051  29.2869101  75.5464136  34.4614061
  29.0458238  77.2433992  33.9826054  30.5696893  76.2216792  32.9014432
  31.5845721  75.5316269  32.8876379  30.1437677  76.8560284  31.8308690
  29.2977268  77.4053537  31.8814241  30.7757499  76.6823067  30.5342637
  31.1798511  75.6728681  30.4578746  29.7487261  76.8976564  29.3773560
  30.2543527  76.6579028  28.4419635  28.9283572  76.1977286  29.5360889
  29.1847549  78.3529750  29.3059548  28.1957514  78.5799497  28.5332778
  29.7030069  79.2814833  30.0042929  32.0261581  77.5683827  30.3795428
  32.6581327  77.6172147  29.3041226  32.4105946  78.2482670  31.4564606
  31.8059910  78.4024582  32.2506765  33.6805906  78.9533019  31.4101898
  33.8522814  79.3355018  30.4039369  33.6811895  80.1236874  32.3812379
  33.6180273  79.7413123  33.4000112  34.6075098  80.6855240  32.2613614
  32.5009794  81.0329155  32.1096051  31.5813284  80.4499055  32.1590261
  32.4848389  81.8021442  32.8816988  32.5761832  81.7270015  30.7168356
  33.4786425  82.5193877  30.4721825  31.6396393  81.4128190  29.8142897
  31.6579501  81.8438789  28.9010792  30.9186821  80.7460405  30.0503587
  34.8928158  78.0160215  31.5781736  35.9930842  78.5024743  31.7350491
  34.6754528  76.6862544  31.5608575  33.7290024  76.3440175  31.4759760
  35.7642261  75.7069272  31.6433913  36.7356286  76.1966480  31.5752005
  35.7432945  74.8214117  32.9192621  34.7367791  74.4281603  33.0620187
  36.7428775  73.6438196  32.7780056  37.7497494  74.0363127  32.6356712
  36.7157024  73.0332404  33.6805327  36.4666251  73.0331895  31.9184027
  36.0234982  75.6336102  34.1462950  35.2655267  76.4100824  34.2496008
  36.0022538  74.9868564  35.0234254  37.0069012  76.0957502  34.0600049
  35.6012509  74.8200646  30.4554962  34.5477853  74.1927372  30.2823471
  36.6228657  74.7518065  29.6149553  37.4489001  75.3184967  29.7439080
  36.5402558  73.9232778  28.4410449  35.5271571  73.5406886  28.3171273
  36.9033423  74.7531867  27.2088888  37.7180042  75.4278450  27.4720646
  37.2325052  74.0774830  26.4194736  35.7103150  75.5650290  26.7176548
  34.9899674  74.8689567  26.2879065  35.2665507  76.0586055  27.5822689
  36.0915175  76.6148347  25.6713218  37.0673812  77.0180234  25.9419283
  36.1607770  76.1147036  24.7053138  35.0529880  77.7806517  25.5810994
  35.0384548  78.2517712  26.5639197  35.4478251  78.4836181  24.8475865
  33.6333351  77.3797124  25.1883318  33.2671276  76.7286603  25.8681281
  33.0471496  78.2016967  25.1595528  33.6465228  76.9435284  24.2774703
  37.4352431  72.7102733  28.6155346  38.6299547  72.8438052  28.7765767
  36.8679684  71.5081991  28.5997186  35.8640684  71.3992397  28.5794225
  37.6959511  70.3022568  28.6572147  38.5771642  70.4737059  29.2754120
  36.8959188  69.1850970  29.2616675  36.1365370  68.8565631  28.5520874
  37.6282600  68.3902822  29.4032509  36.2416256  69.5087333  30.5856562
  35.5592482  70.3541554  30.4977734  35.4775886  68.2940784  30.9545288
  36.1594035  67.4482710  31.0430564  34.9747490  68.4560900  31.9079465
  34.7357271  68.0830052  30.1843405  37.3118855  69.7282674  31.6086956
  37.9478502  70.5571320  31.2978391  36.8540425  69.9628349  32.5696634
  37.9142835  68.8249373  31.7046663  38.1796079  69.9294665  27.2758492
  37.7276905  70.4915608  26.3180467  39.0888748  68.9812117  27.1642801
  39.4557398  68.5576221  28.0045665  39.7146764  68.6457487  25.8913929
  40.6508350  68.1178092  26.0730142  38.7938160  67.7403788  25.0436793
  37.9798077  68.3150415  24.6018052  39.4010746  67.3030139  24.2511839
  38.2007090  66.6199424  25.8734855  38.8933110  65.6832218  26.1922817
  36.9411349  66.7352286  26.2567663  36.5162884  66.0054809  26.8109084
  36.4092340  67.5525466  25.9937576  40.2463966  69.8143664  25.0653600
  40.1104830  69.8202446  23.8424418  40.8914560  70.7741715  25.7150319
  40.9192696  70.7875602  26.7245598  41.5236563  71.8383974  25.0071605
  41.5742812  71.6015594  23.9444074  40.7272689  73.1286295  25.1819099
  40.4440963  73.2034052  26.2318247  41.2840762  74.0196926  24.8919578
  39.4579800  73.1430338  24.3949516  39.2799435  73.9329060  23.2754938
  38.0844406  73.7056428  22.7570824  37.7590612  74.2229156  21.8544994
  37.4712833  72.8121596  23.5127587  36.5320528  72.4662166  23.3775939
  38.3211176  72.4196864  24.5268093  38.0060732  71.6546712  25.2364570
  42.9405512  72.0047327  25.5107627  43.2030774  72.9159974  26.2606851
  43.8463336  71.1060054  25.1081543  43.6036137  69.8202433  24.3936363
  43.4315022  70.0269714  23.3373497  42.7224858  69.3383378  24.8172865
  44.8541564  69.0314598  24.6287800  45.0950419  68.4564800  23.7346483
  44.7031952  68.3518083  25.4674610  45.9377080  70.0478671  24.9430554
  46.4885662  70.2514123  24.0247834  46.6283129  69.6984036  25.7105447
  45.2171797  71.3412236  25.4258059  45.2996858  71.4757358  26.5043222
  45.7690081  72.5907666  24.7087719  45.6784102  72.6792354  23.4520562
  46.3142810  73.5483118  25.4658615  46.3684776  73.4607642  26.4705990
  46.9049578  74.7371562  24.8376897  46.2906489  75.1497726  24.0373950
  47.1429770  75.8166025  25.8696943  47.6516489  75.3750695  26.7266661
  47.9761798  76.9152131  25.3108116  47.4679124  77.3575723  24.4540248
  48.1319674  77.6779318  26.0737604  48.9399593  76.5161549  24.9946104
  45.7978855  76.3259512  26.3939488  45.2494842  75.5017753  26.8501202
  45.9684138  77.1041025  27.1379247  45.2166669  76.7351537  25.5676080
  48.2448967  74.3773758  24.2602488  49.0506725  73.7226623  24.9447439
  48.4989960  74.7880009  23.0098743  47.8222901  75.3446165  22.5075321
  49.7346785  74.4630770  22.3541541  50.3330200  73.8166729  22.9962198
  49.4600202  73.7267958  21.0366512  50.3807500  73.6925408  20.4542566
  48.9525334  72.2455895  21.3126513  48.0315213  72.2790469  21.8946452
  48.7642263  71.7428056  20.3640482  49.7134300  71.6979713  21.8687550
  48.4426253  74.4644742  20.3341497  48.2475495  74.0274280  19.5019621
  50.5136570  75.7315372  22.0363769  51.7320674  75.6724723  21.8286117
  49.8341094  76.8717195  21.9837422  48.8807228  76.9378035  22.3105237
  50.5283445  78.1196740  21.5837757  51.6058787  77.9843832  21.6771331
  50.2030526  78.4864254  20.1237659  49.1223078  78.4880774  19.9820363
  50.6042236  79.4666928  19.8663991  50.7588768  77.5282037  19.1375244
  51.8253997  77.8433669  18.3354197  52.1395158  76.7926543  17.6011179
  52.9748426  76.8346135  16.9021418  51.2985111  75.8134555  17.8906532
  51.2982898  74.8862682  17.4901241  50.4116637  76.2623700  18.8362533
  49.6161880  75.6074738  19.1918241  49.9565321  79.1987223  22.3492497
  48.7169453  79.2789552  22.4817920  50.8199613  80.0783403  22.7706178
  51.8080673  79.9468357  22.6079759  50.3820646  81.3076984  23.4561948
  49.3264089  81.5395068  23.3149318  50.6762714  81.2350494  24.9876433
  51.7196577  80.9537794  25.1302318  50.4126230  82.5968707  25.6685282
  49.3692507  82.8786067  25.5267541  50.6254679  82.5178984  26.7346243
  51.0569069  83.3561136  25.2251883  49.9007446  80.1217558  25.6074759
  50.1860759  79.1773983  25.1439276  50.1137765  80.0805639  26.6756614
  48.8348733  80.2926307  25.4564094  51.1833956  82.4659775  22.8762679
  52.4306973  82.4208448  22.8747578  50.4862353  83.5041298  22.4220692
  49.4902711  83.5423069  22.5854619  51.1102266  84.5915011  21.6375824
  52.1902300  84.5599377  21.7814418  50.8073065  84.4597457  20.1182138
  51.2659010  83.5362553  19.7647233  49.7253051  84.3945074  20.0036838
  51.3504755  85.6691308  19.2764347  51.6904680  86.7491270  19.8253977
  51.4496852  85.5529465  18.0388287  50.6244883  85.9163739  22.1432535
  49.4721324  86.2920425  21.9011566  51.5356829  86.6175557  22.8077574
  52.4500549  86.2021557  22.9148373  51.2806876  87.9015482  23.4486449
  50.2228000  88.1516022  23.3683579  51.6607377  87.8420990  24.9407779
  51.2759536  88.7622984  25.3804068  51.1181092  86.9899285  25.3499963
  53.1701740  87.7019624  25.2734470  53.5223582  86.7045196  25.0104357
  53.7352880  88.4460055  24.7120666  53.4127360  87.9278847  26.7651842
  52.7051810  88.7311681  27.4081972  54.4003228  87.2204630  27.3278572
  54.6012060  87.3331446  28.3112443  54.9399762  86.5773230  26.7663889
  52.0337947  89.0376537  22.7335707  52.4319068  90.0254087  23.3387358
  52.2031125  88.8672061  21.4297578  51.8775218  88.0088306  21.0087097
  52.8749645  89.8578533  20.5679678  53.8647068  90.0811889  20.9662525
  53.0315564  89.3151180  19.1412123  52.0467034  89.2426586  18.6797869
  53.6516826  90.0031683  18.5666425  53.6412378  88.0312453  19.1600124
  53.7316281  87.7067472  18.2610517  52.1232392  91.1550912  20.5121826
  52.7149230  92.2184652  20.3586898  50.8182919  91.0630723  20.6359892
  50.4027402  90.1692201  20.8560899  49.9385992  92.1871611  20.3886087
  50.5037571  93.0926271  20.1676406  49.0771472  91.8331289  19.1621228
  49.4868583  92.3328165  18.2843139  49.1022992  90.7540709  19.0101316
  47.7532981  92.2458694  19.3584739  47.2294804  92.0186574  18.5867294
  49.1258025  92.4559789  21.6890688  49.3265289  91.7429874  22.6973893
  48.2214347  93.4295856  21.7479665  48.1112881  94.1735736  21.0738382
  47.6197553  93.5972739  23.0697182  48.3348688  93.2217708  23.8016398
  47.2412205  95.0525412  23.4482607  46.9361633  95.5605186  22.5333846
  46.4040367  95.0276031  24.1458290  48.4413527  95.8250064  24.0996209
  48.5387123  97.0762587  23.9177320  49.3012398  95.1704267  24.7855113
  46.5633084  92.5562533  23.3908879  46.2770734  92.2914303  24.5655654
  45.9927335  91.9425548  22.3729780  46.1448587  92.1944729  21.4068027
  45.1495266  90.7984006  22.6605440  44.7191971  90.9326314  23.6529642
  44.0147229  90.6089199  21.6586679  44.4194016  90.6643320  20.6480919
  43.5855728  89.6206846  21.8239594  42.9092119  91.6498680  21.7986307
  42.1272683  91.8603674  20.8495911  42.8166493  92.2985654  22.9760486
  42.0982070  92.9957170  23.1099146  43.4661307  92.0847019  23.7193770
  46.0798539  89.6509015  22.5332538  46.6685966  89.4978939  21.4846067
  46.2321045  88.8779836  23.6161927  45.8189168  89.2002179  24.4796395
  46.9546199  87.6032407  23.6250870  47.8928915  87.6208582  23.0706186
  47.2176668  87.1376857  25.0552740  46.2729218  87.0817577  25.5960413
  47.8785090  85.7554420  25.0380916  48.8235995  85.8106782  24.4978570
  48.0639670  85.4280704  26.0610940  47.2187541  85.0428496  24.5430818
  48.0146409  88.2127938  25.8205190  48.9305135  88.3929565  25.2576519
  47.4075491  89.1180665  25.8250408  48.3715646  87.8243471  27.2749841
  48.9790840  86.9193576  27.2712457  48.9313029  88.6351626  27.7412142
  47.4561189  87.6444652  27.8386343  46.1261857  86.5433648  22.9109520
  44.9408362  86.4775661  23.0984678  46.7398156  85.7282157  22.0643947
  47.7431446  85.7467384  21.9499953  45.9700181  84.7540273  21.2869163
  44.9003644  84.8962251  21.4409290  46.2874187  84.8475688  19.7893761
  47.3703963  84.8342439  19.6665658  45.6603199  83.6659366  18.9919437
  44.5772414  83.6788784  19.1139025  45.9076963  83.7681730  17.9353201
  46.0564911  82.7225599  19.3676937  45.7957169  86.1776636  19.2493789
  44.7636689  86.0635801  18.9177726  45.8407909  86.9199335  20.0463125
  46.6478974  86.6315153  18.0916341  46.6029515  85.8899207  17.2940646
  46.2777141  87.5869754  17.7199359  47.6800745  86.7462720  18.4226043
  46.3818675  83.4137402  21.7970187  47.5632530  83.1267069  21.8995769
  45.4242962  82.5903235  22.1630340  44.4406038  82.8064572  22.0873057
  45.8045594  81.2986716  22.6979745  46.8840313  81.2457731  22.8395422
  45.0881564  80.9801333  24.0447714  44.0132082  80.9291468  23.8716034
  45.5724058  79.6584914  24.6020605  46.6472688  79.7088662  24.7759358
  45.0620347  79.4513323  25.5426492  45.3570757  78.8623280  23.8894204
  45.3111913  82.1160404  25.0475758  44.8850556  83.0226614  24.6179859
  44.7733951  81.8595503  25.9603120  46.7767288  82.3504100  25.3725632
  47.3151234  82.6074197  24.4603258  46.8645081  83.1678823  26.0881980
  47.2034636  81.4443071  25.8026501  45.4042059  80.3372275  21.6748038
  44.3365272  80.4973349  21.1115259  46.2358775  79.3337598  21.4071177
  47.2067281  79.3208771  21.6852950  45.7478223  78.2598394  20.5163309
  44.6865978  78.4174256  20.3237995  46.4923891  78.2301602  19.1707108
  46.3675170  79.2074544  18.7044468  47.5481592  78.0616851  19.3829978
  45.9836043  77.1433040  18.2207552  45.9337440  76.2029712  18.7697443
  44.9855391  77.4170763  17.8786823  46.8846164  76.9844977  17.0455847
  47.6397220  77.9475326  16.7999704  46.8568543  75.9283779  16.3594498
  45.7365559  76.8881342  21.1515410  46.6675837  76.5006821  21.8365150
  44.6728174  76.1543765  20.9082487  43.9101871  76.4962105  20.3411123
  44.5779129  74.8379046  21.4455408  45.2627711  74.7644437  22.2903319
  43.1730145  74.5647302  21.9368273  43.1503994  73.5781291  22.3996523
  42.7301092  75.6230986  22.9634914  42.7520256  76.6099768  22.5012244
  41.7170176  75.4023335  23.2996570  43.4072726  75.6073554  23.8174834
  42.2934227  74.6438330  20.8225643  41.3941273  74.4733654  21.1120620
  44.9249598  73.8307926  20.3595054  45.0629156  74.1800901  19.1878875
  45.0070116  72.5656733  20.7533007  44.7851599  72.3441745  21.7134150
  45.4386398  71.5158048  19.9037201  46.4040281  71.7519822  19.4561211
  45.5846174  70.2585951  20.7324325  46.3272081  70.5744457  21.4651648
  44.6265729  70.1060528  21.2294050  46.0337292  68.9542145  20.0842568
  45.3855059  68.7766125  19.2261397  47.4852913  68.9686656  19.6285205
  48.1341938  69.1457675  20.4862263  47.7345265  68.0083160  19.1771768
  47.6285354  69.7622824  18.8952033  45.7959404  67.7946250  21.0577678
  44.7348292  67.7344060  21.2996691  46.1164413  66.8605874  20.5962982
  46.3671938  67.9630068  21.9706841  44.4899173  71.2658950  18.7334156
  44.9247995  70.8044203  17.6904259  43.2066329  71.5749213  18.9088897
  42.8861423  71.8669694  19.8210810  42.1902774  71.4048199  17.8188746
  42.5307266  70.6280313  17.1341899  40.7981726  70.9998004  18.3763667
  40.1522805  70.6977261  17.5519435  40.9599738  70.1507023  19.0404094
  40.0758525  72.1469144  19.1898980  38.8794206  72.0095555  19.5453135
  40.7901284  73.2298713  19.5049526  40.3595338  73.9815835  20.0241991
  41.7578395  73.2925121  19.2226194  42.0737435  72.6710780  16.9396726
  41.0552375  72.9078214  16.2932144  43.1021249  73.4967985  17.0230721
  43.7494090  73.2992709  17.7728090  43.2156548  74.7730479  16.3313609
  44.0568472  75.3303757  16.7435263  43.4440159  74.5836814  14.8187180
  42.5864632  74.2483320  14.2354142  43.7754338  75.5548354  14.4511281
  44.5495940  73.6232011  14.5422930  44.3181728  72.3418416  14.1080213
  45.4682209  71.6942191  13.9948427  45.5027149  70.6668345  13.6323650
  46.4323932  72.5086590  14.3835206  47.4181592  72.2903637  14.4102128
  45.8805237  73.7153038  14.7510656  46.5190986  74.5147886  15.1267615
  42.2159549  75.8357130  16.6422692  42.1387332  76.7991362  15.8908623
  41.5212357  75.7341552  17.7687590  41.4062651  74.8477216  18.2389894
  40.7440126  76.8963026  18.2603918  40.2653554  77.3902519  17.4148148
  39.6907666  76.4859017  19.2304355  40.1476108  75.9191480  20.0417202
  39.2069891  77.3744311  19.6361138  38.6570083  75.6224989  18.5299525
  38.2900488  76.1707005  17.6622449  39.1584150  74.7129941  18.1990573
  37.5005157  75.2612939  19.4198844  37.4040165  74.0799905  19.8118220
  36.6900821  76.1554683  19.7351722  41.5700113  78.0461008  18.8080754
  42.6735174  77.8353363  19.2653615  41.0564887  79.2741019  18.7062822
  40.1680139  79.3903912  18.2402472  41.7622322  80.4584164  19.1418350
  42.6292098  80.1576675  19.7300518  42.2421397  81.3118417  17.9637976
  41.3410433  81.7123131  17.4993117  42.9128950  82.1316809  18.2208015
  42.9341600  80.5062780  16.9243853  44.3111463  80.4019977  16.8594600
  44.6407649  79.5685912  15.8865293  45.6864745  79.3626239  15.6581262
  43.5244319  79.1118398  15.3371124  43.4697995  78.4518537  14.5745290
  42.4445732  79.6771941  15.9677293  41.4332578  79.4174727  15.6548599
  40.9000501  81.2528437  20.0881994  39.6937272  81.4162432  19.9124986
  41.5428693  81.6353065  21.1596613  42.5123360  81.3742216  21.2695174
  40.9274966  82.4259983  22.1936908  39.9098965  82.6879536  21.9039176
  40.8750377  81.6355366  23.5105960  41.9230949  81.4148510  23.7130143
  40.4477860  82.1742458  24.3563787  40.1219208  80.3475372  23.3039016
  40.8007668  79.2103821  22.8925144  41.8809595  79.2471756  22.7513425
  40.1409307  78.0810009  22.6709215  40.6869797  77.1696234  22.4273576
  38.7905454  78.0467070  22.8104829  38.1935104  76.8546117  22.5201952
  38.8184758  76.1783979  22.2486207  38.0652343  79.1540249  23.1554192
  36.9805931  79.1079274  23.2530353  38.7079778  80.3064034  23.3740179
  38.1436669  81.2098375  23.6052323  41.8116737  83.6263294  22.3164594
  42.9850436  83.5926702  21.9738095  41.2160822  84.7025410  22.7530375
  40.2312361  84.7135832  22.9767688  41.9707245  85.8899615  22.9697108
  43.0381873  85.7120756  22.8394076  41.5244439  86.8916244  21.9496456
  40.4386447  86.8398234  21.8692965  41.8159301  87.8844033  22.2924660
  42.1368950  86.6270787  20.6093306  43.2135628  86.5321209  20.7502932
  41.7364657  85.6872548  20.2292165  41.8543657  87.7328058  19.6174109
  41.7852572  88.9465414  20.0144950  41.6991925  87.3378707  18.4431007
  41.6331106  86.3857243  24.3553493  40.5326860  86.1363336  24.8812772
  42.5754155  87.0932205  24.9608933  43.4127971  87.3897032  24.4802796
  42.4142138  87.4632494  26.3378870  41.3964836  87.8129444  26.5112013
  42.6799295  86.2571411  27.2482780  42.5122982  86.5325752  28.2894961
  42.0172121  85.4345907  26.9793608  44.3606670  85.5934097  27.1693972
  44.1681177  84.6215186  28.0566687  43.4203822  88.5303688  26.5435939
  44.1996926  88.7868550  25.6392200  43.3651651  89.1795069  27.7139326
  42.6226541  88.9697193  28.3656733  44.3480523  90.1770901  28.0895622
  44.7760931  90.6175798  27.1890906  43.7351531  91.2712359  28.9139763
  43.0431364  90.8149233  29.6217835  44.5345260  91.7723529  29.4598561
  42.9998551  92.2740259  28.0709074  43.2786963  93.2720011  28.4091291
  43.3123344  92.1414905  27.0351018  41.4336085  92.1022732  28.1738764
  41.0050010  92.5395232  27.2720965  41.2306966  91.0314429  28.1896415
  40.7885148  92.7769132  29.4413960  40.1637634  92.0254453  29.9241820
  41.6038757  93.0544757  30.1094117  39.9527840  94.0029674  29.1277252
  39.1969418  93.7459030  28.5090814  39.5732671  94.3798808  29.9844651
  40.5316045  94.6995843  28.6807457  45.4469070  89.5840911  28.9022370
  46.5216591  90.1643162  28.9280794  45.1874973  88.4515662  29.5828418
  44.3378317  87.9419804  29.3866531  46.1456797  87.8726119  30.5539687
  47.1511382  88.2110134  30.3036950  45.8353476  88.2868343  31.9845168
  44.7945181  88.0265985  32.1770017  46.4837149  87.6827000  32.6191362
  46.0494507  89.7254703  32.2855174  44.9920804  90.6287845  32.2093773
  44.0081241  90.2594576  31.9203667  45.1734780  91.9858964  32.4950751
  44.3505543  92.6962057  32.4153310  46.4557634  92.4334915  32.8590953
  46.6560594  93.7509474  33.1624920  45.8561092  94.2773219  33.0946013
  47.5297102  91.5339880  32.9463575  48.5269165  91.8709488  33.2294430
  47.3031593  90.1886258  32.6633303  48.1205512  89.4712218  32.7361461
  45.9809882  86.4135200  30.5081250  44.8932247  85.9230903  30.2042331
  47.0636290  85.7196303  30.8405164  47.8970152  86.2110980  31.1303893
  47.0772753  84.2942362  30.8630399  46.0801588  83.8655513  30.7626047
  47.9758130  83.7508090  29.6989000  48.9785918  84.1568700  29.8317473
  48.0445000  82.2127280  29.6732345  47.0420810  81.8059225  29.5399437
  48.6794863  81.8905919  28.8479338  48.4606229  81.8513551  30.6136350
  47.4849741  84.2550542  28.3690120  47.5163745  85.3445556  28.3588737
  48.1222618  83.8663126  27.5747551  46.4601885  83.9201170  28.2085992
  47.7087488  83.9844040  32.1786266  48.7179186  84.6404703  32.5675394
  47.1142169  83.0126767  32.8752692  46.1895240  82.7324233  32.5811598
  47.7119895  82.3282798  33.9921514  48.6368159  82.8013917  34.3222428
  46.7220909  82.2731901  35.1597249  45.8373492  81.7276599  34.8315033
  47.3100065  81.5949278  36.3622937  48.1945857  82.1401885  36.6914000
  46.5742985  81.5778626  37.1663728  47.5887871  80.5733645  36.1038583
  46.2248931  83.6724612  35.5307499  47.1016920  84.2603229  35.8023065
  45.7673310  84.0953431  34.6363745  45.1944688  83.7009161  36.7060027
  45.6514966  83.2785871  37.6009126  44.8952798  84.7304217  36.9027344
  44.3171360  83.1136050  36.4349811  48.0255165  80.8829577  33.4869871
  47.1287299  80.1593486  33.1280571  49.3048674  80.5216167  33.4167589
  49.9767554  81.2625670  33.5569674  49.7934888  79.2014115  33.1729464
  49.2006705  78.7254775  32.3918237  51.2517183  79.2493741  32.7184487
  51.3148369  79.8245516  31.7947139  51.8263677  79.7501245  33.4976324
  51.8520566  77.8818874  32.4783504  51.9842852  77.4667708  31.3355824
  52.2329192  77.1786243  33.5463643  52.6379919  76.2614043  33.4250247
  52.1144029  77.5667203  34.4712622  49.6905412  78.4169808  34.4813944
  50.2941559  78.7909162  35.4787126  48.8568488  77.3715922  34.5080316
  48.3358938  77.0656950  33.6986293  48.6357166  76.6760953  35.7815204
  49.2996152  77.0522445  36.5598838  47.1994195  76.8899763  36.2239373
  46.5225668  76.5099769  35.4587112  47.0239968  76.3590149  37.1595692
  47.0189171  77.9547290  36.3716529  48.9819708  75.1605710  35.5963508
  48.2393643  74.2699773  36.0648329  50.1003233  74.8804070  34.8868051
  50.7034448  75.6230905  34.5631311  50.4574868  73.5034931  34.5540885
  49.8651942  72.7726922  35.1047417  50.3571303  73.2108415  33.0365492
  50.6691848  72.1820826  32.8566115  48.9682007  73.3978775  32.5511855
  48.6555841  74.4265970  32.7303720  48.9245194  73.1862673  31.4828159
  48.3022784  72.7184239  33.0831532  51.3673116  74.0362460  32.2512198
  51.2446327  75.0729629  32.5646982  52.3583694  73.6851415  32.5386732
  51.2090286  73.9386305  30.6830602  50.2183124  74.2900257  30.3947848
  51.9673149  74.5561859  30.2016804  51.3320469  72.9022031  30.3687600
  51.8858012  73.3184132  35.0377158  52.5691790  74.2996323  35.1431762
  52.3562440  72.0872712  35.2674592  51.7521158  70.7281106  35.1579113
  51.3841748  70.5917048  34.1409978  50.9189336  70.6600541  35.8573930
  52.8972443  69.7539934  35.5098165  53.3043798  69.3184456  34.5973265
  52.5206224  68.9597027  36.1543005  53.9619964  70.6159045  36.2533594
  54.9632199  70.2737326  35.9915026  53.8332454  70.5674494  37.3346433
  53.7573499  72.0694238  35.7617634  53.8247412  72.7832695  36.5827269
  54.7790743  72.4280588  34.6939666  54.4576100  72.3573497  33.5345806
  56.0422263  72.7607142  35.0986411  56.4350346  72.7630396  36.5114826
  56.3361199  71.7521633  36.9070143  55.7741586  73.4337573  37.0605542
  57.8244558  73.2307853  36.5028477  58.3867110  72.6524763  37.2360100
  57.8352203  74.2834421  36.7855118  58.3720749  73.0424766  35.1209189
  58.8139081  72.0571028  34.9728621  59.1106784  73.8098299  34.8891138
  57.1663849  73.2028474  34.2293519  56.9456429  74.2375708  33.9672095
  57.4142674  72.4024017  32.9628879  57.6829497  72.9822387  31.8975908
  57.4156421  71.0929104  33.1434525  57.3280626  70.7489440  34.0890297
  57.6061026  70.1442949  32.0927277  58.5681390  70.3256156  31.6134492
  57.6100472  68.6966987  32.6914387  58.3385087  68.6721876  33.5018974
  56.2536238  68.2787141  33.2195243  55.5246828  68.3025344  32.4094767
  56.3156875  67.2677052  33.6221509  55.9428294  68.9646337  34.0075736
  57.9633698  67.7961011  31.6592672  57.9719611  66.9005684  32.0050241
  56.5535652  70.2428302  30.9517401  56.8793448  70.0100522  29.7719096
  55.2918149  70.5665414  31.3091115  55.0421386  70.5579105  32.2877261
  54.2528542  70.8577619  30.3355099  54.3698816  70.2371106  29.4471429
  52.8992435  70.5529912  30.9679779  52.7129822  71.2938660  31.7454807
  52.1133962  70.6119105  30.2149357  52.9070125  69.1572145  31.5868414
  53.4900546  69.1667456  32.5077495  51.5080792  68.7525616  31.8902268
  50.9244952  68.7423498  30.9696703  51.5052788  67.7563924  32.3326518
  51.0679375  69.4620127  32.5909798  53.5247215  68.1177939  30.7010838
  54.5593605  68.3879890  30.4898584  53.4974672  67.1500830  31.2019769
  52.9671915  68.0583391  29.7663515  54.3619857  72.3312519  29.8549356
  54.1207939  72.6543658  28.6787937  54.7545513  73.2314979  30.7430873
  54.7999862  73.0347824  31.7327024  54.9883600  74.6087101  30.2965160
  54.0717509  75.0047082  29.8593519  55.3991626  75.5117100  31.4891242
  56.3771983  75.1835040  31.8410150  55.4670258  76.9870735  31.1008832
  54.4891685  77.3161439  30.7493046  55.7585007  77.5786521  31.9687405
  56.2019153  77.1209943  30.3070928  54.4130961  75.3606270  32.5237444
  54.6485906  75.9123393  33.2732484  55.9951897  74.5947735  29.1340115
  55.8220650  75.2843336  28.1218027  56.9859594  73.7176516  29.2741852
  57.0257017  73.1901664  30.1345800  58.0541331  73.5769943  28.3478793
  58.4735893  74.5782722  28.2499090  59.1054849  72.6719902  28.8718842
  58.7031552  71.6634245  28.9668902  59.9520319  72.6617303  28.1853326
  59.4351650  73.0246431  29.8491489  57.5939044  73.1485875  26.9552900
  58.3685119  73.2580852  25.9807930  56.3417070  72.7507918  26.7999962
  55.6590770  72.6697335  27.5399592  55.9500812  72.3726151  25.4633674
  56.8418511  72.2605305  24.8466968  55.1863634  71.0640252  25.4526058
  54.1656809  71.2904815  25.7608654  55.1836187  70.7073989  24.4226009
  55.7480329  70.0151216  26.3368413  56.7826230  69.7816035  26.0854581
  55.6840141  70.2922755  27.3890720  54.8503093  68.7584692  26.0725686
  53.8168094  69.0883430  25.9669263  55.1778771  68.2888645  25.1450610
  54.9451345  67.7818597  27.1796134  55.7781831  68.0558674  27.8269543
  54.0183936  67.8012673  27.7530885  55.1640903  66.4235887  26.6448619
  56.0230022  66.4052834  26.1137922  55.2270102  65.7668169  27.4095788
  54.3920703  66.1693265  26.0453329  55.0893640  73.4210899  24.7940883
  54.8892435  73.3913443  23.6106471  54.5149788  74.3204349  25.5533078
  54.4521005  74.2283226  26.5571310  53.8075185  75.4037830  24.9215809
  53.0930995  75.0832136  24.1633330  53.0885606  76.2476674  25.9742554
  53.7912635  76.5100928  26.7651042  52.5564663  77.4857325  25.3554295
  51.8532882  77.2241013  24.5647397  52.0459434  78.0806493  26.1127545
  53.3784853  78.0638011  24.9332677  52.0013592  75.3581442  26.6830753
  51.3778006  74.9344425  25.8958318  52.5339220  74.5566233  27.1949743
  51.1181556  76.1061211  27.6865751  50.5848834  76.9075570  27.1752816
  50.3992303  75.4140588  28.1250900  51.7410057  76.5297401  28.4744232
  54.7895094  76.1824520  24.0120297  55.9768995  76.2954736  24.3185046
  54.2896622  76.6079741  22.8469766  53.3526019  76.3255957  22.5974177
  55.0106132  77.4729388  21.9378981  56.0812917  77.2914016  22.0316581
  54.5886411  77.2046357  20.4675124  53.5008618  77.2701585  20.4442236
  55.0096337  77.9001233  19.7414530  54.9427890  75.8365617  20.0014850
  56.2308875  75.4808813  19.6753185  56.2569256  74.1955815  19.3471655
  57.1885690  73.7228557  19.0362476  55.0351137  73.7044621  19.4758953
  54.7565798  72.7498063  19.2993987  54.1937489  74.7059322  19.8917808
  53.1385975  74.4944340  20.0650586  54.6411884  78.8765440  22.3128313
  53.5484562  79.3169381  22.0234415  55.5418142  79.5715403  22.9771341
  56.4403992  79.1849562  23.2285247  55.2448853  80.9367861  23.3723379
  54.1692591  81.0796125  23.4759143  55.9010156  81.2171106  24.7078293
  56.9297534  80.8575391  24.6853278  55.8948155  82.2857800  24.9223222
  55.2414277  80.5478319  25.8608474  55.7325232  79.3422334  26.3378741
  56.6053543  78.8927257  25.8643674  55.1204557  78.7073520  27.4113395
  55.5114364  77.7585545  27.7787875  53.9834631  79.2956742  28.0308569
  53.5192511  78.8024574  28.8848735  53.4662921  80.4875834  27.5551251
  52.5824408  80.9393631  28.0054606  54.1066949  81.1212185  26.4629631
  53.7213198  82.0654914  26.0783404  55.7566653  81.9586299  22.3554103
  56.8859706  81.8151914  21.8623183  54.9503357  82.9695750  22.0308913
  53.9721309  82.7851355  21.8600206  55.5351161  84.1780053  21.4632391
  56.5262129  84.2990304  21.9004795  55.6695605  84.1780133  19.9417090
  56.2384560  85.0703216  19.6804752  56.2465275  83.2906955  19.6811785
  54.4584477  84.1722401  19.2341007  53.8102066  83.3861329  19.6212954
  53.9638457  85.1373221  19.3440446  54.7415408  83.9167956  17.7775210
  55.6552133  83.3302687  17.6811481  53.9099141  83.3682322  17.3352829
  54.9134350  85.1774709  17.0484860  55.5945929  85.8436103  17.3837196
  54.2049958  85.4854339  15.9765523  53.2830369  84.6153686  15.5278342
  53.1416216  83.7400191  16.0114300  52.7361925  84.8411953  14.7092603
  54.4179792  86.6388290  15.3485500  55.1214918  87.2759415  15.6938872
  53.8751736  86.8720168  14.5293527  55.1890220  85.5391615  22.0569273
  54.0956470  85.7944047  22.4738963  56.1909098  86.3947441  22.1765944
  55.9925144  87.8038009  22.5749198  55.3617349  87.8407788  23.4630921
  55.5058271  88.3420874  21.7616043  57.3910499  88.3008428  22.8371218
  57.4872034  88.4540451  23.9120091  57.5008081  89.2558364  22.3232720
  58.4283551  87.2685353  22.3162676  59.1159356  87.0316642  23.1281938
  58.9929200  87.6280927  21.4559859  57.6181808  86.0060429  21.9268389
  57.7096381  85.7285975  20.8767161  58.0826200  84.8245521  22.8146687
  57.4436613  84.5439146  23.8535048  59.1970064  84.1830439  22.4333617
  59.5404625  84.3433840  21.4971842  59.8697136  83.1852571  23.2543542
  59.2576678  82.2857365  23.3203988  61.2278053  82.8114793  22.6357728
  61.7243562  83.7319815  22.3288328  61.8236323  82.3160650  23.4023594
  61.0773565  81.8696086  21.4074156  60.3418784  81.1096041  21.6711695
  60.6906445  82.4813213  20.5923324  62.3983430  81.1787235  20.9560204
  63.4912024  81.4708716  21.5414339  62.3502213  80.3283680  20.0134045
  60.0061054  83.6479251  24.7147807  60.0185353  84.8298881  24.9714655
  59.9811912  82.7131815  25.6703537  59.8401829  81.7412863  25.4344815
  60.1827677  83.0657898  27.0852739  59.5417990  83.9119135  27.3329288
  59.8470242  81.9046659  28.0277284  60.5466818  81.1530860  27.6620699
  60.1162609  82.1862012  29.0457409  58.4266650  81.3286135  28.0160041
  58.2508414  80.8399902  27.0576544  58.2502272  80.3188020  29.1394205
  58.4254501  80.8068330  30.0981809  57.2357765  79.9208191  29.1149227
  58.9628208  79.5039767  29.0114734  57.3728277  82.4416001  28.0529217
  57.4925326  83.0850755  27.1813085  56.3764592  81.9997136  28.0435794
  57.4992159  83.0323987  28.9601604  61.6344582  83.4087426  27.2645838
  62.4933056  82.9521205  26.4860843  61.9465000  84.1910480  28.3047056
  61.1485448  84.9407671  29.2995064  60.8530591  84.2823427  30.1163697
  60.2579322  85.3571829  28.8288621  62.0719902  85.9559483  29.7167891
  61.8020386  86.3545922  30.6946993  62.1143896  86.7693945  28.9924901
  63.4226477  85.1894040  29.7696571  63.5173086  84.5229537  30.6269682
  64.2702498  85.8743624  29.7472450  63.3787973  84.3809408  28.4925329
  63.7249962  85.0138770  27.6754427  64.2091036  83.0614392  28.5145341
  63.7085516  81.9499358  28.8846015  65.4402742  83.1487041  27.9985421
  65.7507930  83.9905933  27.5349690  66.2981472  81.9557280  27.9262174
  65.7043672  81.2694748  27.3224118  67.5660797  82.2507583  27.2030610
  68.1755624  82.9297209  27.7994172  68.1138842  81.3233564  27.0359197
  67.3381732  82.7154523  26.2437813  66.5559582  81.2436015  29.2892766
  66.6899103  80.0133817  29.3031700  66.5938593  81.9855336  30.4043045
  66.4303669  82.9782894  30.3159565  66.7255862  81.4200445  31.7501218
  67.6767888  80.8955389  31.8407130  66.6787812  82.5258173  32.7940881
  66.1878989  83.3605962  32.2938101  66.0284734  82.1402312  33.5792780
  67.9642296  82.9929008  33.3969392  68.6778344  82.1724483  33.4726142
  68.3708145  83.7687072  32.7481617  67.7050300  83.5805598  34.8016376
  66.7054373  84.3293005  34.9715194  68.4784518  83.2638026  35.7423313
  65.5021845  80.5699567  32.0638222  65.6068028  79.4819258  32.5924931
  64.3436774  81.1203361  31.7339001  64.3482974  82.0550281  31.3512398
  63.0805206  80.4885745  31.9665932  63.0322995  80.1348138  32.9964609
  61.9422505  81.4587125  31.7346719  62.1439565  82.3616441  32.3109779
  61.9172015  81.7039983  30.6729245  60.6023495  80.8815941  32.1518547
  59.8072091  81.5865170  31.9090867  60.4274458  79.9424988  31.6268683
  60.6145018  80.6375197  33.6003781  61.0953199  79.6747421  33.7735035
  61.2036411  81.4265430  34.0677714  59.2913858  80.6162295  34.2141677
  58.8501179  79.7192768  34.3585905  58.6531112  81.7062854  34.6133226
  57.4617447  81.5687043  35.2066315  57.0708952  80.6470010  35.3400474
  56.9587365  82.3871828  35.5183610  59.2194947  82.9293491  34.4430939
  60.1292465  83.0054708  34.0110555  58.7282692  83.7570006  34.7493442
  62.8872504  79.2508146  31.1250653  62.4586931  78.2266278  31.6145211
  63.2364451  79.3275889  29.8696428  63.5014079  80.2024846  29.4401645
  63.1400760  78.1674948  29.0404120  62.1363356  77.7455400  29.0909931
  63.4312367  78.5575227  27.5996190  62.7954513  79.4008077  27.3299031
  64.4777257  78.8499582  27.5133493  63.1715852  77.4509875  26.6580480
  62.0185494  76.9633605  26.5158430  64.2472245  77.0102824  25.9805827
  64.1480018  76.2547662  25.3176725  65.1490329  77.4369688  26.1380030
  64.0549744  77.0555726  29.5546530  63.6464661  75.8714876  29.6022846
  65.2663161  77.4172314  30.0049399  65.5966610  78.3674866  29.9155713
  66.1519359  76.4301914  30.6235177  66.3170656  75.5992286  29.9377101
  67.5030309  77.0636593  30.9579648  67.3110967  78.0398351  31.4033200
  67.9987336  76.4231873  31.6874676  68.3974523  77.2298770  29.7391596
  68.0820077  78.0600868  29.1072204  69.4059017  77.4173818  30.1079058
  68.4144987  75.9581294  28.8998095  68.7688702  74.8715333  29.3814139
  67.9672010  76.0792296  27.6582397  67.9519910  75.2735354  27.0493663
  67.6435718  76.9766589  27.3265981  65.5208034  75.8825885  31.8990524
  65.4303566  74.6541887  32.0987732  65.0670744  76.7896305  32.7637037
  65.1680978  77.7800365  32.5934407  64.4649720  76.3617409  34.0228384
  65.2403636  75.9183311  34.6475420  63.8126909  77.5259009  34.7982518
  64.6483495  78.1949297  35.0036158  63.0955519  78.0295194  34.1500388
  63.1321228  77.1450055  36.1101282  62.3615325  76.4098231  35.8781836
  64.0928886  76.5653531  37.1459762  64.8635503  77.3001850  37.3787883
  63.5427329  76.3166362  38.0534835  64.5591239  75.6649114  36.7460642
  62.4354248  78.2655887  36.6865084  61.6728292  78.6165900  35.9912778
  61.9624023  77.9591455  37.6194840  63.1428939  79.0705163  36.8857018
  63.4431800  75.2767496  33.7259695  63.6068523  74.1673967  34.1688967
  62.4113099  75.6085948  32.9601210  62.4069766  76.4942653  32.4746642
  61.1892249  74.7323966  32.8590330  60.8991963  74.3639090  33.8430043
  59.9911444  75.4719652  32.2109200  59.1204606  74.8162645  32.2027562
  59.6767616  76.7148391  33.0059256  60.5468813  77.3712878  33.0141529
  58.8342212  77.2348973  32.5501123  59.4216980  76.4376707  34.0287743
  60.3197487  75.7949309  30.7456598  61.2477687  76.3666278  30.7521561
  60.4847713  74.8410027  30.2447726  59.2611090  76.5680068  30.0131104
  59.0958539  77.5223246  30.5131785  59.5850964  76.7469399  28.9878717
  58.3328554  75.9966999  30.0057971  61.3671646  73.4271213  32.1188304
  60.5167399  72.5372055  32.1910439  62.4299100  73.3336773  31.3483464
  63.0211284  74.1372379  31.1907064  62.8233051  72.0431646  30.7403370
  61.9267435  71.4571905  30.5380729  63.5816363  72.2354262  29.4380623
  64.5919626  72.5349555  29.7166698  63.6125984  71.2574398  28.9577667
  63.0038839  73.2469258  28.4809209  62.0609748  72.8365756  28.1194849
  62.8321218  74.2403494  28.8952992  63.9450440  73.3670287  27.3281074
  64.1505786  72.3908714  26.6257047  64.6123826  74.5275821  27.1761967
  65.2561271  74.6393296  26.4059974  64.4658677  75.2805582  27.8332065
  63.7512448  71.2837184  31.6123022  64.1259690  70.1559702  31.2755771
  64.2376756  71.8889446  32.6834475  64.1914659  72.8866256  32.8337696
  65.1397181  71.0912201  33.5428385  65.3081917  70.1153060  33.0875282
  66.4928465  71.7900787  33.7183330  66.3146826  72.7773735  34.1444852
  67.0950319  71.1999944  34.4091827  67.2460459  71.9370367  32.3735936
  67.7163182  70.9894932  32.1107133  66.5451926  72.2240446  31.5896719
  68.2930578  72.9892189  32.5132953  67.8173483  73.9410660  32.7494874
  68.9742044  72.7143274  33.3186358  69.0647292  73.1440445  31.2785008
  68.7683334  73.8465289  30.6161077  70.1354199  72.4015545  30.9838793
  70.7739504  72.5850906  29.8512768  70.4532139  73.2897904  29.2027197
  71.5828583  72.0207081  29.6339292  70.5700425  71.4664483  31.8225601
  70.0869640  71.3117793  32.6959516  71.3813798  70.9148589  31.5826024
  64.5443028  70.5569158  34.8395256  65.2268109  69.9591947  35.6297701
  63.2593107  70.7865817  35.0544460  62.7338015  71.3420686  34.3946174
  62.5600330  70.2878788  36.2739895  63.2888412  70.0375380  37.0448769
  61.6233874  71.3617848  36.8189316  60.8912227  71.5888179  36.0440187
  61.1143612  70.9455621  37.6882710  62.3572035  72.6507819  37.2236221
  62.8772942  73.0599497  36.3574880  61.3742866  73.6450842  37.7258884
  60.8540899  73.2367830  38.5923666  61.8950632  74.5586860  38.0126361
  60.6515078  73.8703463  36.9417021  63.3830719  72.3879076  38.3266961
  64.1207562  71.6674488  37.9733402  63.8830713  73.3204606  38.5883193
  62.8776849  71.9881649  39.2058370  61.7821875  69.0013901  35.9181469
  60.6938911  69.0512328  35.2899490  62.3703499  67.8656339  36.1968151
  63.7442233  67.5659046  36.6433388  63.7980929  67.5790373  37.7319277
  64.4410069  68.2988861  36.2367311  63.9625274  66.1677753  36.0609964
  64.6191762  65.6088275  36.7276964  64.4351192  66.2646392  35.0835631
  62.5863640  65.4997067  35.9402135  62.4546314  64.9204700  36.8541229
  62.4507915  64.8495748  35.0758940  61.5739914  66.6386652  35.8981619
  61.0497297  66.7779167  34.9527218  60.5853794  66.3817778  36.9793003
  60.7643842  66.7840242  38.1431895  59.5653950  65.6325690  36.6173790
  59.4203195  65.3787094  35.6506279  58.6144208  65.1784704  37.5894204
  58.4015343  65.9481729  38.3312672  57.3477621  64.8639050  36.8474175
  57.5808695  64.1039470  36.1016132  56.6345180  64.4602501  37.5660590
  56.7531651  66.0578049  36.1727002  57.4653873  66.3750706  35.4110028
  55.8341122  65.7217722  35.6925690  56.3825884  67.4477925  37.2508255
  54.7802946  66.9909739  38.0014975  54.8897490  66.0568455  38.5524266
  54.4600736  67.7788823  38.6832302  54.0339913  66.8643307  37.2172180
  59.1345468  63.9633741  38.3197236  59.9612272  63.2410520  37.7821593
  58.6061732  63.6948934  39.5129882  58.0238617  64.3955427  39.9489966
  58.8254078  62.4435420  40.2199916  59.8878386  62.2059215  40.1663592
  58.5380993  62.5881667  41.2614506  58.0346674  61.2913742  39.6475443
  57.3189556  61.4560764  38.6800398  58.2086619  60.1030273  40.2223631
  58.7712949  60.0458887  41.0591896  57.6424304  58.8704125  39.6838127
  56.9320668  59.0809643  38.8843438  58.7495663  57.9403847  39.1297546
  59.4636858  57.7131620  39.9212741  58.3006123  57.0147881  38.7694610
  59.2648585  58.4375965  38.3079555  56.8643819  58.1604985  40.8235688
  57.4430426  57.7992019  41.8830495  55.5470829  58.0066577  40.6188704
  55.0632965  58.4848937  39.8723181  54.7651182  57.2632233  41.5732888
  55.4074002  56.5252677  42.0539077  54.1252179  58.1680934  42.6818080
  54.9155933  58.6847788  43.2262730  53.2771547  59.1042892  42.0958853
  52.4861965  58.5883203  41.5515857  52.8352977  59.7303590  42.8710624
  53.8451786  59.7280677  41.4057036  53.3162479  57.3419285  43.6866582
  53.9696446  56.6158992  44.1704518  52.8878103  58.0030317  44.4399732
  52.5148582  56.8181678  43.1655536  53.7189973  56.3909662  40.8600087
  53.1129967  56.7938106  39.8699276  53.5123261  55.2000789  41.3994701
  54.1524253  54.7848203  42.0612349  52.3366114  54.4793464  41.0561545
  51.8938267  55.1065633  40.2824362  52.6355032  53.1277482  40.4910598
  53.1085736  52.5118223  41.2558736  51.3625533  52.4765030  40.0425500
  50.8891102  53.0916596  39.2773476  51.5831022  51.4915389  39.6310836
  50.6882297  52.3719446  40.8925232  53.4287077  53.2255972  39.2157316
  52.7297653  53.3358838  38.3866253  54.0632682  54.1098330  39.2753929
  54.3028561  51.9827547  38.9864436  53.6689132  51.0981148  38.9262058
  54.8581766  52.0952527  38.0552817  55.0024149  51.8720628  39.8149752
  51.6229144  54.3524406  42.3634710  52.2091395  53.8948674  43.3760623
  50.3950731  54.8743348  42.3765465  50.0397056  55.3804086  41.5779837
  49.5648095  54.7822451  43.5526455  50.1835391  54.6437243  44.4392597
  48.7685056  56.0499470  43.7148497  49.4343155  56.8847663  43.4960504
  47.9629001  56.0264032  42.9809931  48.1870463  56.2202424  45.0921563
  47.6588112  55.3093206  45.3737410  48.9934509  56.4060537  45.8015840
  47.2005663  57.4146120  45.1077950  47.5145927  58.1340360  44.3515441
  46.2042075  57.0450062  44.8653904  47.1725991  58.0900726  46.4680247
  47.3408442  57.3581614  47.2580249  47.9375392  58.8646904  46.5221836
  45.8546210  58.6952319  46.6382508  45.1456939  57.9775622  46.5885285
  45.8079136  59.1529046  47.5373916  45.6986961  59.3737774  45.9065661
  48.6699014  53.5042629  43.3489377  48.0943313  53.3041674  42.2736373
  48.6675992  52.6145604  44.3463674  49.0805878  52.8796605  45.2291254
  48.0197351  51.2770603  44.2430633  47.5069593  51.1854494  43.2855834
  49.0702362  50.1723123  44.3419027  49.5854620  50.1716348  45.3024448
  48.6538214  49.1828888  44.1528528  50.3207392  50.4212065  43.1144114
  51.0487982  49.3568186  43.4398448  47.0928022  51.1018199  45.4191883
  47.5191024  51.2624179  46.5686536  45.8322344  50.7939031  45.1620480
  45.4694292  50.7436819  44.2207991  44.9090493  50.5659878  46.2745703
  45.4195791  50.7573321  47.2184166  43.7086055  51.4859859  46.1781163
  43.5774189  51.7533131  45.1295814  42.8357837  50.9317094  46.5231664
  43.8663874  52.7552595  47.0103996  42.9304052  53.3093054  47.0816134
  44.2357845  52.5367394  48.0123461  45.0910551  53.7638767  46.1299824
  45.9007076  54.6988162  47.4124827  46.3696500  54.0152405  48.1202371
  46.6620130  55.3407958  46.9693383  45.1664875  55.3132000  47.9335917
  44.4537420  49.1172683  46.2998316  43.9276034  48.6111728  45.3156714
  44.6732602  48.4512428  47.4169917  45.1177735  48.8802141  48.2160479
  44.2950760  47.0416002  47.5078582  44.0810675  46.6379334  46.5182357
  45.4571330  46.2539663  48.1163475  46.3818850  46.7204601  47.7767647
  45.3817764  46.3444244  49.1999704  45.4601185  44.7387304  47.7180946
  46.2617899  44.2888257  48.3037649  44.5002462  44.3499312  48.0580686
  45.6867300  44.3201115  45.9892706  47.4367342  44.4322319  45.7806741
  47.9289220  43.7271660  46.4505489  47.6961931  44.1941806  44.7491154
  47.7667790  45.4446544  46.0134236  43.0476740  46.9504504  48.3648699
  43.0656695  47.3727770  49.4913055  41.9476754  46.4237136  47.8416105
  41.9235191  46.1502753  46.8696293  40.7178958  46.3061007  48.6262194
  40.7506427  46.9968758  49.4687492  39.5002507  46.6406918  47.7680340
  39.5989505  46.0262471  46.8731511  38.5549201  46.4142585  48.2611649
  39.5284365  48.0646533  47.3911744  40.2906527  48.4902725  46.3351072
  40.8492386  47.7634907  45.7453025  40.3533348  49.8327048  46.0164970
  40.9199296  50.1728988  45.1496982  39.6671002  50.7371086  46.7847782
  39.7892896  52.0522140  46.4766621  40.3655451  52.2094271  45.7251215
  38.9132585  50.3513977  47.8390564  38.3530120  51.0728347  48.4338278
  38.8634799  49.0158147  48.1539808  38.2925178  48.6809830  49.0200005
  40.5874012  44.9532169  49.2349645  40.9115107  43.9694618  48.6012003
  40.1186423  44.8869846  50.4677087  39.9473116  45.7384090  50.9832876
  39.8247560  43.5928058  51.1298378  39.9028151  42.7741881  50.4143862
  40.8284084  43.3593833  52.2459515  40.7655648  44.2369540  52.8893951
  40.5541330  42.4714568  52.8155650  42.2226723  43.2135673  51.7400022
  43.1069024  44.2891618  51.7931305  42.7718062  45.2338398  52.2213753
  44.4300048  44.1648419  51.2977626  45.1109791  45.0131720  51.3664048
  44.8608049  42.9807826  50.7504702  46.1674224  42.8970266  50.3064131
  46.6594082  43.7116685  50.4325407  43.9816447  41.8891350  50.6312692
  44.3038324  40.9648803  50.1516351  42.6642334  42.0002894  51.1429859
  41.9819407  41.1525474  51.0804532  38.4172617  43.6226897  51.7199520
  37.8136006  44.7132879  51.7800677  37.8752051  42.4609367  52.1470663
  38.3874960  41.5983543  52.0304084  36.5535606  42.4098516  52.8292013
  35.8103770  42.9121264  52.2099297  36.0950037  40.9617787  53.0700155
  37.0038542  40.3698035  53.1779760  35.5521351  40.9687422  54.0151849
  35.2051976  40.3423163  51.9702571  34.4148766  41.0518829  51.7252902
  35.8200533  40.1651684  51.0878325  34.5606378  38.9795688  52.4450296
  34.5977917  38.2856120  51.6053020  35.1690565  38.5927825  53.2625395
  33.0863143  39.1359752  52.9242523  32.5189375  39.5834835  52.1082128
  32.6983532  38.1387081  53.1317218  32.9532310  39.9949249  54.1600659
  33.3122739  40.9191871  53.9679011  31.9799059  40.0595489  54.4219093
  33.4785543  39.5802034  54.9164656  36.6348208  43.0574582  54.1839055
  35.7380154  43.7741902  54.6156198  37.7257322  42.7634174  54.8710142
  38.4829747  42.2669605  54.4235619  37.8678290  43.1178583  56.2675006
  37.1084178  43.8493766  56.5436796  37.6962367  41.8710610  57.1555083
  38.0864299  41.0087915  56.6148238  38.2732799  42.0183763  58.0684264
  36.2044586  41.6225802  57.5198453  35.9924888  42.1351498  58.4581641
  35.6287450  42.0828935  56.7168729  35.8092300  40.1244674  57.6473655
  36.3175420  39.4303115  58.5894719  34.9616675  39.6686879  56.8165316
  39.2339637  43.7047729  56.4080183  40.1595547  43.2484087  55.7638140
  39.3344503  44.7539766  57.2143502  38.4824634  45.1467185  57.5884779
  40.5968248  45.3709373  57.5824751  41.2288676  45.5616447  56.7151506
  40.3077086  46.6618950  58.2508807  39.6830719  46.4862843  59.1267174
  41.2427817  47.1290622  58.5599005  39.7843553  47.3210482  57.5582643
  41.3714742  44.4581711  58.5263020  41.5676288  44.7664278  59.7106804
  41.8219897  43.3278624  57.9897416  41.6259251  43.1229403  57.0203785
  42.5039185  42.3089939  58.7905469  41.8411167  41.9687019  59.5861564
  42.8990095  41.0994604  57.9298253  43.3625769  40.3039561  58.5132439
  41.9975662  40.7189939  57.4494657  43.8718642  41.4449507  56.8162795
  43.4137997  41.7338858  55.5282176  42.3472943  41.6823644  55.3091021
  44.3082875  42.0843039  54.5328384  43.9391162  42.3079157  53.5319333
  45.6818502  42.1527551  54.8048570  46.3898629  42.4123257  54.0178112
  46.1342948  41.8889297  56.0783958  47.2000132  41.9580673  56.2964881
  45.2528496  41.5409417  57.0694178  45.6179586  41.3327851  58.0751345
  43.7177930  42.9090228  59.5282487  44.1651288  42.3863201  60.5445689
  44.2677844  43.9987526  59.0346837  43.9357928  44.4465525  58.1924509
  45.4713404  44.5591628  59.7033355  46.1946319  43.7573154  59.8516232
  46.1403124  45.6810465  58.8797255  46.7798414  46.2701039  59.5370786
  46.7341188  45.2835143  58.0566446  45.1409743  46.6453715  58.2679448
  44.7389108  47.8552510  58.7733620  45.1908115  48.1788434  59.7110045
  43.8030337  48.4216051  57.9374857  43.3637023  49.3201687  58.0777383
  43.5778000  47.5810893  56.8755026  42.7233652  47.7324327  55.7526712
  42.1402325  48.6494222  55.6679055  42.6834092  46.7125948  54.8400392
  42.0295549  46.7902127  53.9713908  43.4692922  45.5633493  54.9982184
  43.4331894  44.7514063  54.2718956  44.3414736  45.4222324  56.1169907
  44.9231209  44.5045021  56.2039291  44.3997496  46.4482480  57.0553173
  45.1155489  45.0726361  61.0669306  45.8962799  44.9698509  61.9888744
  43.9289174  45.6520575  61.1626945  43.4284770  45.8596681  60.3103117
  43.3846214  46.1224204  62.4015838  44.0805055  46.8184854  62.8699191
  42.0630658  46.8408466  62.1650239  41.4811632  46.2677514  61.4431856
  41.5215866  46.8908514  63.1096930  42.2843476  48.2419890  61.6357759
  42.8557798  48.7959519  62.3805518  42.8645918  48.1658901  60.7161957
  40.9975945  48.9611794  61.3567048  40.3673576  48.3545241  60.7064205
  40.4721430  49.1570286  62.2913937  41.3157468  50.2820509  60.6668869
  41.8754059  50.8932954  61.3748858  41.9446040  50.0570210  59.8054931
  40.1063254  51.0254860  60.2174104  39.5236871  51.2344782  61.0155048
  40.3872149  51.8867570  59.7708531  39.5878168  50.4594372  59.5610289
  43.2833797  44.9914698  63.4234135  43.7254022  45.1944110  64.5625412
  42.7973297  43.7915885  63.0345777  42.4327065  43.6587550  62.1021054
  42.7662130  42.6390139  63.9749465  42.0655467  42.8950428  64.7696886
  42.3455509  41.2679153  63.3622825  43.2717502  40.8622225  62.9552599
  42.0369307  40.6745959  64.2229948  41.2476639  41.2185817  62.2856004
  41.7422992  41.4507938  61.3424597  40.8938016  40.1878146  62.2655371
  40.0469799  42.1713872  62.4855796  39.4400562  41.8140787  63.3174889
  40.4164596  43.1720933  62.7095695  39.1785923  42.2158922  61.1902463
  38.1282859  42.2261392  61.4815399  39.4143756  43.1330559  60.6505091
  39.4484405  40.9955920  60.2761269  39.2296113  40.1456421  60.7759256
  38.8701870  41.0590468  59.4504779  40.4215308  40.9861504  60.0057470
  44.1175514  42.4298158  64.5865073  44.2108433  42.2520409  65.7881669
  45.1666351  42.4143075  63.7678737  45.0199106  42.4718723  62.7702477
  46.5559270  42.2650022  64.2671030  46.5952663  41.4972870  65.0398674
  47.4751866  41.8551094  63.1279267  47.3713370  42.6239417  62.3622823
  48.4876009  41.8789862  63.5310983  47.2065115  40.4910765  62.5151437
  46.7107084  39.8587913  63.2516866  46.5603850  40.6100195  61.6453878
  48.5638660  39.8184065  62.0735253  48.3725125  38.7609908  61.8908920
  48.8901853  40.2931672  61.1482051  49.6856292  39.9664426  63.1608255
  49.4782773  40.8967267  63.6896708  49.5627283  39.1257686  63.8436592
  51.1103165  39.9889059  62.6378318  51.2245284  40.7680753  62.0054155
  51.7516024  40.0867972  63.4119570  51.3027951  39.1267925  62.1481262
  47.1318452  43.5354494  64.9280456  48.3300020  43.6029040  65.2298603
  46.2892401  44.5586675  65.0932311  45.3771006  44.5095750  64.6623124
  46.6743912  45.8037105  65.7656860  45.8222253  46.4830136  65.7871319
  47.1263962  45.5394142  67.2061067  46.4542950  44.7984493  67.6389465
  48.1381572  45.1353572  67.1717895  47.1118989  46.7983537  68.0617803
  46.0831519  47.5509808  68.0331806  48.1400321  47.0248623  68.7620152
  47.7172358  46.5840974  64.9915152  48.6461922  47.1454983  65.5460790
  47.5482853  46.5958018  63.6846588  46.8347667  45.9939448  63.2989663
  48.2860754  47.4714107  62.7715619  49.0891422  47.9872141  63.2979931
  48.8996307  46.6173120  61.6600067  48.0683413  46.1489643  61.1330269
  49.3954718  47.3268989  60.9976413  49.8864101  45.5549155  62.0895286
  49.7931092  44.2750898  61.5992977  48.9924087  44.0145472  60.9071304
  50.7198628  43.3114842  61.9857121  50.6442926  42.2969901  61.5943138
  51.7481142  43.6428971  62.8891713  52.6514259  42.6937220  63.2680864
  52.4918898  41.8397675  62.8595406  51.8629955  44.8973345  63.3841692
  52.6549297  45.1741097  64.0801120  50.9300339  45.8469610  62.9782601
  50.9930264  46.8682040  63.3540189  47.2705181  48.4366999  62.1321948
  46.1128676  48.0531819  61.8995187  47.6694434  49.6688960  61.8194623
  48.6160727  49.9719172  61.9988237  46.7158331  50.6467232  61.2534053
  45.7139247  50.3886668  61.5964587  47.0176515  52.0976080  61.6647553
  46.3787918  52.7891127  61.1154114  46.8595223  52.2299072  62.7350787
  48.6799578  52.6089896  61.3479294  48.5369420  53.8452070  61.8171961
  46.6934737  50.5624827  59.7534798  45.7103495  50.9956129  59.1085618
  47.7652231  50.0036442  59.1944854  48.5575515  49.7654447  59.7737747
  47.8435894  49.7144655  57.7447556  48.1235651  48.6750749  57.5733496
  46.8894514  49.9180903  57.2586929  48.9052761  50.6168611  57.1455273
  49.1231661  50.6584116  55.9279381  49.5461258  51.3719076  58.0340071
  49.2127801  51.4182493  58.9862846  50.6471199  52.1912514  57.6649424
  50.5903936  52.4363173  56.6043652  50.6274979  53.4558610  58.4464702
  49.7999887  54.1238221  58.2073979  50.6854550  53.3222369  59.5266950
  52.0996126  54.3131055  57.9792882  51.8971777  55.3718196  58.7584176
  51.9568319  51.3963708  57.8571464  52.4109422  51.1233855  58.9917092
  52.5336996  51.0012443  56.7196207  52.0640013  51.2460363  55.8596441
  53.7728583  50.2354454  56.6372095  54.0865349  49.9221559  57.6329785
  53.5572766  48.9847488  55.7749250  53.3822079  49.3231001  54.7536667
  54.4792223  48.4044453  55.8118573  52.3867247  48.1112185  56.2300799
  52.6466028  47.6764418  57.1952397  51.5127959  48.7525071  56.3445329
  52.0032334  46.7904196  55.0705025  50.5509945  47.5019881  54.3246325
  50.8098978  48.4528761  53.8589285  50.1602363  46.8218246  53.5678060
  49.7927466  47.6673960  55.0900093  54.8263727  51.1379458  56.0266585
  54.6049784  51.7213601  55.0030872  55.9593083  51.2896719  56.6867684
  56.0678365  50.8971142  57.6110084  57.0865049  52.0166473  56.1059315
  56.7515564  52.6664858  55.2974647  57.7864977  52.8476059  57.1653629
  57.9922802  52.2194319  58.0320528  59.0514021  53.3872987  56.6393691
  58.8463728  54.0159961  55.7728801  59.5422355  53.9810903  57.4104689
  59.7033329  52.5649110  56.3448120  56.8616182  53.9617871  57.6084794
  56.7018928  54.5954045  56.7360588  55.9210861  53.4882943  57.8900879
  57.3764963  54.8244344  58.7844156  58.3168313  55.2986514  58.5033672
  56.6400122  55.5919296  59.0224103  57.5360268  54.1915402  59.6573960
  58.0015145  50.9405132  55.5681947  58.6176630  50.2108298  56.3315440
  58.0435845  50.7698935  54.2540391  57.5749064  51.3970833  53.6160162
  58.6651081  49.5642946  53.7093155  58.8840469  48.8675232  54.5184352
  57.7144858  48.9074889  52.7176676  57.4143501  49.6439560  51.9722582
  58.3944718  47.7354394  52.0267538  58.6944997  46.9982876  52.7715297
  57.7014471  47.2770694  51.3212650  59.2754638  48.0898348  51.4916312
  56.4991810  48.4171792  53.4740701  56.8441211  47.7312526  54.2477766
  56.0270111  49.2820050  53.9401511  55.5321766  47.7378745  52.6182140
  56.0035202  46.8726085  52.1521133  54.6831963  47.4094765  53.2177858
  55.1864118  48.4233608  51.8444859  60.0485897  49.8180052  53.1123101
  60.1919708  50.3064995  52.0086321  61.0641583  49.4452033  53.8613716
  60.8759578  48.8922127  54.6853142  62.4381478  49.8285949  53.5885109
  62.4821245  50.5933057  52.8130223  63.0288612  50.3903947  54.8509734
  62.4494190  51.2691638  55.1340120  62.9439982  49.6333228  55.6305505
  64.4584270  50.7717565  54.6834415  65.0084680  49.8558740  54.4673053
  64.5648123  51.4644473  53.8485997  65.0099475  51.4050945  55.9345814
  66.2422315  51.6323995  55.9955388  64.2013023  51.6334661  56.8586124
  63.1292127  48.5723643  53.0995497  63.7650988  47.8531280  53.8518408
  62.9897396  48.3106027  51.8174603  62.5824412  48.9409994  51.1415851
  63.6089799  47.1149315  51.3409807  64.5494297  46.8526469  51.8256043
  62.5511718  46.1226944  51.7697436  62.1572340  46.4856146  52.7190597
  61.7467235  46.0805547  51.0354499  63.1358501  44.7292565  51.9624296
  63.4551767  44.3648143  53.1676393  63.3167817  44.0379214  50.9082472
  63.6118336  47.1996475  49.8482677  62.5384732  47.2949918  49.2334684
  64.8101534  47.1475511  49.2686735  65.6344435  47.1150731  49.8514173
  64.9871402  47.3114838  47.8238497  64.6471956  48.3055193  47.5332810
  66.4547662  47.1536949  47.4059722  67.0323182  46.8082337  48.2634041
  66.5181090  46.4168875  46.6052209  67.0255314  48.5041770  46.9102495
  66.8591982  49.2323403  47.7041087  68.0960636  48.3946384  46.7368679
  66.3330742  48.9971625  45.5978054  65.4954994  49.9553976  45.6823627
  66.6172717  48.4049040  44.5026841  64.0860380  46.4623610  46.9376668
  63.5821969  46.9434889  45.9479678  63.8214454  45.2315799  47.3076596
  64.1967298  44.8255040  48.1528598  63.1192023  44.3743477  46.3939218
  63.1946993  44.7664473  45.3796943  63.7301218  42.9677649  46.4223501
  63.6143274  42.5897285  47.4381154  63.1826302  42.3262337  45.7318497
  65.2510294  42.9728386  46.0367655  66.0869049  42.7672669  46.9585825
  65.6134702  43.2056031  44.8267480  61.6143084  44.3855375  46.6012647
  60.8749438  43.7829549  45.8327290  61.1390499  45.1181812  47.5965977
  61.7675768  45.5546206  48.2558198  59.6873878  45.2862904  47.7978842
  59.1840332  44.3295550  47.6586334  59.4045919  45.7805620  49.1927831
  59.8945788  46.7423571  49.3443190  58.3290560  45.8962073  49.3267568
  59.7852603  45.0612147  49.9178556  59.1196879  46.2560425  46.7809925
  59.7310467  47.2988005  46.5408632  57.9777032  45.8916327  46.1367493
  57.3186665  44.5707554  46.1540927  57.4204730  44.1195935  47.1411027
  57.7755117  43.9197451  45.4087223  55.9143633  44.9078349  45.8248209
  55.3655109  45.1260525  46.7409220  55.4461983  44.0670741  45.3129184
  55.9836257  46.1026069  44.9333528  55.1350038  46.7483822  45.1589944
  55.9713200  45.8439995  43.8745467  57.2843194  46.8169827  45.2788732
  57.9044573  46.9983981  44.4010260  56.9980701  48.1352236  45.9768153
  57.4044196  49.1658795  45.4908188  56.3384758  48.1226243  47.1208165
  56.2326500  47.2607673  47.6366680  55.7189391  49.3399353  47.6633312
  55.4908729  50.0547239  46.8726592  54.4076666  48.9535550  48.4068549
  54.6208181  48.1383498  49.0983080  53.8799787  50.0971357  49.1499105
  53.6661367  50.9126375  48.4590205  52.9631693  49.8061858  49.6626575
  54.6167350  50.4262165  49.8827101  53.3617050  48.4488985  47.4127426
  53.8213715  47.6993380  46.7685636  52.5394038  47.9961162  47.9667358
  52.8206014  49.6126220  46.5455497  53.6423120  50.0656324  45.9908668
  52.0778159  49.2299339  45.8456078  52.3603460  50.3624122  47.1890398
  56.7315042  49.9745454  48.5934613  57.5508507  49.2489122  49.0802691
  56.7135594  51.3031592  48.8049806  56.0707449  51.8888600  48.2913237
  57.5937957  51.9331789  49.7796192  58.3884182  51.2327103  50.0365591
  58.2253495  53.2147254  49.2587245  57.5274379  54.0377882  49.4123027
  59.1415138  53.4069053  49.8171238  58.5246025  53.1050431  47.8946338
  58.9215239  53.9233389  47.5873142  56.8855686  52.3099127  51.0020708
  57.4681946  52.3199413  52.0728146  55.6274013  52.6777092  50.8643577
  55.1503529  52.5850019  49.9789597  54.8911164  53.2374337  51.9905846
  55.1333453  52.7462259  52.9329960  55.1506657  54.7556512  52.1197119
  56.2270784  54.9139457  52.1858851  54.5864061  55.5434256  50.9101799
  53.5098917  55.3859835  50.8436263  54.7902490  56.6061695  51.0410394
  55.0616634  55.1929590  49.9939906  54.5942290  55.2952449  53.4336258
  54.0312258  56.1876717  53.1603081  53.9070791  54.5275945  53.7894873
  55.6090032  55.6472073  54.5625003  56.2962417  56.4151830  54.2075124
  55.0695412  56.0178880  55.4340942  56.1720968  54.7551056  54.8366901
  53.4217340  52.9801858  51.7409350  53.0075858  52.9393212  50.6161322
  52.6513180  52.7866801  52.7866997  53.0236496  52.8355562  53.7242921
  51.2225298  52.5733648  52.6227066  50.9003336  52.9061823  51.6360348
  50.8553716  51.0586598  52.7848352  49.8054273  50.9415922  52.5164842
  51.7212307  50.1274346  51.8996411  52.7713358  50.2436126  52.1677485
  51.4191161  49.0919679  52.0565954  51.5832610  50.3906533  50.8509367
  51.0389518  50.7194028  54.1685375  50.8215631  49.7940112  54.3026749
  50.4450166  53.3100245  53.7404976  51.0446279  53.6870230  54.7644915
  49.1184336  53.4179522  53.5654141  48.7410257  53.1195464  52.6773732
  48.1773782  53.8317631  54.6206464  48.6435488  53.6910635  55.5958325
  47.7876639  55.2971688  54.4742601  47.4805130  55.4853579  53.4455024
  46.9453004  55.4751386  55.1427289  48.9531277  56.2488160  54.8475145
  49.8630793  55.9737752  54.3141839  48.5344505  57.6287512  54.4414477
  47.6247564  57.9046938  54.9747499  49.3269606  58.3361048  54.6857412
  48.3465820  57.6508855  53.3679879  49.1456411  56.1645255  56.3928159
  49.3849164  55.1390352  56.6742701  49.9602018  56.8230128  56.6944557
  48.2265495  56.4725308  56.8913161  46.9054227  53.0813184  54.4261828
  46.5510854  52.7827782  53.2999835  46.1995580  52.8460593  55.5218552
  46.6376707  52.8938458  56.4306308  44.8153507  52.4098079  55.4463835
  44.7690469  51.4660529  54.9029852  44.2020988  52.2061992  56.8325764
  44.6637863  51.3398488  57.3062651  44.4275081  53.1004709  57.4135831
  42.7213900  52.0111021  56.7732607  42.0313498  53.0106990  56.9468110
  42.2265663  50.8927351  56.5312325  43.9947974  53.3693873  54.6198483
  44.1786947  54.5621298  54.6831895  43.1202478  52.8085707  53.7986002
  43.1333404  51.8069674  53.6692991  42.3004723  53.6004712  52.9171362
  42.1874170  54.6014107  53.3335948  42.9243913  53.7181102  51.5211233
  43.9744744  53.9405108  51.7107617  42.8468499  52.7927411  50.9503525
  42.2971547  54.8626425  50.7236929  42.4060029  56.0597097  51.1571582
  41.6039070  54.5524243  49.7024572  40.8365587  53.1340443  52.9463418
  40.0661405  53.3023018  52.0245381  40.4529448  52.6409841  54.0958382
  41.1567633  52.5442445  54.8137382  39.1211613  52.2503865  54.4010521
  38.7127503  51.5645967  53.6587638  39.1110492  51.5657105  55.7483406
  39.5353617  52.2566328  56.4768223  37.6493738  51.1384168  56.2116161
  37.2245652  50.4470840  55.4838138  37.7040550  50.6517159  57.1853877
  37.0171551  52.0234345  56.2833362  39.9483667  50.4214420  55.6758475
  39.9531189  49.9740886  56.5252311  38.2641104  53.4854789  54.4525070
  38.7355062  54.5314183  54.8417506  37.0068776  53.3370318  54.0578956
  36.6789184  52.4315289  53.7535822  36.1165980  54.4107041  54.0180846
  36.5283792  55.2395719  53.4423124  34.8480762  53.9392541  53.3461870
  34.5701504  52.9833637  53.7901804  34.0691321  54.6740243  53.5498012
  35.0033367  53.7761131  51.8751556  35.8269358  53.0951899  51.6603792
  34.0835272  53.3801048  51.4447723  35.2941804  55.1071881  51.2823333
  34.5287971  55.8156041  51.5992466  36.2698607  55.4482161  51.6285231
  35.2997700  55.0131203  49.7694744  34.4621462  54.4070521  49.4242668
  35.2345814  56.0074079  49.3276126  36.5426478  54.3891511  49.3708362
  36.6030536  53.4676402  49.7798210  36.5736034  54.3134122  48.3641558
  37.3189292  54.9508123  49.6902462  35.8461187  54.9020369  55.4229668
  35.9252125  54.1251662  56.3648119  35.4534630  56.1668326  55.5747448
  35.0339271  57.1211315  54.5562223  34.0485961  56.8421233  54.1828893
  35.7496152  57.1110265  53.7341594  35.0229269  58.4330082  55.2905433
  34.2203123  59.0545821  54.8936117  35.9790676  58.9333139  55.1369508
  34.8154953  58.1328169  56.6935499  33.7456294  58.1784393  56.8970310
  35.3399710  58.8248035  57.3524728  35.3246987  56.7160107  56.9171788
  36.3055994  56.6751237  57.3907403  34.3156976  55.9534284  57.7718332
  34.4267803  56.0051805  58.9796463  33.3515866  55.2453101  57.1777832
  33.2851711  55.1691660  56.1728502  32.3575390  54.5552271  57.9902564
  32.2647055  55.0430833  58.9605540  31.0043679  54.5887810  57.2981984
  30.2648653  54.2739364  58.0344782  30.7936903  55.6119496  56.9870053
  30.9388872  53.6584842  56.0768029  29.8088543  53.4285320  55.5717873
  31.9987046  53.1432368  55.6395190  32.7516164  53.1216181  58.2023232
  31.9154352  52.3224421  58.6186362  33.9963441  52.7750318  57.8966814
  34.6204943  53.4471755  57.4738828  34.5007394  51.4304166  58.1565090
  35.5441076  51.5143486  58.4605443  33.9181812  51.0034208  58.9728422
  34.4103412  50.5178151  56.9594443  35.0675888  49.5017939  56.9110655
  33.6260967  50.9056914  55.9564775  33.1541821  51.7976380  55.9992239
  33.3888118  50.0531668  54.7982470  33.3213580  49.0055363  55.0915379
  32.0891151  50.4612769  54.1809298  31.7973819  49.7478713  53.4101877
  31.3100802  50.5124004  54.9415816  32.2622034  51.7264325  53.6043956
  31.4384339  52.0096113  53.2008941  34.4965436  50.1014565  53.7237009
  35.3442509  50.9914240  53.7131527  34.4577183  49.1233509  52.8255651
  33.7516553  48.4103591  52.9405307  35.4502640  48.9473456  51.7796185
  35.4329215  47.9094017  51.4472468  35.1884510  49.8508232  50.5741877
  35.4325040  50.8444742  50.9499471  35.8599444  49.5982209  49.7535851
  33.7525202  49.8364687  50.0761056  33.0808656  49.7486027  50.9300730
  33.4432171  51.1123609  49.3199655  34.1142102  51.2006981  48.4655278
  32.4113122  51.0867311  48.9697997  33.5812830  51.9689103  49.9797846
  33.4494072  48.5978215  49.2265918  33.6106118  47.6995318  49.8225683
  32.4122989  48.6304722  48.8927633  34.1093790  48.5810693  48.3592651
  36.8950755  49.0963919  52.2478971  37.5729752  49.9568561  51.8004920
  37.3542917  48.2002297  53.1123755  36.6122872  47.0186330  53.5839989
  36.6881536  46.2131337  52.8535776  35.5632636  47.2721650  53.7368718
  37.2907526  46.7107287  54.8221450  37.1496642  45.6596364  55.0739345
  36.8988681  47.3324170  55.6271490  38.7102574  47.0168443  54.5639391
  39.0980778  46.1565384  54.0184410  39.3389974  47.2086458  55.4334204
  38.6915116  48.2398095  53.6563254  38.8515547  49.1890574  54.1676110
  39.7103705  48.0975456  52.5069131  39.4435952  47.4229657  51.5177833
  40.8316918  48.7961132  52.6511758  41.0117276  49.1667502  53.5733008
  41.8276442  49.0196087  51.6096492  42.0402643  48.1084105  51.0505341
  41.4151100  50.0762855  50.6544966  41.2075336  50.9976849  51.1985878
  42.2167904  50.2513542  49.9370290  40.5173481  49.7576163  50.1248055
  43.0600025  49.4872117  52.2517072  42.9959718  50.1948882  53.2880811
  44.1813981  49.0884672  51.6232997  44.0786247  48.3264721  50.9683947
  45.5387537  49.6643459  51.8286952  45.5210034  50.3342621  52.6883442
  46.6014158  48.5690226  52.0527357  46.6309944  47.9280940  51.1715795
  47.9376990  49.1569589  52.2786632  47.9090240  49.7976963  53.1599883
  48.6646202  48.3596017  52.4332843  48.2268205  49.7480011  51.4096539
  46.2653992  47.6644108  53.2549467  45.2822608  47.2381086  53.0554318
  47.0110925  46.8694255  53.2612203  46.2518375  48.3634020  54.6211591
  45.5060082  49.1582667  54.6158041  46.0050197  47.6395108  55.3977940
  47.2348400  48.7895858  54.8215916  45.9235573  50.5091032  50.5598938
  45.7904343  50.0558201  49.4197347  46.3492629  51.7517528  50.7857498
  46.3389493  52.0851035  51.7390966  46.8778694  52.6217063  49.7622479
  46.4275966  52.4149153  48.7913766  46.5289770  54.0597061  50.1682523
  45.4416578  54.1052116  50.1068900  46.8368379  54.1318744  51.2113790
  47.1509234  55.2556621  49.3537457  46.8838079  55.0101388  48.3258992
  46.5589615  56.1073418  49.6888947  48.9308535  55.6926072  49.4262228
  49.0922462  56.4766872  51.0193380  48.8027010  55.7747445  51.8013477
  50.1274349  56.7823145  51.1712491  48.4454090  57.3530360  51.0607576
  48.3948403  52.4130825  49.8114356  48.9957081  52.4981443  50.8627307
  49.0352241  52.0991269  48.6919655  48.5518031  51.8911904  47.8298947
  50.5152137  52.0490680  48.6966272  50.8884735  52.5161416  49.6080100
  50.8404854  51.0092970  48.6623624  51.0734375  52.7711318  47.5177243
  50.4159071  52.8967461  46.4799556  52.2778124  53.3042917  47.6985434
  52.7619824  53.1452316  48.5705404  52.9757495  53.9628136  46.6511077
  52.2910976  54.2217421  45.8434524  53.5982834  55.2367892  47.1852610
  54.1181263  55.0561703  48.1261326  54.3067871  55.6079146  46.4447285
  52.6398761  56.3280252  47.4358070  53.0396957  57.4660177  48.1337772
  54.0594593  57.5412079  48.5113066  52.1345608  58.5111484  48.3503033
  52.4448828  59.4141908  48.8759604  50.8541006  58.3921760  47.8968639
  50.1194085  59.1708070  48.1019522  50.5025806  57.3091898  47.1953651
  49.4886246  57.2659999  46.7977121  51.3705186  56.2750222  46.9704606
  51.0411782  55.3987381  46.4121049  54.1678273  53.1643903  46.2225173
  54.8670728  52.6316557  47.0382885  54.4307109  53.1908320  44.9349544
  53.7938294  53.7086320  44.3464270  55.6132284  52.6348086  44.3356921
  56.1376417  52.0297873  45.0753131  55.2514269  51.7673809  43.1335699
  54.6149252  52.3405289  42.4594279  56.4763130  51.3460187  42.4163022
  57.1131465  50.7723817  43.0897146  56.2027754  50.7279076  41.5611902
  57.0160093  52.2271363  42.0692303  54.4827558  50.4990571  43.5568684
  55.0672145  49.9720513  44.3110392  53.5249522  50.7973243  43.9831879
  54.2348408  49.5448328  42.3211127  55.1922690  49.2457530  41.8945186
  53.6910655  48.6588458  42.6488847  53.6500081  50.0710272  41.5666659
  56.2586530  53.9199009  43.8420009  55.6188964  54.7345119  43.1790556
  57.5178146  54.1066051  44.1817883  58.0981976  53.3081181  44.3955017
  58.1270480  55.4258875  44.2003766  57.4613436  56.1772410  43.7756357
  58.3961836  55.7832656  45.6723847  58.3498372  54.7792729  46.0942258
  59.4178744  56.1574167  45.7376438  57.4650813  56.7072549  46.4546374
  57.9081550  57.7003331  46.3799225  56.0472895  56.7644592  46.0195498
  55.6033778  55.7717690  46.0944319  55.4983480  57.4564920  46.6581848
  55.9973980  57.1071882  44.9860373  57.6155671  56.2996740  47.8999238
  58.6534847  56.4267450  48.2076241  56.9736739  56.9229798  48.5224704
  57.3283858  55.2545043  48.0150153  59.4521431  55.4014903  43.4855537
  60.1445477  54.3842734  43.5208621  59.8181685  56.5246257  42.8709861
  59.1330218  57.2516138  42.7221181  61.1543079  56.7193501  42.3396644
  61.1735973  57.6576950  41.7853756  62.1286868  56.8040552  43.4439071
  62.1274997  55.8682416  44.0027913  63.1242661  56.9828223  43.0377492
  61.8553156  57.6237810  44.1082995  61.5318206  55.6251089  41.3777069
  60.6884942  55.1862179  40.6153335  62.7983491  55.2220120  41.4009562
  63.4236487  55.7527182  41.9904057  63.3611865  54.1174517  40.5989776
  63.4727767  54.4351985  39.5623080  64.7608319  53.6988208  41.1453823
  65.0008409  54.4063704  41.9390249  64.6348000  52.7038348  41.5722533
  65.9316384  53.6736801  40.0936076  65.8236469  52.7844739  39.4725190
  65.8584475  54.5637746  39.4687262  67.3914597  53.6467106  40.8359285
  67.3872857  54.4474789  41.5754228  67.4730165  52.6851874  41.3428023
  68.5756844  53.8211857  39.9505703  69.1754045  53.0138034  39.8580011
  68.8995969  54.9448200  39.2763182  68.1332425  56.0407401  39.3391843
  67.2936730  56.0346110  39.9005981  68.3981511  56.8686562  38.8249102
  70.0045301  54.9887445  38.5278811  70.6014470  54.1763698  38.4659326
  70.2383260  55.8341423  38.0271408  62.4280093  52.9069851  40.5685358
  62.0867985  52.4319194  39.5077998  61.9948135  52.4498317  41.7424933
  62.4595848  52.7782836  42.5768831  61.0393615  51.3623751  41.8688997
  61.4320965  50.4679448  41.3853163  60.7767813  51.0446885  43.3518221
  60.8620899  51.9670698  43.9263083  59.7660950  50.6484264  43.4497485
  61.8055321  49.9928470  43.8963440  61.3850901  49.0119141  43.6747588
  62.7200740  50.1341249  43.3203615  62.1343527  50.0879310  45.4360689
  62.8640599  49.3192447  45.6905248  62.5540847  51.0711824  45.6485338
  60.8587995  49.8823491  46.2748926  60.4887833  50.8721771  46.5421548
  60.1314582  49.3839556  45.6340511  61.0645333  49.0734127  47.5196437
  61.7381500  49.5352819  48.1137961  60.1870984  48.9837995  48.0117590
  61.4069917  48.1560325  47.2721866  59.7552527  51.5322288  41.0476218
  59.2229492  50.5648607  40.5575178  59.2926772  52.7577999  40.8293705
  59.7308831  53.5601775  41.2586317  58.1148186  52.9744937  40.0047895
  57.3324392  52.2792536  40.3091295  57.5910592  54.4117869  40.1795754
  58.3602023  55.1194656  39.8702053  56.7011571  54.5518974  39.5659439
  57.3405073  54.5829469  41.2264886  58.4200442  52.7121274  38.5477153
  57.5947175  52.1617110  37.8082347  59.6008042  53.1457324  38.1187426
  60.2145840  53.6667972  38.7285499  59.9915038  52.9763543  36.7286340
  59.1836322  53.3143364  36.0796265  61.2639077  53.7975632  36.4036737
  62.0598823  53.4630267  37.0689624  61.5404234  53.5842323  35.3711384
  61.0516502  55.3347393  36.5783514  60.1491483  55.9431370  35.9076007
  61.7983161  55.9240997  37.3996969  60.1645198  51.4783435  36.4071530
  59.7109591  51.0289778  35.3535581  60.8318699  50.7652391  37.3311806
  61.1958770  51.3338084  38.0823978  61.0323038  49.3201519  37.3969313
  61.7270255  48.9741566  36.6315895  61.6385178  49.0227149  38.7835906
  62.4545242  49.7392889  38.8771559  60.8445117  49.2836505  39.4832812
  62.1606280  47.6030441  39.1032415  61.7913822  47.3162790  40.0878856
  61.7663960  46.9166605  38.3538679  63.7079709  47.5426026  39.0948743
  64.0051130  46.7083032  39.7302876  64.0210815  47.3470356  38.0692941
  64.3867725  48.7672239  39.5723259  64.6796190  49.4072092  38.8479232
  64.6469248  49.0853533  40.8539454  64.2726466  48.2892498  41.8582397
  63.7833908  47.4280668  41.6605215  64.4804718  48.5518241  42.8111107
  65.2854833  50.2275711  41.1326127  65.5670438  50.8413536  40.3815503
  65.4830517  50.4708240  42.0927656  59.6871564  48.6072882  37.2974182
  59.3994485  47.9005477  36.3190364  58.8555481  48.8195842  38.3165664
  59.1462006  49.4153250  39.0786119  57.6212619  48.0825158  38.4559966
  57.8092735  47.0197381  38.3035026  57.0263673  48.2789367  39.8551653
  57.0947460  49.3233215  40.1596059  55.9866167  47.9550145  39.9009167
  57.8753226  47.4124236  40.8018712  58.8824872  47.8289375  40.7864953
  57.3944469  47.3482510  42.1853965  56.3874448  46.9313790  42.2016245
  58.0590073  46.7144472  42.7725533  57.3788674  48.3511501  42.6120709
  57.9303946  45.9921120  40.2959829  58.3764861  45.9771048  39.3015601
  58.5336431  45.3877189  40.9734056  56.9208989  45.5839261  40.2469753
  56.6226935  48.3448003  37.3535262  55.7642659  47.4983482  37.0962190
  56.7648521  49.4976770  36.6993594  57.5757939  50.0640533  36.9035421
  55.8014593  49.9930622  35.7082565  54.7893025  49.9257787  36.1071434
  56.0855097  51.4164786  35.3671600  57.0924217  51.4986070  34.9579127
  55.3639499  51.7644750  34.6280050  56.0081070  52.0284117  36.2658513
  55.8657776  49.1714042  34.4480564  54.9604155  49.2219711  33.6414615
  56.9631452  48.4441385  34.2970927  57.6438020  48.5044260  35.0408474
  57.2688214  47.6090842  33.1512775  56.8267615  48.0252606  32.2460264
  58.7751354  47.5480025  32.9717694  59.2190557  47.4688347  33.9641234
  58.9994497  46.6468764  32.4010200  59.3714892  48.8010341  32.2290779
  59.3527273  48.6137139  31.1554578  58.7539368  49.6699158  32.4566204
  60.8062416  49.0669860  32.6734631  61.4168328  49.3173521  31.8059413
  60.8219034  49.8969500  33.3798723  61.3712245  47.8060495  33.3513589
  60.6833837  47.5242073  34.1485669  61.4020826  47.0148928  32.6022140
  62.7646978  48.0097405  33.9319155  62.7362376  48.7425101  34.6264214
  63.0794402  47.1512713  34.3609468  63.4023113  48.2704914  33.1932971
  56.6922683  46.1918749  33.3432109  56.6833914  45.3781885  32.4324888
  56.1789554  45.9156975  34.5336591  56.3214345  46.5538806  35.3034132
  55.4942699  44.7103034  34.7835209  55.9346045  43.8838658  34.2256629
  55.6135064  44.4135899  36.2611324  55.6645231  45.4447430  36.6107318
  54.6899914  43.9556490  36.6154067  56.8234995  43.6234362  36.8097403
  56.6441965  42.5819925  36.5426329  58.2341343  44.0573050  36.2955766
  58.4143581  45.0985757  36.5627350  58.9975459  43.4280033  36.7530509
  58.2757372  43.9483667  35.2118322  56.7936328  43.5670828  38.3425265
  55.8776770  43.0757853  38.6707813  57.6556523  43.0056626  38.7028472
  56.8263177  44.5797040  38.7445575  54.0414389  44.8615403  34.2971389
  53.5765665  45.9717416  33.9590104  53.3457165  43.7268924  34.1891877
  53.8147479  42.8411621  34.3140505  51.9045064  43.7179868  33.9103757
  51.6759664  44.4365679  33.1232862  51.4530312  42.3158545  33.4449886
  51.8890071  41.5538265  34.0910053  50.3661082  42.2409770  33.4780306
  51.8633482  41.9769693  32.0456867  51.3625132  42.6412505  30.9383151
  51.9057642  42.1328462  29.8453771  51.6412869  42.5192831  28.8610919
  52.7380235  41.1676410  30.2048606  53.2953763  40.6040443  29.5789081
  52.7272094  41.0489782  31.5737945  53.3511574  40.2995844  32.0608254
  51.1647713  44.0745005  35.2028087  51.6930233  43.8710474  36.2942172
  49.9375551  44.5700821  35.0823580  49.5561835  44.7783195  34.1706057
  49.1445171  44.9085162  36.2563303  49.6498607  45.6832041  36.8330327
  47.7830720  45.4233905  35.8439851  47.9515848  46.1518755  35.0508822
  47.2348860  44.5708380  35.4430531  46.9836930  46.0590569  36.9457997
  46.6073990  45.2952641  37.6263320  47.6019068  46.7656447  37.4995573
  45.8138123  46.7959486  36.3151970  46.1968779  47.7305928  35.9055632
  45.4323094  46.1742104  35.5052608  44.6854061  47.0967629  37.3008558
  44.2088448  46.1680237  37.6145968  45.0830817  47.6135705  38.1742762
  43.6708260  47.9751783  36.6168794  43.3018922  47.4963040  35.8077645
  42.9181962  48.1822034  37.2578076  44.1121156  48.8360031  36.3264604
  49.0036816  43.7226441  37.2293035  49.1553637  43.8741594  38.4412382
  48.7301458  42.5403921  36.7058799  48.6086987  42.3960285  35.7136555
  48.4130981  41.4560244  37.5967791  47.8849888  41.8583310  38.4612728
  47.5229807  40.3722179  36.9320660  47.5861009  40.5595913  35.8601489
  48.0008468  39.4200891  37.1627061  45.9720837  40.3176394  37.3781395
  45.4672768  39.6049128  36.7259955  46.0120276  39.9172939  38.3911682
  45.1783805  41.6781785  37.3825606  44.9665254  42.2996131  36.3043224
  44.7159957  42.1058714  38.4783841  49.6787306  40.9242929  38.2075098
  49.6323674  40.3743505  39.2799843  50.8159499  41.1387335  37.5587868
  50.8231275  41.4059750  36.5848105  52.0981297  40.8191621  38.2033448
  51.9767810  39.9274553  38.8183511  53.2825325  40.6035467  37.1987249
  53.5573554  41.5698099  36.7757494  54.5099863  39.9802707  37.8977221
  54.2360437  39.0137042  38.3205758  55.3120021  39.8446805  37.1721280
  54.8497181  40.6417722  38.6946520  52.8742243  39.7235806  36.0218399
  52.0347022  40.2187018  35.5338252  53.7241492  39.6939622  35.3400409
  52.4649521  38.2630182  36.4087261  51.6147323  38.2918123  37.0901929
  52.1905583  37.7117113  35.5093553  53.3041792  37.7670733  36.8964109
  52.4491744  41.8646063  39.3038629  52.9864861  41.5249428  40.3494057
  52.1229707  43.1216238  39.0766756  51.7888426  43.3870448  38.1612471
  52.2500205  44.1469591  40.0814079  53.2699123  44.2063343  40.4614006
  51.9008001  45.4651528  39.4258321  52.0146540  45.3438389  38.3486045
  50.8595071  45.6888643  39.6576987  52.7580761  46.5762050  39.8894653
  52.2694051  47.0065287  40.7636066  53.7100934  46.1359406  40.1859994
  53.0025657  47.6622274  38.8623913  53.2927869  48.5825213  39.3692735
  53.8012515  47.3516459  38.1887894  51.8160025  47.9176423  38.0849898
  50.9577060  48.1307091  38.5728720  51.8053332  47.9117215  36.7541659
  52.9437040  47.6822619  36.0933474  53.7974531  47.5162658  36.6068236
  52.9452647  47.6758565  35.0833691  50.6708908  48.1043760  36.0879110
  49.8106579  48.2563720  36.5948593  50.6746167  48.0978330  35.0779397
  51.3100256  43.8590375  41.2875554  51.7355342  43.9017277  42.4503662
  50.0383305  43.5826162  40.9995246  49.7177270  43.6920966  40.0480379
  49.0625692  43.1799234  42.0212856  48.8941154  44.0092539  42.7082597
  47.7227206  42.7891835  41.3872210  47.3022346  43.6637860  40.8908731
  47.8993678  42.0044731  40.6516088  46.7556104  42.2906443  42.4309957
  47.0108339  41.2543141  42.6523133  46.8916687  42.8969980  43.3264985
  45.3338576  42.3685549  41.9898620  44.7622098  42.8648061  42.7741149
  45.2937696  42.9654348  41.0786942  44.7463708  41.0104195  41.7250594
  44.8430070  40.7530332  40.6703014  45.2469618  40.2546388  42.3302895
  43.2855600  41.0654191  42.0970577  42.8214287  41.7653833  41.5360479
  42.8613897  40.1642134  41.9297021  43.1958045  41.3034851  43.0744867
  49.5797832  42.0259283  42.8701307  49.7000470  42.1317141  44.0965466
  49.8806410  40.9189355  42.1967203  49.6962885  40.8881198  41.2041660
  50.3647464  39.7277443  42.8366628  49.5931172  39.3144539  43.4861846
  50.7374662  38.6684493  41.7777166  49.7887021  38.2736487  41.4142906
  51.2320613  39.2185046  40.9771451  51.6221228  37.5237395  42.2244564
  52.5957942  37.9113026  42.5242223  51.1590119  37.0135526  43.0690508
  51.8056181  36.5067378  41.0325764  51.8664513  37.0765630  40.1053777
  52.7389572  35.9655284  41.1877219  50.6407422  35.5047672  40.9430829
  50.7666625  34.8556870  41.8096506  49.7438232  36.1108006  41.0709853
  50.5002414  34.6352940  39.6602588  51.3310642  34.0733339  39.5417935
  49.6953488  34.0316863  39.7491727  50.3831224  35.2365446  38.8572146
  51.5183176  40.1035411  43.7450235  51.4587189  39.8138752  44.9216661
  52.5383717  40.7740636  43.2216543  52.5687415  40.9338052  42.2248295
  53.7028887  41.1716785  44.0273741  54.1601213  40.2941746  44.4845659
  54.7442122  41.8575132  43.1334888  54.2201541  42.2207909  42.2494687
  55.1412551  42.7042339  43.6934183  55.9061556  40.9366011  42.7006084
  56.5961094  40.8492393  43.5399132  55.4896011  39.9561359  42.4697999
  56.6527619  41.4709478  41.4826504  55.9259778  41.9660383  40.8386246
  57.3823258  42.2004905  41.8342229  57.3786557  40.3589974  40.6826744
  56.6127433  39.8689674  40.0815509  58.0838028  40.8690043  40.0263516
  58.1285344  39.3021893  41.5209014  57.4752339  38.8291920  42.1288254
  58.5625148  38.6297938  40.9047478  58.8385770  39.7560036  42.0776700
  53.4262203  42.0284711  45.2774246  54.1409726  41.9339775  46.2890179
  52.4056616  42.8724422  45.2063135  51.8308839  42.8858900  44.3759226
  52.0851712  43.7813619  46.2709472  52.9699227  44.2417042  46.7107185
  51.1331244  44.8999006  45.7203439  50.4649936  44.4395791  44.9924663
  50.3117825  45.5655348  46.8109976  50.9792650  46.0265112  47.5390557
  49.6725774  46.3302214  46.3696679  49.6932701  44.8182132  47.3080409
  51.9216901  45.9657441  44.9448467  52.4676595  46.5626193  45.6754342
  52.6295697  45.4431596  44.3014873  51.0367702  46.8863406  44.0904856
  50.3288902  47.4096515  44.7332541  51.6619180  47.6132260  43.5719038
  50.4907984  46.2901910  43.3593082  51.3947041  42.9659486  47.3755695
  51.6555375  43.1384616  48.5702097  50.4907664  42.0650997  46.9812995
  50.2784560  41.9484002  46.0007870  49.7724251  41.2383938  47.9489054
  49.2235182  41.8755451  48.6423307  48.8080189  40.3474875  47.2591397
  49.2410875  39.8849484  46.3722303  48.4223097  39.5721246  47.9210617
  47.4490184  41.2272452  46.7184038  46.8186346  40.1895343  46.1755682
  50.7366253  40.3898550  48.7505094  50.6192601  40.2739321  49.9512014
  51.7235342  39.8572255  48.0699084  51.7489683  39.9904663  47.0690591
  52.7218824  39.0674169  48.6617633  52.3206122  38.2000401  49.1859186
  53.5380284  38.5925175  47.5120650  52.8038222  38.1149387  46.8632513
  53.8832004  39.5174908  47.0501336  54.6900663  37.6794828  47.7105551
  55.5588033  38.0493772  48.2551422  54.2861216  36.8058632  48.2221375
  55.1063843  37.2911131  46.2896831  54.2586324  36.5663993  45.6353409
  56.1695811  37.8299088  45.8201539  53.5612307  39.8179914  49.6982947
  53.7421661  39.3376933  50.8003333  54.0357461  41.0045343  49.3531904
  53.9548897  41.3036111  48.3918815  54.6920263  41.8906774  50.2964845
  55.6216642  41.4490877  50.6554706  55.0135835  43.1933728  49.5989182
  55.7870056  42.9582089  48.8677442  54.1068860  43.5051045  49.0804367
  55.4945176  44.3201691  50.5006335  54.7230086  44.5516893  51.2349857
  56.7542847  43.8950831  51.2124993  57.5264539  43.6638262  50.4787598
  57.0977334  44.7033157  51.8581802  56.5504561  43.0104389  51.8157894
  55.7471804  45.5062643  49.6357742  54.8247318  45.7904553  49.1293915
  56.0946789  46.3370048  50.2499535  56.5072877  45.2605326  48.8941868
  53.7816560  42.1430913  51.5059485  54.2097170  42.0137774  52.6486320
  52.5171365  42.4873826  51.2713893  52.1582022  42.6074087  50.3349817
  51.6411856  42.8039501  52.3933683  52.1290842  43.5457935  53.0256045
  50.2902277  43.3655578  51.9317585  49.9198359  42.6210709  51.2270256
  49.6396716  43.3929469  52.8059018  50.3011990  44.7324732  51.2654522
  49.1292078  45.2303802  50.6822934  48.2337958  44.6110632  50.7350496
  49.0823063  46.4580015  50.0569979  48.1483083  46.8369824  49.6421208
  50.2442176  47.2323058  49.9851647  50.1818140  48.4352903  49.3162491
  49.3110390  48.6198019  48.9566578  51.4385318  46.7621655  50.5599757
  52.3428162  47.3698919  50.5277441  51.4614613  45.5023517  51.1777227
  52.3917762  45.1166658  51.5946888  51.4351821  41.5922842  53.3081280
  51.4644814  41.7093424  54.5278824  51.2320603  40.4151878  52.7296018
  51.0839298  40.3400720  51.7333517  51.1495403  39.1718634  53.5536169
  50.2975891  39.2519273  54.2287968  50.9504971  37.9092120  52.6423675
  51.8001967  37.8104393  51.9668273  50.8773566  37.0182738  53.2660500
  50.0355357  38.0209482  52.0605943  52.4014377  39.0212273  54.4174870
  52.3232774  38.8239441  55.6077640  53.5556969  39.1347568  53.7841460
  53.5395511  39.2109249  52.7771519  54.8312287  39.0794285  54.4425731
  54.9990942  38.0893405  54.8664199  55.9412961  39.3698383  53.4161870
  55.9557878  38.5128344  52.7428124  55.6170718  40.2553477  52.8695137
  57.3215914  39.5981846  53.9657686  57.7616705  40.4258116  53.4094729
  57.2133572  39.8816055  55.0126974  58.2388815  38.3628074  53.8601457
  57.6252394  37.4703137  53.7376821  58.8927998  38.4749701  52.9953279
  59.1139620  38.2240554  55.1665560  59.4101557  39.2352292  55.4456569
  58.4567661  37.8138273  55.9333061  60.3446397  37.3554881  55.0409159
  60.9539469  37.7356835  54.3307780  60.8318864  37.3320840  55.9253044
  60.0703675  36.4183608  54.7827178  54.7730666  40.0608994  55.5755454
  54.7740531  39.6329842  56.7214867  54.6144784  41.3581017  55.2585737
  54.4602347  41.5882948  54.2873274  54.7676238  42.4675783  56.2272331
  55.6973052  42.3836200  56.7900320  54.7177183  43.8778567  55.5518345
  53.8077488  43.9489468  54.9560151  54.7264707  44.9974805  56.6114703
  55.6364248  44.9273188  57.2074248  54.6912004  45.9676980  56.1159558
  53.8579833  44.8902006  57.2613335  55.8686046  44.1000102  54.5393373
  55.8082547  43.3509678  53.7497833  55.7821986  45.0950486  54.1028372
  56.8264312  44.0105701  55.0518502  53.7551799  42.4060299  57.3760452
  54.1218823  42.5655114  58.5592425  52.4841459  42.2138060  57.0492800
  52.1805595  42.0980055  56.0929721  51.4722243  42.2447382  58.0958568
  51.8172501  42.9034477  58.8928250  50.1042084  42.7515655  57.5950918
  49.7689154  41.9512762  56.9353837  49.4692710  42.7818205  58.4805516
  50.0165268  44.0804417  56.8638038  50.8140341  44.1350862  56.1227930
  48.6637287  44.2063554  56.1656197  47.8656852  44.1522613  56.9060919
  48.6108562  45.1621898  55.6443847  48.5479609  43.3945894  55.4474734
  50.2037807  45.2079221  57.8431622  51.1811318  45.1192750  58.3175313
  50.1406960  46.1607145  57.3175120  49.4253150  45.1614472  58.6046936
  51.3379243  40.8526704  58.7025698  50.4751087  40.6499773  59.5513093
  52.1861089  39.9092761  58.2603085  52.8753683  40.1688454  57.5691901
  52.1618632  38.5182015  58.7313377  52.8390404  37.9320055  58.1101257
  52.5082754  38.4979983  59.7646285  50.7767824  37.9069744  58.6635315
  50.2579187  37.4446208  59.6513628  50.1391547  37.9337328  57.5120069
  50.5583072  38.3059567  56.6718522  48.7969776  37.4049728  57.4315731
  48.7259500  36.5064394  58.0445102  47.7760508  38.4085972  57.9241780
  47.8689747  38.5233345  59.0041316  47.9475739  39.3704978  57.4410349
  46.4637677  37.9439856  57.6063809  45.8151425  38.5793613  57.9181227
  48.4869405  37.0795716  55.9968013  48.6828085  37.9216985  55.1113710
  47.9972765  35.8626099  55.7762784  47.8195385  35.2632325  56.5695345
  47.7528262  35.3383735  54.4544799  48.5707674  35.6187256  53.7907977
  47.6507748  33.7921113  54.4890013  47.0226440  33.5508049  55.3465106
  47.1383534  33.5035339  53.5712609  49.0227556  33.0016491  54.5994735
  49.0825396  32.5533885  55.5912342  48.9856585  32.2139794  53.8469429
  50.3059337  33.8593426  54.3613106  50.8416121  34.4820634  55.2947112
  50.8030113  33.8670372  53.1324906  51.6320064  34.4071892  52.9297486
  50.3504671  33.3327113  52.4046163  46.4792700  35.9625997  53.9214214
  46.1118461  35.7616056  52.7551409  45.7999642  36.7367693  54.7560051
  46.0440581  36.8553800  55.7288613  44.5617206  37.3094147  54.2868016
  44.0068528  36.5528608  53.7319619  43.6883885  37.8079733  55.4416952
  44.1467102  37.4764711  56.3734391  43.6815290  38.8974385  55.4082485
  42.2359282  37.2809345  55.3658055  42.0628120  36.9012502  54.3588441
  42.1754156  36.4588105  56.0789321  41.1563828  38.3463595  55.7105234
  41.1459929  39.4578810  55.0765235  40.3028592  38.0520598  56.6011665
  44.8621622  38.3892448  53.2197272  44.0016431  38.7145581  52.3864013
  46.1044734  38.8900641  53.2518691  46.6812788  38.6403644  54.0424668
  46.6270373  39.8458117  52.2939330  45.9675315  40.7114042  52.3563890
  48.0511543  40.2830152  52.6842559  48.7250581  39.4288898  52.6177471
  48.3900355  41.0662081  52.0061197  48.0477808  40.6638358  53.7055607
  46.5877301  39.3507725  50.8492447  46.5883886  40.1315905  49.9009215
  46.5205841  38.0437794  50.6803530  46.3905612  37.4234689  51.4667424
  46.6141350  37.4699582  49.3707021  47.2081224  38.1175205  48.7257670
  47.2817044  36.0993293  49.4333811  46.5697012  35.5229310  50.0240720
  47.2943116  35.7219814  48.4108599  48.6811798  35.9635597  50.0452340
  48.7032492  36.3939056  51.0464414  49.0056916  34.4658915  50.1253349
  48.9842657  34.0349135  49.1243864  49.9973378  34.3310580  50.5572590
  48.2663059  33.9663616  50.7513374  49.7500467  36.7138797  49.2509429
  49.5022171  37.7748660  49.2195086  50.7197266  36.5818642  49.7309368
  49.7915009  36.3207320  48.2351598  45.2467556  37.3077387  48.8234505
  45.0884298  36.7267589  47.7441056  44.2324645  37.7895317  49.5380936
  44.3402994  38.0907181  50.4960904  42.8706358  37.6925225  48.9857614
  42.9257067  37.4160319  47.9328515  42.0376685  36.6288018  49.7321211
  41.8748025  37.0718067  50.7146284  41.0796259  36.3348713  49.3033329
  42.8098268  35.3717810  49.9534361  42.8208443  34.3409430  49.0373838
  43.6744778  33.4155797  49.4399226  43.8286100  32.5118597  48.8503190
  44.2177230  33.8118198  50.5817919  44.8911377  33.2979630  51.1318498
  43.7156120  35.0470722  50.9053858  44.0706453  35.5630772  51.7974572
  42.1967180  39.0242909  48.8856183  41.1521643  39.2399932  49.5193983
  42.7938608  39.9331062  48.0822925  44.1009071  39.8237083  47.4198063
  44.3248628  38.7778141  47.2099265  44.8783455  40.2397025  48.0606162
  43.8999452  40.6145723  46.1967027  43.2840645  40.0922852  45.4645783
  44.8436214  40.9056729  45.7353600  43.1685608  41.8415905  46.7742866
  42.6437792  42.2735907  45.9221838  43.7361049  42.6203706  47.2836929
  42.1575404  41.2093166  47.7449180  41.9194215  41.7618775  48.6538042
  40.8845184  40.9160102  46.9867732  40.8631072  39.9111271  46.2357656
  39.8641529  41.7582172  47.1835536  39.9763384  42.5065929  47.8524689
  38.6352486  41.6659732  46.4754447  38.4658907  40.6585932  46.0951782
  37.4233541  42.0817359  47.3186761  36.5778519  42.2506572  46.6518247
  37.0616332  41.0079124  48.3335032  37.9065448  40.8387555  49.0010444
  36.1990160  41.3328454  48.9152340  36.8197702  40.0815623  47.8124665
  37.6181934  43.4166447  48.0334104  37.7917903  44.2015626  47.2972921
  36.7254002  43.6531419  48.6122790  38.4766992  43.3496610  48.7016782
  38.6304281  42.5766890  45.2756249  37.7314765  42.4690925  44.4420069
  39.5957042  43.5054067  45.2041590  40.2767491  43.5476957  45.9487990
  39.7073466  44.4651577  44.1078812  39.6659541  43.9315346  43.1583380
  38.5735132  45.4957524  44.1403049  37.6136379  44.9810968  44.1835297
  38.6694697  46.1574951  45.0011121  38.5350150  46.3700329  42.9320423
  38.7635176  47.7275819  42.9862645  38.6727031  48.2396803  41.7739898
  38.8204980  49.3067737  41.6079557  38.3950506  47.2615948  40.9305035
  38.2644432  47.3576662  39.9336024  38.3101996  46.0782941  41.6270168
  38.0951782  45.1492903  41.0989837  41.0340921  45.2085276  44.1964062
  41.6450117  45.2726301  45.2447563  41.4738170  45.7480590  43.0594788
  40.8708349  45.7482980  42.2492246  42.7542739  46.3671187  42.9497506
  43.0771558  46.7057852  43.9342055  43.8007084  45.3934000  42.3996218
  43.9177592  44.5905632  43.1275307  43.4165135  44.9832028  41.4656879
  45.1434823  46.0466889  42.1489647  45.9294844  46.4535467  43.2146346
  45.5521654  46.2858648  44.2234025  47.1904436  47.0717128  43.0233218
  47.7811163  47.3976573  43.8794572  47.6575259  47.2717760  41.7553148
  48.8751204  47.8485302  41.6608036  49.2632712  48.0476170  42.5159662
  46.9079502  46.8794629  40.6401720  47.2777062  47.0342355  39.6265515
  45.6284755  46.2622156  40.8513928  45.0235724  45.9559523  39.9979320
  42.5964312  47.4956482  41.9735878  42.1523749  47.3090007  40.8429677
  42.9883151  48.6720238  42.4201922  43.3655434  48.7332926  43.3550955
  42.9071243  49.9046613  41.6177073  42.5094627  49.7109845  40.6214876
  41.9511650  50.8416827  42.3507228  41.2285180  50.1961556  42.8498975
  42.5554876  51.3557520  43.0981363  41.2208007  51.8572824  41.5107471
  40.6485967  52.4862139  42.1927504  41.9715082  52.4625221  41.0025912
  40.2951005  51.2498948  40.4938851  40.7533407  51.1689648  39.3578085
  39.1449367  50.8674300  40.8100148  44.3573012  50.4049083  41.5983763
  45.0412939  50.2712708  42.5961278  44.8509983  50.8552411  40.4431289
  44.3554158  50.6571858  39.5856492  46.1310675  51.5453177  40.3573893
  46.3519214  52.0464698  41.2998167  47.2187487  50.5585587  40.0744733
  48.1798366  51.0458251  40.2387311  47.1142453  49.7207033  40.7638044
  47.1499220  50.0691652  38.6997188  46.2644945  49.4374067  38.6290077
  47.0442955  50.9187011  38.0250107  48.3606557  49.2756936  38.3168825
  48.5232563  49.0087593  37.1165596  49.1269416  48.9034391  39.2013612
  46.1603697  52.6969504  39.3126040  45.4435169  52.6468874  38.3375754
  47.0001591  53.7187945  39.5405635  47.5313551  53.7103562  40.3995506
  47.2291026  54.8136188  38.5923554  46.7969583  54.5515492  37.6266070
  46.5826064  56.1259233  39.0819038  45.5240679  55.9259198  39.2480187
  47.0550101  56.3890390  40.0283207  46.7285720  57.2491934  38.1288476
  46.9443391  58.1581191  38.6904519  47.5591397  57.0318992  37.4572505
  45.4939894  57.4397704  37.3393139  45.0106173  56.4735947  37.1945558
  44.8220054  58.1038162  37.8829866  45.8130924  58.0312418  36.0261209
  45.7217365  59.1162662  36.0758876  46.8298865  57.7656426  35.7368353
  44.8294717  57.4841380  34.9906824  43.8872584  57.7305101  35.2583289
  45.0373413  57.8818325  34.0858458  44.9142648  56.4787825  34.9441046
  48.7253300  55.0539244  38.5092057  49.3630356  55.3592716  39.5212031
  49.2726409  54.9623134  37.3069753  48.7056191  54.8184805  36.4836298
  50.7081771  55.1634682  37.1323171  51.2479995  54.8992741  38.0416534
  51.1965502  54.2559178  35.9891815  50.9523074  53.2283900  36.2586836
  50.6726116  54.5247573  35.0719500  52.6388188  54.3465198  35.7482304
  53.2933289  55.3637375  35.9950618  53.1751549  53.2783558  35.2344705
  54.1655936  53.2589997  35.0376040  52.5985710  52.4734801  35.0349039
  50.8760306  56.5634853  36.7007070  50.4676880  56.8837558  35.6099439
  51.4531794  57.4308598  37.5217432  51.6530662  57.1957789  38.4834509
  51.5265246  58.8305871  37.1231044  50.7273985  59.0242098  36.4075579
  51.3807498  59.8266339  38.3147669  52.0625041  59.5029987  39.1012595
  51.5852119  60.8672411  38.0629102  49.9780130  59.7896664  38.9109849
  49.5328203  58.9343076  39.9003821  50.2631612  58.2449222  40.3239973
  48.1885337  59.1541692  40.1467038  47.6598146  58.7474680  40.9050901
  47.7380736  60.1254590  39.2959430  46.5058377  60.7406525  39.2361287
  45.7082075  60.3927907  39.8925408  46.3668053  61.7659320  38.3387860
  45.4077578  62.2748456  38.2421697  47.4306326  62.1752582  37.5418835
  47.2839782  62.9842952  36.8263060  48.6381724  61.6152618  37.6145580
  49.4394601  62.0332194  37.0051730  48.8356056  60.5608730  38.5160232
  52.6860870  59.1445484  36.1724056  52.5776937  60.0998947  35.4230210
  53.7439604  58.3267209  36.1685159  53.8208093  57.6147159  36.8807254
  54.8209318  58.4409013  35.1811661  55.3924751  59.3502936  35.3667545
  55.7673832  57.2431060  35.2661901  55.3184404  56.4124205  34.7216616
  56.7110617  57.5180233  34.7950305  56.2096361  56.5730956  36.9682249
  57.0049336  55.6002660  36.5323319  54.2988349  58.5354970  33.7231717
  54.8918952  59.2557639  32.8970240  53.1839818  57.8371624  33.4505965
  52.8115923  57.2863088  34.2108503  52.5220913  57.7445699  32.1233857
  53.2306146  58.0184523  31.3416681  52.0284707  56.3246675  31.8586200
  51.0675647  56.2122231  32.3607307  51.8898774  56.2206424  30.7824831
  53.0117917  55.2233216  32.3650834  53.9456830  55.3331955  31.8138344
  53.1926649  55.4033360  33.4247904  52.4695339  53.8007208  32.1735513
  51.2115113  53.5934426  32.1929148  53.3148233  52.8845293  32.0015021
  51.3560480  58.7255916  31.8974801  50.6133140  58.6254421  30.8595031
  51.1857837  59.6787498  32.8360777  51.5891448  59.5896932  33.7577436
  50.2832887  60.7922085  32.5824472  49.4381596  60.4521596  31.9839301
  49.7568608  61.3597849  33.8852057  50.5943645  61.6154348  34.5343051
  49.1702844  62.2553024  33.6800803  48.8942218  60.3436829  34.5621893
  49.5384462  59.5046824  34.8251607  48.4836998  60.7845471  35.4705998
  47.7768218  59.8606400  33.6940270  47.0920138  60.7073996  33.0722865
  47.5757151  58.6330000  33.6542654  50.9004236  61.8730607  31.6875046
  51.7824247  62.6268146  32.0951858  50.3526199  61.9779114  30.4844122
  49.5764183  61.3917023  30.2124389  50.9253518  62.8440822  29.5009183
  52.0097713  62.7339471  29.5028940  50.4052631  62.5053410  28.1134158
  51.1564001  62.8504216  27.4029146  50.3294263  61.4191838  28.0623140
  49.0951522  63.1075333  27.7774341  48.3737213  62.6265975  28.4379938
  49.1119097  64.1789551  27.9771248  48.6558821  62.8876586  26.3332298
  49.2147439  63.4659491  25.4157248  47.6188339  62.0987159  26.1459397
  47.2870386  61.9197511  25.2089312  47.1597901  61.6760411  26.9401223
  50.6896294  64.3089966  29.8693837  51.5401610  65.1351651  29.5941645
  49.5463776  64.6225709  30.4670286  48.8329401  63.9128008  30.5526595
  49.2453588  65.9509450  30.9283440  49.8682311  66.6827625  30.4139779
  47.7649975  66.2680287  30.6315272  47.1698231  65.4724026  31.0796854
  47.4875518  67.2234522  31.0768246  47.5138734  66.3112300  29.1837011
  46.6357360  65.4340023  28.6064902  46.1193056  64.7234738  29.2518958
  46.3981008  65.4321606  27.2583797  45.6793582  64.7376928  26.8233792
  47.0828444  66.3267169  26.4419476  46.8616991  66.3172672  25.0728561
  46.2202838  65.6567321  24.8010484  47.9930878  67.2354137  26.9944220
  48.5322553  67.9406418  26.3619252  48.2043867  67.2308863  28.3611291
  48.9046558  67.9374299  28.8066842  49.5655300  66.1560294  32.4482166
  49.0518294  67.1139531  33.0995291  50.4020271  65.2680914  33.0179400
  50.6478622  64.3991095  32.5656846  50.9009007  65.5107556  34.3780904
  50.6331707  66.5289545  34.6603860  50.3364893  64.5487626  35.4250815
  50.5612335  63.5249691  35.1260228  50.8033848  64.7562817  36.3879130
  48.9414053  64.7098035  35.5356544  48.6003028  64.1011381  36.1950294
  52.4077441  65.4695584  34.3746685  53.0238335  66.3106282  35.0074982
  52.9587508  64.4631456  33.7017213  52.3323663  63.8412813  33.2107768
  54.3867810  64.2025995  33.6273873  54.5934134  63.7354736  32.6644773
  54.9063006  65.1590579  33.6855757  54.8897291  63.3044717  34.7254159
  55.9405602  62.8128159  34.6315074  54.1164099  63.0535549  35.7552572
  53.1550294  63.3599475  35.7108682  54.5651901  62.3606209  36.9540744
  54.2271535  61.3243655  36.9517733  55.6520013  62.3875483  37.0329139
  53.9585479  63.0811469  38.1658271  53.1797612  64.0399510  38.0323806
  54.3606606  62.6337752  39.3412513  55.1141361  61.9611927  39.3438130
  53.7815265  63.0334472  40.6271522  53.4879721  64.0828165  40.5997848
  52.5325438  62.1805240  40.9154839  52.5039051  61.2833931  40.2970704
  52.4690178  61.8988467  41.9665417  51.0131618  63.0923376  40.5475923
  50.1782941  62.1153820  40.8903049  54.7856181  62.8523620  41.7563281
  55.8001696  62.1844243  41.5819618  54.5702059  63.4492647  42.9125969
  55.2043952  63.2058517  43.6600280  53.5822256  64.4427961  43.1626515
  52.5875555  64.1033449  42.8736818  53.5917499  64.6951911  44.6403670
  54.4016522  65.4171473  44.7449462  52.6529815  65.1560282  44.9476829
  53.8750641  63.4822641  45.5218305  53.1029600  62.2943721  45.4119040
  52.3260797  62.2147946  44.6514937  53.3505970  61.1861758  46.3145240
  52.7776511  60.2632899  46.2244339  54.3322158  61.3034230  47.2954071
  54.5732319  60.2616190  48.1796630  54.0057622  59.5022399  48.0282655
  55.0908640  62.4906513  47.4069143  55.8692290  62.5811491  48.1645808
  54.8358952  63.5560883  46.5340077  55.3964321  64.4859085  46.6306147
  53.9581645  65.7351176  42.4820854  53.1142251  66.6213775  42.1810845
  55.2447741  65.8756453  42.2377192  55.9326113  65.1701581  42.4596810
  55.7156626  67.1992881  41.8294683  55.1215514  67.6401091  41.0289636
  55.7088849  68.1651216  43.0402873  54.7615777  68.0516827  43.5673935
  56.8664984  67.8696268  44.0010723  57.8142189  67.9833230  43.4747657
  56.8308776  68.5660886  44.8387902  56.7785904  66.8490824  44.3737139
  55.7417207  69.5276867  42.5620874  55.7376240  70.1294853  43.3100326
  57.0343129  67.2366978  41.0490377  57.6242410  66.1848770  40.7516359
  57.4793632  68.4557183  40.6717151  56.9264754  69.2936120  40.7828393
  58.7665653  68.5637737  40.0125825  58.9211446  67.6934949  39.3747587
  58.8392447  69.8052886  39.1597077  58.6953582  70.6858094  39.7858704
  59.8152183  69.8586992  38.6772940  58.0597658  69.7700210  38.3986110
  59.8645214  68.5417981  41.0611756  59.6703245  69.0321275  42.1875439
  61.0039324  67.9112969  40.7317687  61.0329798  67.2786030  39.9450324
  62.2017869  68.0387880  41.5648878  61.9477962  68.5767144  42.4782460
  62.7673916  66.6865118  41.9414703  63.5742336  66.8660094  42.6520235
  61.9302816  66.2135426  42.4549360  63.2568900  65.7838738  40.8466731
  64.5802568  65.8775500  40.3552527  65.2571560  66.6251080  40.7688514
  65.0254121  65.0100840  39.3355329  66.0398392  65.0951138  38.9459055
  64.1860738  64.0225517  38.8638943  64.6140250  63.1475026  37.8577582
  65.5115222  63.3223706  37.5653208  62.8635166  63.9022088  39.3522755
  62.1929370  63.1315870  38.9720579  62.4256861  64.7804712  40.3262701
  61.4087930  64.7045099  40.7113135  63.2220974  68.8984233  40.8751025
  63.1483114  69.0826249  39.6739080  64.1404328  69.4720387  41.6569173
  64.0753160  69.2981146  42.6496960  65.2449005  70.2550656  41.1731094
  65.0289671  70.6060198  40.1639994  65.4893875  71.4626542  42.0659748
  65.2124094  71.2375165  43.0958755  66.5424803  71.7410470  42.0260610
  64.7188884  72.6634054  41.6731928  63.3575257  72.7475362  41.9246653
  62.8372808  71.9212947  42.4091962  62.6664731  73.8738050  41.5619935
  61.5903874  73.9156307  41.7304892  63.3190125  74.9500131  40.9880165
  62.7745060  75.8655365  40.7568681  64.6769826  74.8590895  40.7060752
  65.2005035  75.6776312  40.2120959  65.3551395  73.7276405  41.0554855
  66.4224103  73.6464060  40.8494909  66.5016368  69.3947626  41.2487394
  66.8795136  69.0108374  42.3381161  67.1152734  69.0695697  40.0904451
  66.5556907  69.2978308  38.7338725  66.7330250  70.3321544  38.4392076
  65.4832713  69.1033637  38.7479514  67.3096299  68.3104159  37.8706480
  67.3994951  68.6789827  36.8487959  66.8099649  67.3417074  37.8643199
  68.7033378  68.2137888  38.5662482  69.2739576  69.0450378  38.1521018
  69.2599199  67.2869091  38.4276476  68.4461756  68.4505221  40.0560464
  68.4573800  67.5744734  40.7045150  69.5058516  69.4740460  40.5509218
  69.3309011  70.7120803  40.4025959  70.6519114  68.9542668  41.0015696
  71.0569667  67.5283649  40.9864007  71.3472844  67.2397595  39.9761914
  70.2246797  66.9066272  41.3163089  72.1562737  67.5005924  41.9036067
  72.8248951  66.6650317  41.6965248  71.8100240  67.4410955  42.9354364
  72.8490941  68.8624729  41.6292741  73.3268684  68.7598786  40.6549511
  73.5737309  69.2399116  42.3507595  71.6802041  69.8106205  41.5298247
  71.3409775  70.2600609  42.4631129  71.9785073  70.8986214  40.5276939
  71.9401404  70.6348491  39.3095929  72.2922659  72.1036322  41.0019834
  72.2722260  72.3084365  41.9907973  72.6795869  73.1739156  40.0783380
  73.3808387  73.8278029  40.5967745  73.1753783  72.7160661  39.2223801
  71.5045610  74.0011487  39.5848518  71.6553626  75.2103311  39.4049803
  70.3216977  73.4050113  39.4000226  70.1784728  72.4255948  39.6008440
  69.2689315  74.1288413  38.6651625  69.7114282  74.6875540  37.8404590
  68.1511050  73.1947453  38.1177024  67.7704210  72.6071846  38.9531379
  66.9755752  73.9775925  37.4545087  67.3554312  74.5650704  36.6186380
  66.2275157  73.2724868  37.0921088  66.5214062  74.6428831  38.1888234
  68.7191506  72.1760492  37.0911683  69.1582792  71.3680414  37.6763094
  67.8625687  71.7965341  36.5340907  69.7191539  72.6998198  36.1532729
  70.5762976  73.0791188  36.7096332  70.0443202  71.9022800  35.4852187
  69.2805874  73.5076136  35.5674158  68.7372970  75.3324020  39.4415621
  68.4082381  76.3661126  38.8634777  68.6853743  75.2012631  40.7589750
  69.1251851  74.4193793  41.2230048  68.0356321  76.1795821  41.5576839
  67.0190258  76.3593924  41.2079997  67.9742362  75.6606290  42.9593312
  67.2575356  74.8400062  42.9912341  68.9622825  75.2902426  43.2326049
  67.5396300  76.7679583  43.9633248  67.8945185  76.5369872  44.9677188
  67.9273126  77.7392091  43.6559553  65.7857253  76.8226648  43.9696157
  65.7383301  75.8303237  45.4814801  66.2670942  76.3545577  46.2775242
  64.7020747  75.6695810  45.7788639  66.2172256  74.8680734  45.3002766
  68.8249601  77.4891721  41.5641893  68.2660500  78.5820550  41.3950756
  70.1254977  77.3816511  41.8176021  70.5278510  76.4905139  42.0707533
  71.0043076  78.5670244  41.8023546  70.4891573  79.3879431  42.3011650
  72.3139171  78.3013617  42.5297103  72.9941984  79.1366794  42.3636925
  72.0509957  78.1450902  44.0433423  71.3711133  77.3096139  44.2101920
  72.9925991  77.9550694  44.5584872  71.6034239  79.0601255  44.4312731
  72.8529517  77.0887373  42.0111636  73.6830041  76.8932186  42.4520557
  71.3000666  79.0401877  40.3723487  71.5616392  80.1923824  40.1764710
  71.1991610  78.1693882  39.3716388  71.0240514  77.1885003  39.5368507
  71.3879064  78.6151605  37.9984818  72.1732500  79.3706981  37.9761766
  71.7817102  77.4825949  37.0806699  72.1880787  76.6654757  37.6767237
  70.8990441  77.1356913  36.5434004  72.8078486  77.9424279  36.1043305
  72.4260790  78.7918563  35.5379170  73.6932195  78.2469432  36.6624441
  73.2008584  76.8493728  35.1318168  73.3006478  75.6667672  35.5163999
  73.4076640  77.2251812  33.8476029  73.6715580  76.5350956  33.1589496
  73.2971039  78.1939084  33.5840778  70.1371869  79.2659906  37.4558990
  70.2197234  80.3397795  36.9227252  68.9609382  78.6392958  37.5600257
  68.8161907  77.8097570  38.1177110  67.7929940  79.2191050  36.8407248
  68.0590720  80.1767671  36.3933044  67.3662272  78.2747068  35.7415687
  66.9387451  77.3932550  36.2194820  66.5841691  78.8115008  35.2045982
  68.4402326  77.8493632  34.7719419  68.8513420  76.5304954  34.7267222
  68.4016811  75.8068316  35.4065862  69.8172204  76.1282620  33.8357938
  70.1618197  75.0942713  33.8210812  70.3902088  77.0694812  32.9720400
  71.3172918  76.6399292  32.0860737  71.4880239  75.6973422  32.1491597
  70.0042428  78.3720115  32.9840348  70.4497497  79.1071178  32.3137790
  69.0130460  78.7592325  33.8821467  68.6680637  79.7930330  33.9006875
  66.5658514  79.4296693  37.7058679  65.5394984  79.9571533  37.2412236
  66.6203227  78.9146537  38.9238571  67.4931261  78.5178902  39.2414924
  65.4750955  78.8917565  39.8353747  64.7616300  78.2345701  39.3382105
  65.8632082  78.3981470  40.7263390  64.7612493  80.1775155  40.2503489
  63.5885499  80.0856702  40.5940906  65.4131324  81.3563036  40.1807705
  66.3343291  81.3785310  39.7672468  64.8213201  82.6297512  40.6425013
  64.5790863  82.5267614  41.7002419  65.7417864  83.8398498  40.4671464
  65.6200972  84.1394147  39.4262085  65.3248086  84.6090652  41.1171750
  67.2068758  83.6659941  40.7712782  67.3902425  83.9827287  41.7979995
  67.4626027  82.6116915  40.6656756  68.0944099  84.5215025  39.7921309
  68.7184923  85.1933813  40.3813669  68.7293308  83.8483870  39.2160316
  67.2875363  85.3251094  38.8571272  66.3609437  85.5535647  39.1877836
  67.6700178  85.7812943  37.6432807  66.8124354  86.5161935  36.8968556
  65.8886511  86.7213813  37.2498722  67.1002750  86.8559712  35.9903242
  68.8980448  85.5354863  37.1593280  69.5555252  84.9993797  37.7074240
  69.1587581  85.8878038  36.2493831  63.5718102  83.0179523  39.8746686
  62.7510798  83.7397924  40.3779056  63.4752720  82.5912938  38.6383135
  64.2346666  82.0809790  38.2105308  62.3756561  83.0000986  37.8076136
  61.8471549  83.8469921  38.2452860  62.8390960  83.3909552  36.3672766
  61.9669144  83.6014192  35.7483232  63.7490406  84.6688177  36.4408119
  64.6217260  84.4589664  37.0592644  64.0732437  84.9428930  35.4368819
  63.1846110  85.4927771  36.8774029  63.5981739  82.2457765  35.6409871
  62.9473036  81.3757788  35.5539586  63.8936132  82.5788411  34.6460583
  64.4867682  81.9783528  36.2128136  61.2198717  81.9649086  37.8195292
  60.3127071  82.0604417  37.0025519  61.2059099  81.0610714  38.8003378
  61.9755081  81.0120307  39.4525746  60.1788567  79.9959418  38.8453575
  60.2015535  79.4226475  37.9185794  60.3806813  79.0251585  40.0673205
  61.3516356  78.5380423  39.9775102  60.3204224  79.8086960  41.3916248
  59.3495204  80.2957436  41.4823701  60.4617659  79.1228511  42.2269329
  61.1072656  80.5628952  41.4042885  59.3020922  77.9113028  40.0529954
  59.1755226  77.6024191  41.0906233  58.3856896  78.3851147  39.7011318
  59.6009931  76.7047388  39.2034380  60.5170747  76.2300948  39.5550163
  58.7753615  75.9965911  39.2738553  59.7272440  77.0127911  38.1655245
  58.7045188  80.5287069  38.7536510  57.8646413  79.9526529  38.0756602
  58.4085078  81.6617428  39.3906848  59.0660745  82.1411682  39.9888959
  57.0740569  82.1995528  39.2709217  56.4980263  81.6440996  38.5308137
  56.3876113  82.0764036  40.6068258  55.3530860  82.3943432  40.4773229
  56.4108315  81.0253449  40.8946391  57.0154724  82.8792021  41.6489937
  58.0457534  82.5539787  41.7933948  57.0038282  83.9303654  41.3608579
  56.2571586  82.7044329  42.9195348  55.4254796  83.4029659  43.0115168
  55.8922735  81.6861564  43.0539643  57.2057638  82.9876375  43.9421219
  57.3216466  83.9521105  44.2186404  57.9600176  82.0763738  44.5142893
  57.7913194  80.7903483  44.2488757  57.0744239  80.5018742  43.5985346
  58.3802944  80.1036688  44.6979629  58.8537842  82.4850643  45.3846429
  58.9399426  83.4700524  45.5907385  59.4510998  81.8126075  45.8441150
  56.9770477  83.6577053  38.7979466  55.8955633  84.2914811  38.9360507
  58.0874566  84.1876193  38.2685582  58.9487261  83.6638184  38.3313815
  58.1213218  85.5006408  37.6340689  57.7676127  86.2771771  38.3122874
  59.5607894  85.7931249  37.2730978  60.0937494  85.8300061  38.2231992
  59.8958970  84.9269690  36.7025043  59.8495943  87.0803234  36.4711423
  59.4510134  86.9320230  35.4675282  59.3946247  87.9657994  36.9150307
  61.3718262  87.3072273  36.3683927  61.9514710  87.4120793  35.2708513
  62.0239443  87.3107698  37.5319955  63.0237121  87.4534255  37.5466597
  61.5149658  87.1707823  38.3930679  57.2107978  85.5216260  36.3775858
  57.2512965  84.5959843  35.5795362  56.3429647  86.5595771  36.2468786
  56.0067215  87.5019453  37.3293741  56.8512990  88.1690379  37.5019329
  55.7936730  86.9431309  38.2406566  54.8328625  88.2040295  36.8198442
  54.8910989  89.2411821  37.1500291  53.9471104  87.7357910  37.2491427
  54.8181140  88.1044054  35.3035963  55.3311371  88.9733931  34.8915689
  53.8218981  88.0306549  34.8674604  55.6140460  86.8401819  34.9992346
  54.9952826  85.9738826  34.7652357  56.5474287  87.1183445  33.8440483
  57.6484196  87.6812520  34.0429734  56.1307031  86.6431597  32.6731012
  55.4133269  85.9335191  32.7164711  56.6345560  87.0400728  31.3591806
  57.5407167  87.6278652  31.5057141  56.9722225  85.8220791  30.4349936
  56.0449343  85.3104765  30.1771203  57.6553090  86.2715996  29.1872908
  58.5829782  86.7829207  29.4443541  57.8788284  85.4065248  28.5629630
  57.0039380  86.9542728  28.6416033  57.9020909  84.8386454  31.1432824
  57.4189890  84.4677353  32.0472405  58.1208186  84.0022074  30.4794833
  58.8309191  85.3432659  31.4092469  55.5068093  87.9103758  30.7409120
  54.4245817  87.3862885  30.3409497  55.7446364  89.2408122  30.7163500
  56.6277694  89.5800148  31.0700688  54.7801615  90.2189469  30.1996474
  55.1163203  91.2291369  30.4333408  54.6844504  90.1092147  29.1194171
  53.4436878  89.9920754  30.8323026  53.3324661  90.0475651  32.0320024
  52.4261480  89.6185573  30.0592941  52.4742477  89.6627852  29.0514104
  51.1002432  89.3978713  30.6921503  51.1455142  89.7254199  31.7307848
  49.9787016  90.1734635  29.9806489  49.9881409  89.9003523  28.9254615
  49.0257997  89.8819639  30.4223569  50.1660678  91.7181649  30.1200814
  49.8645130  92.0255552  31.1214188  51.2161866  91.9659584  29.9653206
  49.3281191  92.4359020  29.1033786  48.2896054  92.1081483  29.1499155
  49.3748253  93.5151522  29.2487644  49.8654090  92.1153244  27.7677771
  50.8708784  92.1553081  27.6809897  49.1418400  91.7833576  26.6867951
  49.8038998  91.5149185  25.5343494  50.8121865  91.5686709  25.5105064
  49.2857861  91.2624223  24.7049498  47.7733980  91.7194259  26.7525626
  47.3025833  91.9238340  27.6224194  47.2425714  91.4682209  25.9308461
  50.6989333  87.9430485  31.0011863  49.5195049  87.6664474  31.1505933
  51.7071450  87.0555402  31.1209909  52.6385651  87.4060358  30.9486288
  51.5530821  85.6541763  31.4809003  50.5092300  85.3497339  31.4048286
  52.4025220  84.7861662  30.5634531  53.4436553  85.0829214  30.6902527
  52.2534751  83.2520295  30.8748832  51.2126180  82.9544112  30.7478377
  52.8805590  82.6794305  30.1915115  52.5637860  83.0573299  31.9014787
  51.9921841  85.0632792  29.1098575  50.9330511  84.8337914  28.9929246
  52.1612974  86.1175928  28.8909444  52.7944432  84.2203334  28.1606337
  52.6254733  83.1658099  28.3786455  52.4872683  84.4328754  27.1366373
  53.8537205  84.4496100  28.2766672  52.0203518  85.5396072  32.9040946
  53.1127484  85.9917316  33.2376721  51.1590154  85.0180278  33.7669188
  50.2332625  84.7868480  33.4358042  51.4611006  84.8107973  35.1849223
  52.4654037  85.1759527  35.3997155  50.4722050  85.5559377  36.0719699
  49.4761800  85.2455251  35.7562523  50.5911517  85.3637464  37.1382786
  50.5323351  86.9981949  35.9000854  49.8152656  87.5972864  34.9148856
  49.1436672  87.0108062  34.2879116  49.9410877  88.9654578  34.7080602
  49.3621068  89.4392641  33.9153500  50.7889190  89.7253578  35.4942657
  50.8841026  90.7944407  35.3042611  51.5043466  89.1442980  36.5034272
  52.1400960  89.7393036  37.1590882  51.4114345  87.7782668  36.6851059
  52.0214500  87.2865043  37.4428331  51.4250885  83.3155137  35.4070017
  50.7908071  82.5941594  34.6138932  52.1684211  82.8150975  36.3826380
  52.6024334  83.4143934  37.0700803  52.4234319  81.3581811  36.4601121
  51.8839242  80.8327530  35.6721045  53.8953623  81.1097275  36.2824894
  54.4742131  81.6814315  37.0078759  54.1058342  80.0474624  36.4065636
  54.4089253  81.4937504  34.9243472  54.7855234  82.8034229  34.6451394
  54.7089868  83.5630584  35.4230828  55.2608856  83.1487102  33.3732076
  55.5685821  84.1708276  33.1525280  55.3393390  82.1532744  32.3691549
  55.6721152  82.4136158  31.3643752  54.9946037  80.8562208  32.6642539
  55.0877100  80.0793787  31.9053416  54.5300746  80.5381063  33.9234075
  54.2455883  79.5119625  34.1562087  51.9323618  80.8033100  37.7886911
  52.3065953  81.3308916  38.8501896  51.0197714  79.8320680  37.7517878
  50.6946431  79.4700701  36.8667181  50.4563379  79.2925434  38.9553948
  50.8725313  79.7048511  39.8745708  49.0573825  79.4582867  38.9805751
  48.6252295  79.0420019  38.0706021  48.6453008  78.9414810  39.8472935
  48.8178207  80.5197811  39.0433363  50.8644137  77.8635435  38.9165557
  51.8800925  77.5771360  38.3400558  50.1003719  76.9339074  39.4797226
  49.1800339  77.1297879  39.8467487  50.6113560  75.5573238  39.5759665
  49.7993479  74.8303756  39.5589861  51.3124931  75.3369595  38.7710157
  51.3404909  75.4553988  40.9106015  52.0758677  76.4039726  41.3311498
  51.2061786  74.2948142  41.5486120  50.5838037  73.6037804  41.1546309
  51.8136093  74.0194501  42.8587317  51.5009829  74.7277968  43.6259403
  51.4278312  72.6185070  43.3049017  50.3639814  72.4797062  43.1123972
  52.1823299  71.5998372  42.6028722  53.2463160  71.7377164  42.7952843
  51.8752183  70.6140560  42.9521817  51.9938030  71.6804000  41.5323266
  51.6283539  72.5404665  44.6945151  51.3914401  71.6628684  45.0032121
  53.3566517  74.2300248  42.9452684  53.8873737  74.6728611  43.9684576
  54.0428790  73.9486603  41.8501537  53.5582969  73.5363073  41.0657784
  55.4915171  74.1550007  41.7423944  56.0029643  73.6067267  42.5335434
  55.9977620  73.6593923  40.4055880  55.3843319  74.1118983  39.6264596
  57.0297048  73.9921555  40.2939508  55.9376218  72.1430197  40.2818089
  56.6693523  71.8664122  39.5227571  56.2351801  71.7231342  41.2426702
  54.5416124  71.5858009  39.8829820  53.6820913  72.3470024  39.3145721
  54.3054229  70.3659263  40.1602423  55.8894498  75.6094067  41.9270207
  57.0440666  75.9113087  42.0945384  54.9462126  76.5288125  41.8967140
  53.9610842  76.3408756  41.7771269  55.3752346  77.9398691  42.1139636
  56.4563543  77.9978076  41.9877790  54.7365215  78.8449053  41.1359815
  55.1998099  79.8252485  41.2472979  54.8786001  78.3739822  39.6803579
  54.4151046  77.3938388  39.5681507  54.3864438  79.0860366  39.0178929
  55.9351884  78.3075165  39.4209276  53.3449568  78.8729994  41.4611069
  52.8849369  79.4519150  40.8488662  54.9424020  78.4428170  43.4891728
  55.0802175  79.6442881  43.7864270  54.3902474  77.5568140  44.3244464
  54.2716964  76.5990271  44.0266388  53.9362548  77.9222017  45.6325777
  53.4498556  78.8976441  45.6377874  52.9386143  76.8663449  46.1887510
  53.4144573  75.8857417  46.1982775  52.6486948  77.1388107  47.2035462
  52.0525920  76.8335284  45.5547267  55.1612723  78.0240130  46.5241924
  56.1940614  77.3678590  46.2670884  55.0039184  78.7524371  47.6251135
  54.1029004  79.1527264  47.8442808  56.0837130  78.9618887  48.5466766
  57.0054121  78.6145835  48.0798266  56.2340844  80.4720179  48.8792364
  57.0686244  80.6044737  49.5677846  56.4973860  81.2771011  47.5931946
  55.6629977  81.1455013  46.9042990  56.6008147  82.3337083  47.8401420
  57.4149818  80.9227593  47.1235560  55.0217950  80.9376419  49.4477484
  55.1042596  81.8708913  49.6571415  55.8003436  78.2439985  49.8414745
  56.6706681  78.0760930  50.6535484  54.5685849  77.8130392  50.0398521
  53.8054729  78.0760061  49.4327213  54.2721642  76.9908720  51.2050622
  55.1864485  76.5958993  51.6479843  53.5595876  77.8849424  52.2534189
  54.2985651  78.6170720  52.5789917  52.7554849  78.3930966  51.7211613
  52.9848990  77.1611321  53.4761608  52.5944902  76.2084728  53.1182194
  53.8211560  76.9798481  54.1513737  51.8254176  77.9550359  54.2600695
  52.2418692  78.8751068  54.6701141  51.0274923  78.1989544  53.5587004
  51.2476096  77.0793812  55.4241299  50.8564963  76.1483356  55.0139043
  52.0428084  76.8566283  56.1355645  50.1397867  77.8235809  56.1258685
  49.4026423  78.0297075  55.4669074  49.7726086  77.2533621  56.8742873
  50.5020888  78.6861385  56.5064347  53.4306783  75.8120478  50.7082081
  52.4214367  76.0111951  50.0400542  53.8814402  74.5988595  51.0272171
  54.7839453  74.5957216  51.4806198  53.2874565  73.3222330  50.6654089
  53.9710948  72.5279024  50.9650365  51.9300190  73.0755345  51.3289089
  51.2396789  73.8994539  51.1481144  51.5435636  72.1693814  50.8623912
  51.9278732  72.8309906  52.8073546  51.5402432  73.7208897  53.7985683
  51.2651907  74.7275873  53.4839164  51.5920167  73.0945159  55.0429976
  51.3415352  73.5168476  55.9256043  52.0323401  71.8081993  54.8729541
  52.2518985  70.8143191  55.8186255  52.0537241  71.0526248  56.8636308
  52.7065998  69.5878347  55.3798082  52.9360317  68.7960773  56.0929570
  52.8784432  69.3438409  54.0273889  53.1695789  68.3533845  53.6776240
  52.6853176  70.3561852  53.0639584  52.8819997  70.1205788  52.0180585
  52.2480365  71.6004399  53.4877173  53.2309024  73.1649071  49.1777409
  52.3403074  72.5025449  48.5986167  54.2446754  73.7301169  48.5389645
  54.9225569  74.2583761  49.0695474  54.4764287  73.5436795  47.1209626
  53.6666884  73.9791574  46.5354894  55.7887471  74.2506164  46.7461751
  55.6197292  75.3271967  46.7686922  56.5461781  73.9867551  47.4842642
  56.2326401  73.8707356  45.4598600  57.0517387  74.3280421  45.2560267
  54.6869249  72.0398122  46.8845401  55.4415910  71.4439724  47.5939286
  54.1462136  71.4995162  45.8037156  53.7213077  72.1047035  45.1157457
  54.1365028  70.0966249  45.5659853  54.2953590  69.9085180  44.5041569
  54.9343725  69.6267127  46.1410381  52.8335518  69.5050484  45.9727921
  52.6199514  68.3070226  45.7682461  51.9447463  70.3046571  46.5428410
  52.0212732  71.3070587  46.4457115  50.7943295  69.7600852  47.2885591
  50.7600668  68.6801591  47.1447362  50.8836652  70.0533406  48.7998392
  51.1954906  71.0934146  48.8952857  49.8982830  69.9273697  49.2484520
  51.8669073  69.1721097  49.5018157  53.2567853  69.4132829  49.3968702
  53.6096772  70.2531477  48.7983772  54.2060320  68.5587824  50.0737310
  55.2766458  68.7594393  50.0334222  53.7233853  67.4954977  50.8391772
  54.6276525  66.6833124  51.4545703  55.5373600  66.9409297  51.2882414
  52.3401665  67.2170670  50.9345553  51.9719611  66.3728933  51.5175613
  51.4280435  68.0591587  50.2547192  50.3582182  67.8563773  50.3042531
  49.5578995  70.4305037  46.7898067  49.6287747  71.4392846  46.0743860
  48.4145835  69.9146896  47.1778328  48.3400331  69.0936920  47.7613604
  47.1781255  70.5972332  46.7750387  47.1518261  70.6833029  45.6887609
  45.9445849  69.8332043  47.2321583  46.0090277  69.7210994  48.3144609
  45.0719876  70.4362686  46.9811854  45.8146134  68.4578275  46.5857505
  45.7991245  68.5695962  45.5016063  46.6663904  67.8422164  46.8748889
  44.3193084  67.6666113  47.1109969  44.7686650  66.9737594  48.7146051
  45.0752900  67.7767548  49.3848875  43.9100935  66.4540867  49.1399236
  45.5925441  66.2711521  48.5894352  47.0939136  71.9466404  47.4079917
  46.5157068  72.8289832  46.8571313  47.5327937  72.0333127  48.6385725
  47.8211791  71.1924161  49.1179743  47.6408010  73.2775835  49.3301775
  46.6536258  73.6708485  49.5729260  48.3993705  73.0504800  50.6160895
  47.7817022  72.4309291  51.2662754  49.3193738  72.5181506  50.3745956
  48.7365307  74.3433899  51.3239793  49.3480745  74.0321848  52.1708951
  49.3311379  74.9677312  50.6570915  47.5480213  75.1306516  51.8238135
  47.7622522  76.2903558  52.2390728  46.4002624  74.6048869  51.8712178
  48.4081213  74.3326471  48.5110063  47.9152954  75.4127764  48.3740054
  49.6061344  74.0259005  48.0078790  49.9672968  73.1031299  48.2032134
  50.4259195  74.9382644  47.1945614  50.5665684  75.8599693  47.7591650
  51.3930828  74.4644159  47.0267461  49.7978155  75.2727563  45.8484208
  49.9743107  76.3964750  45.3009724  49.0353503  74.3248784  45.2835994
  48.9918241  73.3803554  45.6386782  48.2393575  74.6609801  44.0589157
  48.9039392  74.9533511  43.2459276  47.4527597  73.4347923  43.6260458
  46.7760986  73.1353650  44.4264039  46.8755058  73.6698205  42.7318199
  48.1417063  72.6184916  43.4090092  47.2536132  75.8657345  44.3281242
  47.2230698  76.8447385  43.5731988  46.4598036  75.7817058  45.3991178
  46.5273006  74.9710193  45.9977253  45.5329796  76.9018182  45.8117213
  44.7909868  77.1593023  45.0559121  44.7992869  76.6182308  47.1512728
  45.5494664  76.4270154  47.9185841  43.9064332  77.8147190  47.5865205
  43.1556629  78.0062517  46.8198653  43.4111823  77.5756918  48.5276331
  44.5257300  78.7020730  47.7175774  43.9973963  75.3335213  47.1988427
  44.6593448  74.4848437  47.0265859  43.5271376  75.2341481  48.1771481
  43.2280165  75.3560526  46.4270604  46.4023697  78.1738706  46.0968520
  46.1768381  79.2461693  45.5394329  47.4296063  78.0734757  46.9141138
  47.7181439  77.2296270  47.3882075  48.1979466  79.3163454  47.1618637
  47.5503582  80.0123704  47.6950407  49.4498802  79.1115906  47.9678878
  49.1436560  78.7502752  48.9496093  50.0334898  78.3413806  47.4636297
  50.3072887  80.3789300  48.1325891  50.1647424  80.9926054  47.2431039
  49.9995745  80.9410394  49.0143170  51.7817877  80.0010925  48.2590868
  52.5145962  79.9315054  47.2571950  52.2343610  79.7296096  49.3685422
  48.5784198  79.9151066  45.8402121  48.4497063  81.1553989  45.5942387
  49.0545954  79.0470843  44.9527437  49.1882646  78.0686577  45.1646714
  49.5842163  79.5621122  43.6888822  50.1460401  80.4482083  43.9843256
  50.5270499  78.5825172  43.0755212  49.9776346  77.6933730  42.7662229
  51.0060191  79.0336272  42.2065054  51.2874776  78.3036657  43.8049668
  48.5060681  80.0459371  42.7143486  48.7339129  80.9423376  41.9847446
  47.3263225  79.4367066  42.7087312  47.1686863  78.6553913  43.3290509
  46.2398208  79.8542442  41.8351738  46.5881630  79.9206993  40.8044747
  45.4140834  79.1451687  41.8940719  45.7542562  81.2096824  42.2767066
  45.6002783  82.1356158  41.4761368  45.5177795  81.3446100  43.5531514
  45.6500677  80.5658764  44.1825743  44.9428498  82.5438725  44.0717816
  44.1100394  82.8640031  43.4456487  44.4217410  82.2934136  45.4875669
  45.2379800  81.9053644  46.0968869  44.0752496  83.2388958  45.9048284
  43.2514288  81.2717514  45.4789170  42.5165286  81.7074749  44.8020361
  43.6224652  80.3369959  45.0586037  42.5925021  80.9951397  46.8416714
  43.2101692  81.3478232  47.9281854  41.4651321  80.3758398  46.8297758
  45.9623856  83.7152943  43.9719671  45.5821792  84.8465415  43.7333109
  47.2498323  83.4355557  44.1289294  47.5627926  82.4992927  44.3423933
  48.2330560  84.4789641  44.0420387  47.9057799  85.3529187  44.6052376
  49.5761425  83.9806437  44.6365650  49.4168692  83.9173629  45.7130067
  49.7243002  82.9793104  44.2322372  50.8120324  84.8308350  44.3545668
  50.5874307  85.5429151  43.5604654  51.0925518  85.3717989  45.2583195
  52.0045839  83.9037141  43.9063374  52.9467893  84.2097211  44.3609884
  51.8119853  82.8566978  44.1403505  52.1131868  84.0425421  42.4964192
  52.0280517  84.9882719  42.1522585  52.3088931  83.0776278  41.6315542
  52.5591016  81.8165307  41.9502952  52.6095344  81.5448549  42.9217626
  52.6982988  81.1324468  41.2203960  52.2420002  83.4341135  40.3880313
  52.0504745  84.3971812  40.1515603  52.3816819  82.7473227  39.6607719
  48.3690726  84.8723145  42.5472157  48.5760069  86.0535866  42.2349843
  48.2810639  83.9232332  41.6057142  48.2546126  82.9294898  41.7842465
  48.3837536  84.3777901  40.2134976  49.2116053  85.0863649  40.1873723
  48.6707175  83.2674096  39.2407037  47.8462716  82.5544417  39.2488202
  48.7824904  83.6814330  38.2386101  49.5916759  82.7604079  39.5285996
  47.1346466  85.1675471  39.8530623  47.2448012  86.2099603  39.2014538
  45.9611880  84.7302252  40.3109984  45.8934966  83.8603137  40.8196939
  44.7311095  85.5006673  40.0816694  44.4993240  85.5291030  39.0169788
  43.5512082  84.8783218  40.8208345  43.7646011  84.8512706  41.8893998
  42.6559814  85.4746568  40.6446140  43.3885439  83.8636024  40.4575384
  44.9069393  86.9150533  40.5641861  44.5077030  87.8501133  39.8761598
  45.4599233  87.0576737  41.7748396  45.6372537  86.2419252  42.3433532
  45.7230612  88.3703333  42.3492804  44.8234124  88.9840749  42.3039761
  46.1434769  88.2296219  43.8067570  46.9153765  87.4637948  43.8827772
  46.5416977  89.1821068  44.1564607  44.9771288  87.8424806  44.6449185
  44.1235491  88.4513448  44.3469472  44.7554431  86.7914773  44.4595817
  45.2464664  88.0428629  46.0868884  46.0530215  87.3913850  46.4232578
  45.5099088  89.0808773  46.2899241  44.0410459  87.7140690  46.8307635
  43.3277913  88.4264985  46.8925003  43.7926458  86.5142440  47.3667880
  44.7119821  85.5283648  47.2517536  45.5781210  85.7042691  46.7629171
  44.5280091  84.6209177  47.6552303  42.6623290  86.3371266  48.0810879
  42.0197843  87.1067909  48.2029625  42.4635870  85.4356365  48.4908634
  46.7508656  89.1947115  41.5743612  46.6530871  90.4238132  41.5187159
  47.7304867  88.5193466  40.9679119  47.8300934  87.5231905  41.1015190
  48.7043489  89.2037857  40.1318021  49.1610049  90.0264303  40.6820932
  49.7992087  88.2287955  39.7162816  49.3572355  87.2324227  39.7164302
  50.0955671  88.4940922  38.7014469  51.0174244  88.2407190  40.6172722
  51.5471775  89.1849213  40.4910007  50.6550535  88.1622701  41.6422758
  51.9640594  87.0849727  40.3241959  53.0858054  87.1187271  40.8648173
  51.5938811  86.1259371  39.5804347  47.9951623  89.7829359  38.9130424
  48.2380583  90.9509167  38.5318973  47.1073893  88.9873662  38.3146622
  47.0467300  88.0110385  38.5660663  46.2614641  89.4764505  37.2314742
  46.8113757  90.0104872  36.4565540  45.4379269  88.3111464  36.5539850
  44.9986241  87.6935710  37.3373833  44.2931286  88.8843201  35.6328890
  44.7317242  89.5016708  34.8489165  43.7431779  88.0593520  35.1800288
  43.6121806  89.4886272  36.2322423  46.3943658  87.3513468  35.7952416
  47.1102003  86.9218911  36.4961344  45.8157225  86.5520419  35.3322261
  46.9294443  87.9054805  35.0240557  45.2928956  90.5842865  37.6745356
  45.0736152  91.5179374  36.9109256  44.7108149  90.4799446  38.8844149
  44.8877099  89.6699375  39.4612130  43.7789116  91.4970299  39.3813370
  43.0333551  91.7212245  38.6184599  43.0623331  90.9937958  40.6301063
  43.8644241  90.6293462  41.2719207  42.5461450  91.8159133  41.1258610
  42.1034332  89.8961066  40.3673014  42.5590534  89.1540120  39.7117051
  41.7307181  89.2355488  41.7100717  41.2745879  89.9769689  42.3660749
  41.0244701  88.4244239  41.5328970  42.6292888  88.8377098  42.1816596
  40.8819433  90.5080854  39.5979209  41.2246871  90.9455762  38.6602494
  40.1543621  89.7240981  39.3879424  40.4164296  91.2806169  40.2099594
  44.4985588  92.8374942  39.7034662  43.8933088  93.9531607  39.6429044
  45.7673811  92.7266718  40.0942006  46.1389689  91.8132529  40.3125757
  46.6199596  93.8878447  40.3073306  46.0995745  94.5958655  40.9523151
  47.9435547  93.5161229  40.9611685  47.7060779  93.1613021  41.9640674
  48.4517315  92.7264254  40.4077842  48.8770600  94.7046835  41.0763099
  48.6001693  95.6791397  41.8019376  49.9449564  94.6635370  40.3260851
  50.6084362  95.4244897  40.3551602  50.1025111  93.8709486  39.7202131
  46.8155265  94.5743394  38.9984248  46.4613947  95.7115481  38.8868181
  47.2850840  93.8731958  37.9703161  47.6589573  92.9508644  38.1424292
  47.2856793  94.3771550  36.5951918  48.1043438  95.0922972  36.5148219
  47.4807225  93.5273705  35.9410330  45.9765138  95.0612324  36.1523320
  46.0115118  96.1704575  35.6203255  44.8223720  94.4140957  36.3449709
  44.8226868  93.4790162  36.7267111  43.5317867  95.0145619  35.9707692
  43.6125712  95.4309788  34.9666925  42.3869148  93.9860006  35.9859980
  42.4679109  93.5666542  36.9888378  41.4263300  94.4901334  35.8800411
  42.4878369  92.8735186  34.9646442  43.4783533  92.4238898  35.0340124
  41.4087125  91.7876804  35.2156561  40.4178473  92.2364914  35.1459877
  41.5038325  91.0004405  34.4677883  41.5451510  91.3620794  36.2098134
  42.4236051  93.4024244  33.5340032  43.2481108  94.0949903  33.3647627
  42.4996776  92.5699132  32.8345468  41.4771011  93.9205415  33.3797829
  43.1897438  96.1527643  36.9039117  42.1632396  96.8020863  36.7573923
  44.0366254  96.4007260  37.8871637  44.8470285  95.8200464  38.0488964
  43.8116402  97.5436908  38.7774597  44.7618732  97.7921924  39.2501154
  43.4794938  98.3834220  38.1670257  42.7900492  97.2812314  39.8437546
  42.4070185  98.2101274  40.5374668  42.3709919  96.0162705  40.0194244
  42.7093739  95.2717989  39.4266689  41.3574435  95.6992075  41.0148478
  40.7640841  96.5862453  41.2366309  40.4356203  94.6184172  40.4965165
  41.0724406  93.8465506  40.0643348  39.9119114  94.2137599  41.3625890
  39.4366770  95.0705901  39.4756502  38.6570395  95.6691025  39.9468712
  39.9267551  95.6589671  38.6999325  38.8245456  93.8460829  38.8622904
  39.5774320  93.0579144  38.8551221  37.9839302  93.5391924  39.4846114
  38.3512984  94.0898853  37.4779033  38.9318864  94.8778207  36.9981367
  38.4079216  93.1812716  36.8784752  36.9345270  94.5193617  37.5924843
  36.8818820  95.3615313  38.1475327  36.5617864  94.6994572  36.6712189
  36.3962835  93.7892091  38.0366354  41.8542361  95.2728768  42.3901769
  41.0654301  95.1380765  43.3078304  43.1491748  95.0336151  42.5444028
  43.7675373  95.1222820  41.7507622  43.7196452  94.6186870  43.8241779
  43.2115067  94.9552457  44.7278497  43.7788348  93.0753757  43.8369370
  43.8157790  92.7275605  42.8045810  44.9791370  92.5634866  44.5805857
  44.9426535  92.9105325  45.6132178  44.9799473  91.4736141  44.5639240
  45.8871556  92.9342898  44.1050768  42.4332485  92.4665583  44.3543738
  41.6177955  92.7793007  43.7022000  42.5018712  91.3787213  44.3532999
  42.2415186  92.8170007  45.3685387  45.1102907  95.2462877  43.9462330
  45.8180069  95.3600550  42.9595574  45.5254920  95.6448376  45.1327615
  44.9652774  95.5333205  45.9657217  46.8260469  96.3307771  45.2513163
  47.0089157  96.9491945  44.3725570  46.8809806  97.2172265  46.4910464
  47.9029483  97.2398148  46.8694274  46.4305489  98.6520514  46.1401138
  45.4084368  98.6303229  45.7620737  46.4739479  99.2756726  47.0330372
  47.0908784  99.0643497  45.3771750  46.0307128  96.6639581  47.5081830
  46.0633926  97.2201526  48.2899630  48.0230655  95.3965244  45.2949113
  47.8859342  94.1840391  45.4695662  49.2076018  95.9731038  45.1529856
  49.2711918  96.9511975  44.9092883  50.4394692  95.2103961  45.2691954
  50.4710690  94.4492266  44.4896304  51.6716570  96.1211916  45.1177860
  51.3567437  96.9655198  44.5045660  51.9194712  96.4726649  46.1193621
  52.8766774  95.4792427  44.5019277  52.7393209  94.4005594  44.5772697
  52.9078028  95.7685300  43.4514786  54.2023610  95.8775783  45.1843519
  54.4677589  97.1057272  45.3502895  54.9953294  94.9481571  45.5533606
  50.4127580  94.4866079  46.6232449  50.6079216  93.2762501  46.6680360
  50.0940861  95.2164853  47.6990391  49.8830704  96.1952756  47.5665950
  50.1084824  94.6823869  49.0790494  51.1229044  94.3727333  49.3303695
  49.6426839  95.7358394  50.1124766  49.7917524  95.2679874  51.0856119
  50.3341809  96.5711046  50.0017339  48.1293494  96.2742363  50.0024248
  47.7668847  95.9480971  49.0275641  47.5725386  95.7614037  50.7866865
  47.9218399  97.8510058  50.1468400  46.9324548  98.0865442  49.7547461
  47.9565677  98.0880188  51.2101924  49.0291082  98.7216511  49.3668377
  48.5518640  99.6815926  49.1697315  49.8403924  98.8597741  50.0815679
  49.5998900  98.1450157  48.0405489  48.8483572  98.0173566  47.3779771
  50.2795420  98.7874112  47.6591028  50.0425341  97.2557125  48.2230458
  49.2607965  93.4411221  49.1826849  49.5314695  92.5721081  50.0111013
  48.2708691  93.3433373  48.2834914  48.2497504  94.0173557  47.5315921
  47.2004089  92.3604310  48.3591893  47.0770477  91.9998109  49.3803819
  45.9028709  93.0265293  47.9179273  46.1688896  93.8239279  47.2240333
  45.2887500  92.2875769  47.4032383  45.1251247  93.6076003  49.0797532
  44.1743123  94.3919574  48.7928583  45.4894164  93.2838372  50.2558880
  47.3894715  91.0978254  47.5519153  46.6379190  90.1716811  47.7192643
  48.3852090  91.0768879  46.6805018  48.8946812  91.9308372  46.5035609
  48.7064844  89.9086824  45.8869535  47.8551850  89.5681289  45.2975370
  49.8854288  90.2424697  44.9438220  50.6866469  90.6689891  45.5473378
  50.4108359  89.0084305  44.1939796  49.6102505  88.5816030  43.5898422
  51.2375399  89.3007643  43.5465213  50.7579459  88.2663070  44.9129138
  49.4634109  91.3267641  43.9359784  48.6787443  90.8953593  43.3144569
  49.0542765  92.1558526  44.5133179  50.5917010  91.8346951  43.0485075
  51.0010562  91.0061977  42.4704763  50.2062722  92.5953069  42.3695277
  51.3765899  92.2666891  43.6693379  48.9933237  88.6510192  46.7657234
  48.5129063  87.5258891  46.4967189  49.7817345  88.8231788  47.8128206
  50.1523396  89.7300460  48.0584687  50.1223007  87.6934901  48.6497579
  49.8611201  86.7654993  48.1411154  51.6118562  87.6810849  48.9477942
  51.9495304  88.6205516  49.3853759  51.7980584  86.8669573  49.6482405
  52.4777570  87.4281465  47.7593823  53.0024429  88.3551515  46.9225881
  52.7531633  89.3959503  47.1292212  53.7665855  87.7494282  45.9559985
  54.2012696  88.2215735  45.1761087  53.7918812  86.3988642  46.1825067
  54.4323278  85.3577124  45.4528965  55.0306307  85.6313770  44.5838510
  54.2545507  84.0475155  45.8959455  54.7497150  83.2241168  45.3812353
  53.4250847  83.7605833  47.0261234  53.2594803  82.7379064  47.3649547
  52.7833304  84.8233978  47.7499009  52.1683146  84.5637339  48.6115453
  52.9685805  86.1519308  47.3098416  49.3484372  87.8526494  49.9294037
  49.6413150  88.7288819  50.6838553  48.3670820  87.0016435  50.1711968
  48.2485960  86.1826246  49.5921732  47.4268835  87.2138621  51.2756103
  47.6144292  88.1516270  51.7986043  45.9403810  87.2224274  50.7412903
  45.8004371  86.3434106  50.1121286  44.9463670  87.2024941  51.8493652
  45.0853965  88.0815064  52.4787371  43.9385352  87.2092253  51.4342384
  45.0863454  86.3021340  52.4475787  45.6858477  88.4493087  49.8424505
  46.3642460  88.4226366  48.9897100  44.6555421  88.4325266  49.4870798
  45.8575861  89.3612182  50.4143141  47.6616446  86.0543114  52.2216692
  47.6785118  84.9260323  51.7725559  47.8861833  86.2752908  53.5098118
  48.1912189  87.1517110  53.9084849  47.9382042  85.0609099  54.3588672
  48.2862445  84.2424451  53.7287224  48.8468571  85.1505586  55.5927311
  48.5738052  84.3053906  56.2245799  49.8632824  85.0140443  55.2234839
  48.7710319  86.4293568  56.4002951  49.5326733  87.1146960  56.0283900
  47.7902077  86.8976569  56.3179485  49.0513682  86.1410065  57.8711338
  50.0156951  85.4188783  58.1891240  48.1850106  86.6693461  58.7777747
  48.3290090  86.5058815  59.7640024  47.4018729  87.2225856  58.4604061
  46.5996381  84.4802974  54.7188835  45.6481586  85.2093484  54.9598388
  46.5472583  83.1538743  54.7346033  47.3670155  82.6447077  54.4365314
  45.3745071  82.4033787  55.1062859  44.4718688  82.8239091  54.6630055
  45.5653236  81.0050998  54.5758415  46.1260157  81.0963372  53.6455731
  46.1666381  80.4701264  55.3109092  44.2808825  80.2384118  54.3188778
  44.5421910  79.3666131  53.7190564  43.9435147  79.9136908  55.3031737
  43.1555886  81.0185760  53.6241697  43.4228098  81.8189497  52.6947124
  41.9824857  80.7974002  54.0088680  45.0924808  82.3671401  56.6569866
  45.9430531  81.9525050  57.4238018  43.8928780  82.8134949  57.1166283
  42.8605509  83.6030789  56.4328040  42.4724101  83.0345409  55.5876936
  43.2979701  84.5344746  56.0732688  41.8233880  83.8306140  57.5026876
  40.8453064  83.6687976  57.0496193  41.9069150  84.8686736  57.8244900
  42.0504478  82.9202480  58.6181474  41.4090292  82.0615192  58.4199907
  41.8405567  83.3074798  59.6151915  43.5277839  82.5037313  58.5172032
  44.2076604  83.0198573  59.1950528  43.6314448  80.9833017  58.7460751
  43.3003162  80.1479387  57.8248674  44.0388465  80.6387542  59.9666794
  44.2619184  81.3582370  60.6394963  44.1993491  79.2739978  60.3563613
  44.8413941  78.7559002  59.6440044  44.8422654  79.1954156  61.7399297
  45.8600772  79.5808561  61.6799789  44.2638809  79.8047282  62.4344148
  44.8724496  77.8047672  62.2164546  43.8309092  77.4986819  62.3144658
  45.3581425  77.1990918  61.4513671  45.5867496  77.6086399  63.5484717
  46.5043058  76.7644001  63.5612697  45.2205781  78.2695375  64.5680024
  42.8660688  78.5950696  60.3695937  41.8582297  79.1649469  60.8155278
  42.8248990  77.3697862  59.8677654  43.6639986  76.9039500  59.5531104
  41.5820901  76.6232912  59.8648843  40.8379977  77.1215585  59.2434702
  41.8384018  75.2414849  59.2991548  41.9273869  75.2859239  58.2137028
  42.7514880  74.8216159  59.7211543  40.7547740  74.4359542  59.6434483
  40.8907936  73.5512051  59.2965801  41.1676987  76.4218630  61.2898557
  42.0322443  76.0851252  62.1336823  39.8712585  76.6361982  61.6033352
  39.2475684  77.0850016  60.9478313  39.3808052  76.3553886  62.9333004
  40.1908112  76.4987589  63.6484468  38.2337937  77.2585527  63.3162905
  37.5829114  77.4073791  62.4547210  37.6647601  76.8024476  64.1263948
  38.7856156  78.6109017  63.7786496  39.1099900  78.5483153  64.8173820
  39.6277297  78.9061818  63.1527458  37.7052752  79.6169615  63.6589236
  37.3424069  79.6263655  62.6311410  36.8903332  79.3429578  64.3289168
  38.2201553  80.9988071  64.0266927  38.9477066  81.3259493  63.2838956
  37.3879469  81.7022240  64.0537682  38.8707166  80.9454673  65.3707976
  39.6421565  80.2940415  65.3458067  39.2131004  81.8635453  65.6157588
  38.1966074  80.6427620  66.0593070  39.0226085  74.8808748  63.1038174
  39.0975945  74.3801996  64.1899336  38.6808921  74.1774748  62.0415969
  38.5350522  74.6467336  61.1591988  38.4211544  72.7445418  62.1137021
  37.8014628  72.5059390  62.9780806  37.6787890  72.3270116  60.8532247
  38.2533861  72.6035476  59.9692194  37.5672064  71.2433302  60.8890567
  36.3161417  72.9705472  60.7883530  35.7470347  73.2972426  61.8923532
  35.8209482  73.1875443  59.6563404  39.6643047  71.8714375  62.3125090
  39.6329387  70.9013023  63.0945371  40.7471440  72.2231682  61.6216409
  40.7054076  73.0860921  61.0984585  42.0201981  71.4801241  61.6437444
  41.9420765  70.5974834  62.2785211  42.3864865  71.0292073  60.2160984
  42.7128583  71.9017545  59.6501990  43.4889778  69.9977832  60.2303115
  43.1631497  69.1246870  60.7956786  43.7230628  69.7012984  59.2078627
  44.3777940  70.4216726  60.6976712  41.1337363  70.4336870  59.5479191
  40.3492999  71.1893752  59.5067261  41.3796930  70.1105362  58.5363962
  40.7840570  69.5789466  60.1269217  43.0961356  72.4360808  62.0892515
  43.8895989  72.8879383  61.2393546  43.1315900  72.7951118  63.3946812
  42.3464153  72.4015199  64.5926749  42.3486354  71.3152019  64.6821658
  41.3210923  72.7543137  64.4815521  43.0736985  73.0842923  65.7424949
  43.8294385  72.4261363  66.1711985  42.3732919  73.3877474  66.5205996
  43.7116657  74.3081620  65.0723010  44.5741837  74.6389282  65.6508814
  43.0312508  75.1466545  64.9237564  44.1693598  73.7655437  63.7250592
  44.1768628  74.5308125  62.9489112  45.5620452  73.1196396  63.8206896
  45.7351974  71.8960693  64.0015356  46.5539593  73.9571440  63.6580560
  46.3609056  74.9390096  63.5210546  47.9512356  73.5188376  63.6660962
  48.0541258  72.5208722  63.2399767  48.8061463  74.4803610  62.8611773
  48.7206858  75.4824508  63.2814302  49.8471714  74.1593321  62.8973383
  48.4654611  74.4908595  61.8258404  48.4647209  73.4752667  65.0962460
  48.7504402  74.5147414  65.6862144  48.6087564  72.2933966  65.6490306
  48.1682422  71.4641684  65.2769724  49.3382938  72.1826030  66.8872022
  49.1229998  72.9934703  67.5830772  48.9863939  70.8521580  67.5615460
  48.9872759  70.0635683  66.8090670  49.9762565  70.5245532  68.6244760
  49.9756167  71.3125176  69.3776112  49.7087569  69.5764819  69.0910650
  50.9700680  70.4444938  68.1839867  47.5686510  70.8998080  68.1338744
  46.8576019  71.0874792  67.3293306  47.3358121  69.9467926  68.6088980
  47.5008421  71.6991585  68.8718049  50.8540841  72.3501395  66.5870089
  51.4126590  71.7591877  65.6265590  51.5212290  73.1707394  67.3890230
  51.0317466  73.7647954  68.0429372  52.9540350  73.3468261  67.2388013
  53.1882301  73.6100762  66.2073211  53.4543265  74.4686454  68.1564390
  52.6584252  75.1995163  68.2995055  53.7370404  74.0466419  69.1208486
  54.6607013  75.1496640  67.5280963  55.4836609  74.4349482  67.5325195
  54.4051841  75.4024019  66.4990513  55.0769039  76.4008279  68.2650132
  55.7042449  77.2669707  67.6148087  54.7836691  76.5165395  69.4804148
  53.8444850  72.0961116  67.4043820  53.7258628  71.3441135  68.3500609
  54.7368894  71.8969317  66.4515196  54.7465256  72.5033889  65.6439206
  55.7145162  70.8236312  66.5189043  55.3219077  69.8835032  66.9063539
  56.4322625  70.5652494  65.1538724  56.9601156  71.4685751  64.8481366
  57.4356898  69.4110111  65.3006259  56.9084744  68.5071617  65.6059137
  57.9318820  69.2366509  64.3459047  58.1795860  69.6692039  66.0543196
  55.4260958  70.3992787  64.0030204  54.7261026  71.2325852  64.0639358
  55.9880539  70.4648633  63.0713546  54.6908759  69.1457614  64.0378208
  54.1282648  69.0796618  64.9690562  54.0020643  69.1044040  63.1940628
  55.3902168  68.3119394  63.9764773  56.7696252  71.2137860  67.5655873
  57.3869954  72.3040495  67.4876865  56.9526262  70.2995601  68.5245162
  56.3383780  69.4992581  68.5726336  57.9777868  70.4410493  69.5395525
  58.6208017  71.2934260  69.3202696  57.3577935  70.6363002  70.9561193
  58.1665006  70.6561562  71.6866663  56.5380647  71.9700825  71.0478774
  55.7288383  71.9507665  70.3178917  56.1207008  72.0724692  72.0495876
  57.1940922  72.8153771  70.8400178  56.5070218  69.5193229  71.2628215
  56.1245258  69.6384929  72.1352294  58.9125811  69.2224848  69.5533111
  58.5074246  68.0905321  69.2882128  60.1678525  69.4664918  69.8815111
  60.5190908  70.4133626  69.8944200  61.1002826  68.3757060  70.1768049
  60.6189829  67.4105680  70.0188225  62.2911056  68.4770036  69.2561548
  62.9105551  69.3581376  69.4234404  62.8905880  67.5787136  69.4037893
  61.9010470  68.4972348  67.8205177  61.6515109  69.6711578  67.1343148
  61.2882738  69.3760744  65.8971072  61.0633245  70.1681868  65.1829260
  61.2704887  68.0552670  65.7668247  61.0246481  67.5439511  64.9312302
  61.6427777  67.4840296  66.9590066  61.6806272  66.3989331  67.0551008
  61.5506932  68.3865548  71.6318759  61.8610126  69.4468477  72.1882074
  61.5817460  67.1841510  72.2100237  61.1898840  66.4106005  71.6921789
  62.1070311  66.9268569  73.5420655  61.4770938  67.4111886  74.2881894
  62.1399895  65.4435916  73.8274349  62.2791659  65.3062071  74.8997482
  60.8362202  64.7370776  73.3818459  60.6965985  64.8736401  72.3094858
  60.9042650  63.6725922  73.6062114  59.9886958  65.1669411  73.9157188
  63.2383601  64.8926738  73.1175281  63.2835850  63.9477957  73.2811141
  63.5387960  67.4897895  73.7706487  64.2852421  67.8090970  72.8153295
  63.8833425  67.6321740  75.0528754  63.2289685  67.3028955  75.7481952
  65.1413337  68.2026162  75.5058697  65.1927972  69.2593381  75.2435920
  65.2458189  68.0704254  77.0294778  64.6633015  68.8809702  77.4674160
  64.8803664  67.1156292  77.4075105  66.6502681  68.2257843  77.5401950
  67.1770991  69.4924278  77.7601411  66.5485648  70.3656576  77.5854574
  68.4820005  69.6542960  78.1954535  68.8806276  70.6503233  78.3881362
  69.2885938  68.5300030  78.3873144  70.3175381  68.6549835  78.7245878
  68.7757312  67.2335598  78.1459705  69.3998382  66.3515026  78.2893783
  67.4716036  67.0935023  77.7251390  67.0649887  66.1008660  77.5316511
  66.3005118  67.4541197  74.8877564  67.3133422  68.0461343  74.4685857
  66.1178501  66.1453016  74.8886875  65.2278722  65.8131161  75.2317494
  67.0708323  65.1784151  74.4202041  68.0525804  65.3536293  74.8601699
  66.5933479  63.8085530  74.8364088  65.5358782  63.6623639  74.6162138
  67.1844817  63.0868505  74.2726656  66.7789146  63.4771442  76.2820745
  65.8257336  63.0450178  77.1268785  64.8168946  62.9694704  76.7211244
  66.3545804  62.7864847  78.3545949  65.8355357  62.4561534  79.1555776
  67.6961181  63.0534086  78.3322939  68.6635161  62.9536263  79.3565822
  68.3430988  62.6038444  80.3379507  69.9529474  63.3048755  79.0513675
  70.7298439  63.2444313  79.8135212  70.2964582  63.7460549  77.7613823
  71.3225559  64.0260995  77.5230588  69.3265711  63.8406125  76.7352210
  69.6394325  64.2009841  75.7552461  68.0056418  63.4888302  77.0314588
  67.2093707  65.1752873  72.8993112  68.3216489  64.9703763  72.3872930
  66.0817607  65.3668912  72.1996764  65.1999460  65.3065893  72.6884154
  66.0592569  65.5505161  70.7477314  66.5678180  64.7100139  70.2754806
  64.6099675  65.6300619  70.1918020  63.9611875  66.0259833  70.9731022
  64.6039814  66.3070934  69.3375815  64.1010085  64.2534334  69.7551582
  64.5523359  64.0851813  68.7773567  64.4999313  63.5316867  70.4679285
  62.5753049  64.0821661  69.6517901  61.7922651  65.0610177  69.8562385
  62.1725243  62.9202091  69.3791350  66.8815589  66.7687886  70.3879748
  67.6958298  66.7339892  69.4450719  66.7290387  67.8148506  71.1863869
  66.0978634  67.7668657  71.9734157  67.3881708  69.0951721  70.8997569
  67.2983050  69.3323352  69.8396734  66.7301781  70.2171924  71.7100790
  66.2284489  69.7592038  72.5624953  67.5220012  70.8761685  72.0662625
  65.7202657  71.0270516  70.9003956  66.2900172  71.8019647  70.3875665
  65.2968987  70.3419225  70.1659158  64.5566500  71.6926924  71.7293768
  64.2057950  72.5519682  71.1578482  63.7559756  70.9571705  71.8070141
  64.9175215  72.1432861  73.0864007  65.5884253  72.8947105  73.1595372
  64.4001949  71.6319033  74.2185711  63.4752205  70.6553114  74.1815482
  63.1599863  70.2960016  73.2918157  63.1003816  70.2860420  75.0436593
  64.8155382  72.0789937  75.4013839  65.5191728  72.8022019  75.4457499
  64.4251829  71.6930077  76.2491670  68.8777213  69.0593164  71.1436170
  69.6354312  69.6267350  70.3984929  69.2779720  68.3633948  72.2000896
  68.5826045  67.8202021  72.6915211  70.6354857  68.4108914  72.7467758
  71.2384098  69.1061772  72.1626873  70.6273557  68.8831607  74.2272584
  69.9626080  68.2645723  74.8302163  71.6500212  68.7759671  74.5888726
  70.2041018  70.3518502  74.3800465  70.8131920  71.2899881  73.8122169
  69.1345421  70.5463060  75.0919116  68.7927820  71.4854103  75.2381407
  68.6500025  69.7574299  75.4956401  71.4508624  67.1405249  72.6686378
  72.6201012  67.1974514  72.9741816  70.8979894  65.9976493  72.2928800
  69.9077132  65.8548565  72.1548123  71.7848825  64.8584747  72.1434953
  72.3248362  64.7215042  73.0803989  71.0588350  63.5584461  71.8041038
  70.2469978  63.8566701  71.1407169  71.7510313  62.9132505  71.2630984
  70.4904367  62.8062896  72.9913081  69.9741992  63.5185915  73.6349117
  69.5162841  61.7188457  72.5536079  70.0319496  61.0058621  71.9103021
  69.1297929  61.2016240  73.4317918  68.6894590  62.1702660  72.0052645
  71.6057312  62.2053807  73.7849785  72.2666563  62.9960183  74.1401819
  71.1952759  61.6650641  74.6380234  72.1696017  61.5163023  73.1562336
  72.8193659  65.2105692  71.0588334  72.5044682  65.9435700  70.1245368
  74.0610646  64.6593729  71.1640769  74.6184993  63.6786116  72.1142646
  74.0411725  62.7551396  72.0696159  74.5779790  64.0832889  73.1255476
  76.0578473  63.4986034  71.6133470  76.1181216  62.6185041  70.9731194
  76.7309911  63.3767353  72.4619500  76.3767545  64.7539090  70.8518105
  77.1332660  64.4779418  70.1172145  76.7000190  65.6462482  71.3878427
  75.0342214  65.0226052  70.1453316  74.8678345  66.0493369  69.8193933
  74.8664849  64.0861763  68.9669495  74.3460038  62.9611328  69.1300375
  75.3066943  64.5516391  67.7903914  75.5700994  65.5245388  67.7257132
  75.5314618  63.6954065  66.6301796  74.5911723  63.2549475  66.2985915
  76.1039446  64.5128505  65.5026314  76.4188518  63.8621721  64.6868188
  75.3616071  65.2215812  65.1355674  77.2270282  65.2212547  66.0026091
  77.6099867  65.7511453  65.2996449  76.6237155  62.6780432  67.0085430
  77.2808294  62.8261537  68.0526797  76.8231901  61.6587271  66.1718957
  76.2196084  61.4844150  65.3810710  77.9351999  60.7461307  66.4068764
  77.8525406  60.2068658  67.3505183  78.0324072  59.7451760  65.2881118
  78.0829446  60.2637230  64.3306912  79.2556795  58.9400004  65.4765476
  79.2056625  58.4207556  66.4336182  79.3382564  58.2098096  64.6714992
  80.1274332  59.5942063  65.4638293  76.7444788  58.8787001  65.2404665
  75.8797874  59.5210148  65.0736050  76.8218948  58.1561662  64.4280313
  76.6265107  58.3499044  66.1862780  79.2477395  61.5221230  66.5071050
  79.9935511  61.3891947  67.4265947  79.4751867  62.3964143  65.5535189
  78.7918526  62.5051248  64.8177636  80.6899468  63.1503556  65.4687882
  81.5645819  62.5042556  65.3935060  80.5877893  63.9783867  64.2002389
  80.9076209  63.3651096  63.3578030  79.5478482  64.2733358  64.0601405
  81.3817200  65.1094435  64.2747202  81.2982108  65.6131077  63.4617329
  80.8484132  63.9804397  66.7703402  81.9660409  64.0616265  67.3464330
  79.7243701  64.5411796  67.2493674  78.8740894  64.4032178  66.7220264
  79.6572639  65.3396624  68.4887555  80.3669857  66.1617546  68.3962428
  78.6472018  65.7402788  68.5746644  79.9827313  64.5432300  69.7445296
  80.6669740  65.0298596  70.6214603  79.5067723  63.3186267  69.8095583
  78.8083039  63.0376211  69.1362998  79.8979615  62.3697547  70.8281893
  79.5513033  62.6956478  71.8088630  79.2657875  61.0152699  70.5122132
  78.2225907  61.3095088  70.3970480  79.6546913  60.6744905  69.5526699
  79.3646811  59.8915332  71.5250507  80.4179737  59.7056756  71.7351279
  78.6264480  60.2552227  72.8509986  77.5729321  60.4407793  72.6417817
  78.7162650  59.4287261  73.5559362  79.0737869  61.1505480  73.2827171
  78.8604496  58.5657304  70.9424774  79.4598708  58.2994678  70.0719041
  78.9455248  57.7818480  71.6950675  77.8170223  58.6721190  70.6457624
  81.4471567  62.2512796  70.9162465  82.0839789  62.5874891  71.9602553
  82.0445639  61.8287589  69.8054171  81.4769425  61.4732387  69.0494338
  83.4981784  61.7311289  69.6857754  83.8688256  60.9576784  70.3584522
  83.9094211  61.3695192  68.2455865  83.4300640  62.1563149  67.6631188
  84.9889473  61.4192429  68.1032807  83.3920042  59.9945235  67.7755841
  82.3438186  59.9375262  68.0691130  83.5149091  59.7378172  66.2732535
  84.5629344  59.7941963  65.9790371  83.1255144  58.7467252  66.0404247
  82.9440174  60.4892753  65.7278236  84.0540697  58.8707016  68.5720022
  83.8248190  58.9911819  69.6307883  83.6764821  57.9084276  68.2262312
  85.1337833  58.9098145  68.4278232  84.2127199  62.9948450  70.1903426
  85.1646981  62.8851328  70.9729005  83.7623897  64.1783188  69.7929381
  83.0136009  64.2628700  69.1204310  84.4083205  65.3901356  70.2584921
  85.4575918  65.3816452  69.9634381  83.7491657  66.6153986  69.6648404
  82.6798154  66.4133012  69.6036375  83.9230670  67.4442534  70.3510315
  84.2778768  66.9823553  68.2791795  85.3593242  67.1001608  68.3476948
  84.0444933  66.1639765  67.5980845  83.6671333  68.2551836  67.7608066
  82.6322830  68.3271838  68.0954706  84.2299518  69.1101157  68.1355410
  83.7084389  68.2483710  66.2469997  84.6977136  68.5932290  65.9461522
  83.5690791  67.2174689  65.9215479  82.6639459  69.1165403  65.6153419
  82.7931665  70.0719136  65.9164457  82.7472551  69.0661732  64.6100446
  81.7471735  68.7968921  65.8936448  84.4209780  65.4642832  71.7930588
  85.4401432  65.8290159  72.3978020  83.3024347  65.0439912  72.3915983
  82.6170228  64.5736187  71.8179612  83.0061923  65.2341456  73.8075173
  83.3711659  66.1509788  74.2704539  81.4775424  65.1010621  74.0569895
  81.0720861  64.4292384  73.3004458  81.1438080  64.5404324  75.4888658
  81.5485727  65.2120126  76.2459961  80.0627993  64.4682392  75.6084861
  81.5885408  63.5521364  75.6054118  80.7503035  66.4098434  73.6919210
  80.9237882  67.1310011  74.4906297  81.1752841  66.7886851  72.7624211
  79.2026814  66.1914424  73.5099654  78.7768883  65.8130208  74.4392647
  78.7291813  67.1390953  73.2533512  79.0283844  65.4707025  72.7110571
  83.7599798  64.1858385  74.5965462  84.4432708  64.5093157  75.5790770
  83.6002153  62.9382843  74.1601497  82.9079410  62.7874087  73.4403635
  84.3513090  61.7969456  74.6404394  84.1273573  61.5626962  75.6811468
  84.0309639  60.6103672  73.7812358  83.5774862  60.9549631  72.8518747
  85.2988575  59.8290206  73.4674772  85.7526845  59.4836771  74.3963903
  85.0519600  58.9703374  72.8431332  86.0012363  60.4726811  72.9378884
  83.0097055  59.7420189  74.4656190  83.4011391  59.4609974  75.4433241
  82.0974826  60.3246946  74.5938291  82.7014711  58.4898224  73.6655136
  83.6131877  57.9063593  73.5372816  81.9599961  57.8924083  74.1959948
  82.3095331  58.7700569  72.6877850  85.8945863  61.9841179  74.6040034
  86.5900684  61.5102250  75.4934257  86.4156342  62.6622496  73.5874486
  85.8124127  62.9899521  72.8466151  87.8180440  62.9504702  73.5001243
  88.4039787  62.0457216  73.6620188  88.0609133  63.3701801  72.5239289
  88.1629991  63.9507268  74.5601949  89.2074179  63.8683627  75.1580264
  87.2983492  64.9278342  74.7562321  86.5455973  65.0559194  74.0951283
  87.4550414  65.9168913  75.8361190  88.4389145  66.3839978  75.7924786
  86.3884957  67.0038645  75.6602884  86.4226953  67.4529542  74.6676918
  85.4183111  66.5304742  75.8110980  86.4733510  68.1354821  76.6477959
  87.1851504  69.2979703  76.3374286  87.7015447  69.3577295  75.3793756
  87.2427670  70.3857155  77.2416519  87.7905457  71.2952424  76.9950755
  86.5842998  70.2794198  78.4634588  86.6333150  71.0992059  79.1801514
  85.8616147  69.1246076  78.7716859  85.3484764  69.0470741  79.7302149
  85.7952070  68.0736701  77.8586927  85.2050256  67.1870168  78.0902778
  87.4243179  65.2494427  77.2593837  88.2432714  65.5759063  78.1162930
  86.5590089  64.2619434  77.4853077  85.8830727  63.9632305  76.7968455
  86.5491977  63.6132357  78.7895243  87.0180716  64.2541914  79.5361381
  85.1269623  63.3529292  79.2044180  85.0340535  63.4413513  80.2868453
  84.4627362  64.0709300  78.7233998  84.7713640  62.0400851  78.8056959
  83.8645137  61.8614566  79.0651458  87.3110827  62.2744368  78.9333292
  87.3535202  61.6616476  80.0267973  87.8281175  61.7426087  77.8401961
  87.5530596  61.9561935  76.8921328  88.8209609  60.7512030  78.0449369
  88.4216272  60.1421060  78.8558825  89.0833159  59.8659502  76.8660704
  88.9604804  60.4421021  75.9489767  90.5050647  59.3169274  76.9347321
  90.6285297  58.7402304  77.8513981  90.6887429  58.6738735  76.0740096
  91.2151561  60.1438641  76.9279166  88.2062308  58.7355443  76.9696955
  88.3521539  58.1479595  76.2246782  90.0022910  61.5767211  78.4205857
  90.6932683  61.2600833  79.3642624  90.1904359  62.6866841  77.7337132
  89.5917886  62.9899029  76.9788760  91.3392984  63.4412248  78.0157347
  92.2220378  62.8151830  77.8855728  91.4566782  64.6428372  77.0951644
  92.1117946  64.4124577  76.2550174  90.4738609  64.9294025  76.7209313
  92.0031350  65.7048815  77.8378829  92.0873619  66.4784651  77.2756783
  91.2529319  63.8121556  79.4797679  92.1727583  63.5502825  80.2473823
  90.1344565  64.3769932  79.9180739  89.4148586  64.6836082  79.2791173
  90.1873884  64.9830680  81.2394071  91.2323443  65.2489915  81.3989409
  89.3226155  66.2815685  81.3276693  88.2749382  66.0189425  81.1810437
  89.4898251  66.9361354  82.6603223  90.5372457  67.1994879  82.8074832
  88.8796024  67.8383655  82.7016690  89.1747857  66.2487559  83.4454090
  89.8352413  67.3068733  80.2940892  89.7570507  66.8840255  79.2924965
  89.2341809  68.2142777  80.3527700  90.8770256  67.5474132  80.5060489
  90.1959349  63.9350715  82.4082409  91.0210697  64.0546954  83.2903915
  89.3518112  62.8934404  82.3603055  88.5689185  62.9611009  81.7257975
  89.5121061  61.6341887  83.1607364  89.1570930  61.7487569  84.1849137
  88.7496486  60.4162302  82.4939616  89.0395617  60.3980808  81.4433803
  89.0498531  59.0383375  83.1361408  88.7597528  59.0555704  84.1866856
  88.4854437  58.2640260  82.6165421  90.1158376  58.8247872  83.0575668
  87.3369430  60.6304728  82.5009003  86.8976104  59.8808565  82.0926568
  90.9647739  61.1523211  83.3031761  91.3329692  60.5323532  84.3147768
  91.7676454  61.3708962  82.2570044  91.3688329  61.7424688  81.4067211
  93.1905332  61.0661478  82.2759695  93.3678387  60.0739358  82.6909121
  93.7999566  61.1261714  80.8778742  93.6384512  62.1167835  80.4527816
  94.8699680  60.9274347  80.9385340  93.3272789  60.3772228  80.2424600
  93.8651319  62.0665827  83.1916444  94.6172769  61.6576274  84.0883743
  93.5833484  63.3587650  83.0043482  93.0438804  63.6532647  82.2028848
  94.2106949  64.3913307  83.8387283  95.2822730  64.2102638  83.9226001
  93.9946052  65.7700254  83.1967850  94.4715360  65.5490252  82.2419054
  92.9167771  65.8483448  83.0544735  94.5373043  67.1013899  83.7447561
  94.8541146  67.7218733  82.9064647  93.4715672  67.8364276  84.5453322
  93.1545700  67.2167165  85.3841228  93.8809882  68.7740406  84.9213070
  92.6149000  68.0456222  83.9046611  95.8218787  66.9290785  84.5525157
  96.5935070  66.4905422  83.9197637  96.1578397  67.9011449  84.9135118
  95.6324339  66.2723888  85.4016143  93.7778415  64.2941718  85.3540330
  94.5366033  64.6715194  86.2627185  92.5774187  63.7447533  85.5998812
  91.9730675  63.5536311  84.8135407  92.0874490  63.4011579  86.9708673
  92.3075163  64.2483636  87.6204148  91.0081146  63.2622500  86.9088899
  92.7188893  62.1394452  87.5663445  92.4506549  61.7423085  88.7071095
  93.5482060  61.4995046  86.7580916  93.6449802  61.8315080  85.8091407
  94.3084981  60.3549509  87.1571714  93.9285504  59.9541398  88.0968997
  94.1927523  59.2878936  86.0957603  93.2581739  59.4260543  85.5520930
  95.0286556  59.3328859  85.3976619  94.1674689  57.9041098  86.6407339
  95.0888450  57.5055649  87.6172225  95.8230302  58.2244058  87.9810078
  95.0747335  56.2196984  88.1187403  95.7846056  55.9237620  88.8911418
  94.1274614  55.2776886  87.6229769  94.1241369  54.2601513  88.0137538
  93.2029265  55.6534573  86.6378708  92.4725760  54.9453847  86.2463079
  93.2307945  56.9720918  86.1558726  92.5191576  57.2888091  85.3934009
  95.7606563  60.7882047  87.3290313  96.4702487  60.2393007  88.1729537
  96.1898984  61.7654842  86.5258221  95.6220755  62.0266531  85.7324323
  97.4681137  62.4506119  86.7195786  98.3118694  61.7777463  86.8726391
  97.8100903  63.4206536  85.5437002  96.8739570  63.8472151  85.1834239
  98.7829035  64.5762512  85.9644513  99.7194984  64.1504503  86.3244298
  98.9818959  65.2156044  85.1043757  98.3245081  65.1671309  86.7574434
  98.3315820  62.6213770  84.3471048  97.5682151  61.9150398  84.0208215
  98.5685526  63.3026550  83.5299115  99.2298891  62.0764143  84.6372096
  97.3788676  63.2106842  88.0314682  98.2388983  63.0741881  88.9057554
  96.3204995  63.9852777  88.1977327  95.6845531  64.1901230  87.4402964
  96.2022024  64.7552728  89.4233752  97.1599677  65.2243363  89.6486846
  95.1361794  65.8530423  89.2957542  94.5175890  65.5007607  88.4703194
  94.5261669  65.9400516  90.1948728  95.7296991  67.2344324  88.9409249
  95.7895221  67.7954381  89.8735527  97.1422188  67.2003612  88.2602391
  97.0830869  66.6398797  87.3272532  97.4702201  68.2186823  88.0515810
  97.8564478  66.7188074  88.9281337  94.7311273  67.9985397  88.0921626
  93.8042065  68.1297342  88.6504684  95.1424408  68.9752243  87.8371931
  94.5282339  67.4404564  87.1781186  96.0738664  63.8984450  90.6877426
  96.6646591  64.2439938  91.6905198  95.3556193  62.7746222  90.6051578
  94.8157647  62.6368601  89.7627340  95.1935002  61.7920693  91.7189335
  94.9765761  62.3228035  92.6459525  94.0322094  60.8128783  91.4265798
  93.1879445  61.4144465  91.0897837  94.3687012  60.1716301  90.6119178
  93.6026168  59.9513727  92.6056737  93.6537248  58.5493722  92.5355778
  94.0034434  58.0735449  91.6193984  93.2586112  57.7586397  93.6342704
  93.3028499  56.6709611  93.5785935  92.8062562  58.3866750  94.8135586
  92.4066268  57.6484799  95.9110513  92.4744926  56.7012012  95.7708477
  92.7498379  59.7736024  94.8953848  92.3974981  60.2602863  95.8048329
  93.1489627  60.5439302  93.8007618  93.1139423  61.6318534  93.8581793
  96.4559721  60.9896793  92.1384939  96.6213989  60.6808686  93.3209663
  97.3154039  60.6350283  91.1863524  97.0668506  60.7512000  90.2143314
  98.5947417  59.9988658  91.5042223  98.4442892  59.2370031  92.2690938
  99.1971520  59.3342062  90.2634518  98.3876944  58.8113031  89.7540894
  99.5738206  60.1315261  89.6227477 100.3155563  58.3595011  90.5660166
 100.7631197  58.6250490  91.5237599  99.8983469  57.3543403  90.6267628
 101.3780793  58.4014295  89.4822672 100.9621493  57.9829601  88.5657604
 101.6640128  59.4390896  89.3102119 102.5963715  57.6045065  89.8924327
 102.7948470  57.7931936  90.9474708 102.3828358  56.5455468  89.7471537
 103.7846916  57.9831445  89.0909717 103.9829870  58.9642682  89.2257861
 104.5794777  57.4351305  89.3877810 103.6011437  57.8079798  88.1133590
  99.5707692  61.0255560  92.1158492 100.1976926  60.7479477  93.1468345
  99.6799887  62.1971384  91.4687613  99.4006164  62.1901881  90.4981934
 100.3793471  63.3928472  91.9888683 101.3768751  63.1174984  92.3312425
 100.5137456  64.4546921  90.8925670  99.5777593  64.3856635  90.3382531
 100.5602438  65.4139820  91.4080288 101.6788853  64.3413882  89.9314132
 102.1688289  65.5023352  89.2842794 101.6956970  66.4580568  89.5097608
 103.2319994  65.4448295  88.3756025 103.6025916  66.3449487  87.8851448
 103.8219772  64.2019431  88.0996233 104.8712378  64.1515560  87.2007872
 105.0988009  65.0121009  86.8412357 103.3533284  63.0171357  88.7294882
 103.8142452  62.0528405  88.5155001 102.2814386  63.0987411  89.6385875
 101.9088348  62.1968429  90.1242274  99.7718401  63.8432357  93.3253044
 100.4157653  64.5822171  94.0788492  98.5291220  63.4146428  93.5743603
  98.0725386  63.0170770  92.7659220  97.6999749  63.7095240  94.7832652
  96.7004107  63.3332348  94.5656026  98.1722632  63.1116189  96.1449286
  97.8969829  63.8409941  96.9067237  97.5943196  62.1990250  96.2907148
  99.7051712  62.7849463  96.2625085 100.0845113  62.6248558  95.2532647
 100.1933100  63.6559930  96.6996586 100.0023534  61.5416160  97.1265272
  99.3531616  60.7359188  96.7837428 101.0433851  61.2636980  96.9618642
  99.7690401  61.7841422  98.6218636 100.7016867  62.1183264  99.0763874
  99.0098587  62.5571169  98.7412491  99.3131490  60.5349777  99.2877618
 100.0166725  59.8187207  99.1776232  99.1644517  60.7125181 100.2708531
  98.4487258  60.2253803  98.8670231  97.2954946  65.2202720  94.8984282
  97.1604893  65.7454473  96.0042996  97.0524136  65.8733353  93.7574401
  97.1986878  65.3822928  92.8870492  96.6706190  67.2944574  93.7016366
  96.6673911  67.7147004  94.7073625  97.6713679  68.0928354  92.8360477
  98.5794112  67.5146296  93.0070290  97.3791233  68.0083209  91.7893622
  97.9324748  69.5698020  93.1774883  96.9867703  70.0542373  93.4205239
  98.8868020  69.6728597  94.3831909  99.8329554  69.1890158  94.1407291
  99.0654694  70.7223575  94.6171417  98.4379115  69.1801981  95.2456770
  98.4394921  70.3823075  91.9675819  97.6959524  70.3513437  91.1711591
  98.6063937  71.4166819  92.2681060  99.3747853  69.9536489  91.6076133
  95.2178262  67.4748289  93.1873231  94.9560730  68.2708616  92.2751321
  94.2808078  66.7549571  93.8084816  94.5428833  66.2581247  94.6478703
  92.9117864  66.6012639  93.3090379  92.7881296  67.1172344  92.3568916
  92.6314704  65.0987927  93.0957750  93.6418641  64.8354247  92.7829795
  92.4433941  64.6965523  94.0912297  91.6130808  64.5034404  92.0996458
  91.9675775  63.5182691  91.7965443  90.2202579  64.3759765  92.7156906
  89.8648766  65.3608756  93.0186372  89.5348587  63.9530499  91.9812100
  90.2662520  63.7229663  93.5872196  91.5549005  65.2454080  90.7543105
  92.5337951  65.2092712  90.2762323  90.8176094  64.7693896  90.1078512
  91.2719915  66.2843332  90.9237095  91.8838670  67.2211051  94.2680456
  91.2386934  68.2338722  93.9559946  91.6877970  66.7273924  95.3763073
  47.8053221  69.7481362  38.1339654  48.7422620  68.9836674  37.2203845
  46.9196676  69.1530286  39.1600049  46.9255742  70.5926960  37.1436606
  47.3722467  70.8189217  35.8153796  46.1777102  70.7150040  34.8635031
  46.6165435  71.1779094  33.5843167  45.7324987  69.2499081  34.6679481
  44.3126617  69.1089633  34.7712459  46.2080211  68.9215041  33.2638080
  45.3667102  68.0660923  32.5714586  46.1770148  70.2618329  32.5731493
  47.1250947  70.4367512  31.4541793  48.3927040  69.9579829  31.2220315
  48.8570822  70.4778423  30.0260599  47.8948069  71.3177955  29.5763502
  47.8352769  72.1600962  28.4729683  48.9162510  72.3287213  27.6792128
  46.6961342  72.8964489  28.2872923  45.6200432  72.8492305  29.1229835
  45.6566928  72.0366391  30.2465110  46.7978850  71.2683206  30.4374772
  49.1063503  66.5638601  47.1249580  48.5643394  66.6850148  48.3632035
  48.3681667  67.8075521  48.7056934  48.2478296  65.5837039  49.1452789
  48.5414865  64.2922262  48.6570290  48.3133152  63.2253714  49.3110142
  49.1415883  64.1972919  47.4131322  49.4842265  62.9685500  46.9063607
  49.8930268  62.8511012  45.5833320  49.8010435  61.5693000  45.0199754
  49.7289915  61.4125655  43.6473616  49.8921455  59.9922925  43.1189276
  49.7507615  62.5418046  42.7871807  49.7580602  62.3308728  41.3081284
  49.8268109  63.8571997  43.3137736  49.9133771  63.9865693  44.7503757
  49.9148058  65.2210530  45.3770639  49.3806450  65.3286498  46.6346887
  50.1512330  66.4350674  44.5514720  48.8712400  67.1309733  44.1708621
  48.1259863  66.1137428  43.5716026  49.3333208  68.2492328  43.2179891
  50.3088499  69.0510355  43.9156821  48.2760693  69.2297616  42.7944144
  47.1160115  68.5706066  42.3647675  48.8652878  70.0232973  41.6221526
  47.8675851  70.9116736  41.2366154  48.1165106  71.8598838  40.0034319
  46.7802293  72.5865582  39.8942459  49.2617667  72.8301797  40.4225324
  48.6028988  70.9491336  38.8243404  48.1043053  70.0844312  35.5528401
  47.8095807  71.7929394  35.7414644  45.3658453  71.2813007  35.2693458
  46.1344638  68.5975122  35.4143827  43.8825035  69.6793727  34.1147910
  47.1575419  68.4295586  33.2968056  44.4828874  68.4619622  32.5082579
  45.1973087  70.3946975  32.1627691  48.9136757  69.3158015  31.8394775
  49.7257555  71.7892995  27.8289043  48.8943568  72.9912107  26.9510595
  44.7818289  73.4151582  28.9209548  47.8247636  65.7012433  50.0267666
  49.7870038  60.7394841  45.6326185  49.8451186  59.3008534  43.9340051
  50.8382716  59.9006740  42.6280820  49.1079041  59.7781264  42.4237382
  49.6950017  61.2834054  41.0970033  50.6641547  62.7238066  40.8963242
  48.9203817  62.8346254  40.8719759  49.8208619  64.6845649  42.6982246
  50.6642819  66.1480178  43.6575187  50.7318533  67.1176360  45.1359249
  48.2760884  67.5798678  44.9386910  48.6525075  65.6958428  42.8715248
  49.6817359  67.7364199  42.3460953  49.8925958  69.4695172  44.6854364
  48.0056438  69.8594287  43.6163106  47.3318820  67.9898477  41.6177629
  49.1145219  69.3677968  40.8139877  49.7644658  70.5327373  41.8988580
  51.8100287  57.4778592  56.2836045  53.0408946  58.2349309  55.8627953
  52.9452318  59.1660856  54.8105151  54.0562385  59.9098989  54.3836242
  53.9179585  60.8585383  53.2580497  52.8417779  60.5616080  52.4304835
  52.5988192  61.3651165  51.3448513  51.5171241  61.0235983  50.5325988
  51.2141205  61.8004998  49.4130449  51.9909968  62.9197550  49.1058249
  53.0695944  63.2592701  49.9187048  53.7873680  64.3674744  49.5617480
  53.3735501  62.4795903  51.0388706  54.4967559  62.8018413  51.9180457
  55.2229196  63.7739925  51.7196358  54.7391075  61.9085872  53.0759713
  55.7956908  62.2294570  53.9087188  55.2834554  59.6968326  55.0187623
  55.3945862  58.7782046  56.0662648  54.2821869  58.0397782  56.5050739
  54.4416807  57.0546581  57.6428196  54.3651917  55.7578028  57.2354159
  53.4945192  57.1879920  58.6156058  55.6400233  57.1782735  58.2810728
  51.8188216  56.4791908  55.8227074  51.7983164  57.3767392  57.3789431
  50.9133555  58.0247002  55.9567590  51.9762340  59.3140857  54.3116461
  50.9035686  60.1434654  50.7742298  50.3626602  61.5308249  48.7714222
  51.7516706  63.5317937  48.2237883  54.3531107  64.3385338  48.8147951
  56.6015374  62.5363561  53.5449810  56.1704496  60.2579020  54.6908364
  56.3687922  58.6305203  56.5551953  66.5112177  53.8206082 130.4281471
  65.8373876  54.1237779 131.0366428  66.8977999  54.6235162 130.0786928
  70.4169063  51.1056338 128.7008917  70.3382695  50.7716201 129.5944675
  71.2378730  51.5978106 128.7000389  67.9873015  48.4224333 128.3218895
  68.6908865  48.6274336 128.9376551  67.2635664  48.9901095 128.5867979
  71.2311948  55.1591637 128.0850215  70.3541414  55.0380438 127.7212462
  71.7069701  54.3677715 127.8329104  72.7466041  52.9542959 128.0279304
  73.6085205  53.2797858 128.2875122  72.9316385  52.1674455 127.5152370
  66.5112179  30.8268205 117.1526777  65.8373877  31.1299902 117.7611735
  66.8978001  31.6297285 116.8032234  70.4169064  28.1118460 115.4254224
  70.3382696  27.7778324 116.3189982  71.2378731  28.6040228 115.4245696
  67.9873016  25.4286456 115.0464202  68.6908866  25.6336458 115.6621858
  67.2635665  25.9963218 115.3113286  71.1920510  38.1901541 123.1176255
  70.6285376  38.0991478 122.3492542  71.0772906  37.3701445 123.5978747
  76.7720069  41.8572508 118.4290719  76.1208049  42.4426589 118.0424733
  77.5664432  42.3878703 118.4885757  70.6975696  38.9461645 118.8277854
  71.4706572  38.3990633 118.6890730  71.0501095  39.8105895 119.0392315
  73.0341974  35.1054312 116.4596304  73.2867495  34.5835833 115.6979767
  72.0966533  34.9420457 116.5622987  78.0785257  34.1090090 124.2671047
  78.8648346  33.6909513 123.9161464  78.3423961  35.0136182 124.4352695
  78.2495334  39.5462940 118.9659704  77.6141167  39.6197567 119.6780608
  77.9192741  40.1356539 118.2878783  72.7538263  37.0082418 118.6620679
  72.6374521  36.3327321 119.3301763  72.8640523  36.5214791 117.8452832
  75.0969804  36.4692565 122.3667368  74.7328011  35.9423186 123.0780289
  75.9536920  36.0791034 122.1933853  74.7375291  31.4982464 117.3628716
  74.9049693  32.3662701 117.7299187  74.5472460  31.6609746 116.4390006
  74.7164512  33.9540122 118.3475383  74.5964137  34.3997173 119.1860864
  74.0217100  34.3025440 117.7888921  72.4771404  46.7243764 121.9965515
  72.3995434  47.6751589 122.0753995  71.8733047  46.3789636 122.6540441
  80.4149578  34.4261595 119.1755717  81.3267434  34.6588982 119.0003415
  79.9059225  35.0098639 118.6130796  79.0219160  39.4087413 126.5669299
  78.3928023  39.5733128 125.8645367  78.6344822  39.8229023 127.3380263
  82.9008392  40.3441851 123.9213663  82.2159430  40.7240753 123.3710696
  82.9852241  40.9537178 124.6545610  74.5747122  39.1461822 123.8319384
  75.0385468  39.4249525 123.0424006  74.3103920  38.2445266 123.6492475
  73.5116008  35.2684974 120.6408949  74.2140051  35.7206018 121.1082875
  73.1796637  34.6268793 121.2688842  74.7509773  42.0825917 120.7171054
  74.6155448  42.9277452 121.1455902  75.2919585  42.2845194 119.9536988
  68.2039170  39.6001355 121.2898979  68.7163691  40.3944605 121.4404544
  68.8561883  38.9027645 121.2232581  70.0134055  42.7167111 123.3721732
  70.1900683  43.6385076 123.1842716  70.8090888  42.4025530 123.8016112
  78.0652519  35.5965090 117.7542383  77.5499142  36.3669694 117.9930770
  77.7929827  34.9230226 118.3775444  83.0386793  38.3497444 119.6895556
  82.2616236  38.0108604 119.2450718  83.7178274  38.3550067 119.0150521
  77.8538822  33.4692182 119.5802164  77.5488958  33.7838331 120.4312307
  78.8069264  33.5473602 119.6229497  76.2985254  39.6282405 121.2295118
  75.7706616  38.8935165 120.9168355  75.7972757  40.4057081 120.9835086
  80.0883559  36.1775798 124.3966106  80.6015441  36.8105790 124.8987816
  80.7384783  35.5776994 124.0309466  71.3573569  32.3206532 117.6097615
  70.5210881  32.6581219 117.9306889  71.2178338  32.1855512 116.6724752
  74.4437854  37.4462615 114.2330091  73.5364916  37.2151869 114.4321240
  74.9408886  36.6500234 114.4204073  77.3505933  46.1560122 117.1526777
  76.6767632  46.4591819 117.7611735  77.7371755  46.9589203 116.8032234
  77.3499437  35.0516669 121.7727127  78.0971256  35.5638067 121.4634249
  77.6191027  34.7300722 122.6331520  75.6226088  37.5475210 118.7554081
  74.7137307  37.2634243 118.8526551  75.6521171  37.9674289 117.8957388
  80.8545355  41.1581800 122.5245249  80.4007682  40.3172709 122.5810439
  80.2239322  41.7943198 122.8620029  79.2978294  42.9958296 123.4595067
  79.5901269  43.5563353 122.7407432  79.8076915  43.2886857 124.2148226
  75.3202175  39.0883954 116.0942160  74.8821605  38.3719813 115.6347797
  76.0612616  39.3160069 115.5327251  74.2611920  43.7738647 124.5488520
  74.2188098  43.9999494 123.6197052  75.1774618  43.5402022 124.6974321
  83.4375290  37.3641151 122.1518478  83.2993189  37.5542747 121.2239667
  83.0811509  38.1260534 122.6086529  72.3777720  40.6501676 124.3450483
  73.1718319  40.1551997 124.1433058  71.6669413  40.1219540 123.9818188
  77.1972565  43.0319772 128.6962850  77.2509587  43.6010708 129.4640566
  76.3287346  43.2021657 128.3316887  68.6860484  34.7944758 120.4210235
  67.7558072  34.7329214 120.6380198  68.7817956  34.2720711 119.6246877
  75.5497148  46.3239795 119.3673856  75.7248904  45.8527838 120.1819479
  74.8629936  46.9505561 119.5955117  76.5054211  40.6012301 125.4137158
  76.1704044  40.5613071 126.3094807  76.0058157  39.9357017 124.9407568
  79.4413403  37.9468335 115.6874217  78.8242574  37.2215164 115.5907270
  78.9729892  38.7077696 115.3441292  70.1158234  49.4729158 126.1413717
  70.3554832  50.1047682 126.8192735  69.2727430  49.1217198 126.4279076
  71.2311949  32.1653760 114.8095522  70.3541415  32.0442561 114.4457768
  71.7069702  31.3739838 114.5574410  74.6286095  45.2808280 128.5455221
  74.5556267  46.0863252 129.0574525  74.1863489  45.4800246 127.7203242
  74.4175875  44.5180050 122.0558042  73.6343397  45.0601730 122.1496267
  75.1168620  45.0354030 122.4552283  78.8102306  39.0846367 122.2730671
  77.8758585  39.2047829 122.1035375  78.9878974  38.1818834 122.0090681
  80.2651088  41.2707507 119.8066857  80.5410932  41.1564102 120.7160731
  79.3955587  40.8724992 119.7679030  76.9005152  45.5193858 123.4499671
  77.0827547  44.7015514 123.9127423  77.7238138  45.7361550 123.0124561
  77.2347318  44.4462043 120.7114719  77.7635084  43.9354498 120.0984881
  77.4975537  44.1304574 121.5760252  70.5903066  45.4977160 123.4712495
  69.9213441  45.9823288 122.9876535  70.4515935  45.7446380 124.3855874
  74.7308334  47.5320904 130.0695153  75.2826642  47.6952525 130.8344239
  75.0714528  48.1225341 129.3975178  77.8676722  45.4802879 127.0558836
  77.7427861  44.6792619 126.5469781  78.5255813  45.9749072 126.5672806
  79.9311630  43.2811899 128.6838386  78.9841966  43.1617250 128.6116712
  80.2794403  42.3934397 128.7664647  76.9358063  43.0764615 124.8842738
  76.7883026  42.1481323 125.0650308  77.7611557  43.0984706 124.3999813
  80.5392185  43.8993174 125.9707611  81.4638733  43.6936035 125.8332062
  80.3707489  43.6509575 126.8796952  72.7888455  30.2257304 118.9416523
  73.5096817  30.6038557 118.4380240  72.1653759  30.9446181 119.0451501
  76.9319578  30.9302453 119.8774855  77.1483192  31.8127091 119.5763683
  76.4513645  30.5388666 119.1480497  80.3287501  44.4178842 121.3269702
  80.5024379  43.8525264 120.5743555  80.8216393  45.2179736 121.1449192
  81.3162674  43.7345606 118.4266600  82.0113578  44.3552299 118.6453915
  81.6585824  42.8840957 118.7018978  83.2154097  41.1845311 119.9553931
  83.7405421  41.5232584 119.2303251  83.1276450  40.2492327 119.7717066
  74.8994758  47.2517295 124.3149184  74.4599748  46.7593673 125.0082041
  75.6502875  46.7090262 124.0741260  67.3787097  43.4428836 124.3173812
  68.2045117  43.1432607 123.9372456  67.0281149  42.6736458 124.7663601
  72.3468630  42.7955304 126.3871486  71.7248639  42.1326009 126.0873714
  73.0173497  42.8216436 125.7045134  71.9082137  41.3459227 119.8629947
  72.0570257  42.0294692 119.2096619  72.7148580  41.3264317 120.3779402
  69.6634770  37.3724405 120.8691015  69.4180812  36.4686735 121.0671226
  69.8330684  37.3741555 119.9270493  68.9330417  33.1052762 118.3677177
  68.2399662  33.1797117 117.7117213  68.6882169  32.3413106 118.8898694
  75.4077542  43.8407358 117.3341694  74.8351509  44.4597545 116.8812166
  75.9810336  44.3906719 117.8681616  78.6274802  44.1244508 118.4650276
  79.5605475  44.0590069 118.6683152  78.5398015  44.9600775 118.0064809
  81.2562819  43.4410378 115.4254224  81.1776450  43.1070242 116.3189982
  82.0772486  43.9332146 115.4245696  75.7924341  35.1768170 114.6757746
  76.7383446  35.0474378 114.7446164  75.4138586  34.4382832 115.1527175
  73.9767258  33.1018147 114.6112632  73.0698713  32.8051259 114.6875345
  74.2543239  32.8047965 113.7446918  72.7466043  29.9605082 114.7524611
  73.6085207  30.2859980 115.0120428  72.9316387  29.1736578 114.2397677
  79.6823557  30.9933699 120.9516182  78.7949412  31.2783349 120.7336377
  80.0977546  30.8327462 120.1043459  67.6907808  45.5741450 126.0387627
  67.5562275  44.8141851 125.4725625  67.2739870  46.2982350 125.5716416
  78.8266771  40.7578373 115.0464202  79.5302621  40.9628376 115.6621858
  78.1029419  41.3255135 115.3113286  79.6564581  36.5088235 121.1666472
  79.5999782  36.9656786 120.3274105  80.2092923  35.7478919 120.9889315
  70.8476933  46.4710767 126.2506069  70.7309318  47.4156199 126.1484760
  70.0269380  46.1684329 126.6391869  80.7353468  41.1960903 117.0962662
  81.5699072  40.7642101 116.9140137  80.5737811  41.0242916 118.0239557
  80.3899360  37.6993016 118.4619001  80.3348164  37.5337287 117.5207446
  79.7645415  38.4069049 118.6181191  73.6995486  27.2001125 118.0404320
  73.6874155  28.1442965 118.1972591  74.5918907  27.0171270 117.7463781
  73.6285050  45.8770015 126.1272077  72.6780681  45.8771877 126.0136449
  73.9317536  45.1302750 125.6108111  82.0314265  53.5193458 123.1176255
  81.4679130  53.4283395 122.3492542  81.9166660  52.6993363 123.5978747
  87.6113824  57.1864426 118.4290719  86.9601803  57.7718506 118.0424733
  88.4058187  57.7170621 118.4885757  81.5369451  54.2753563 118.8277854
  82.3100327  53.7282550 118.6890730  81.8894850  55.1397812 119.0392315
  83.8735729  50.4346229 116.4596304  84.1261249  49.9127751 115.6979767
  82.9360288  50.2712375 116.5622987  88.9179012  49.4382008 124.2671047
  89.7042101  49.0201431 123.9161464  89.1817716  50.3428100 124.4352695
  89.0889089  54.8754858 118.9659704  88.4534922  54.9489484 119.6780608
  88.7586495  55.4648457 118.2878783  83.5932017  52.3374335 118.6620679
  83.4768276  51.6619239 119.3301763  83.7034277  51.8506709 117.8452832
  85.9363558  51.7984482 122.3667368  85.5721766  51.2715103 123.0780289
  86.7930674  51.4082951 122.1933853  85.5769045  46.8274382 117.3628716
  85.7443448  47.6954618 117.7299187  85.3866214  46.9901664 116.4390006
  81.7856860  51.7405158 125.0631251  80.8607356  51.6081372 125.2708943
  82.0341273  52.5199377 125.5601194  85.5558266  49.2832040 118.3475383
  85.4357891  49.7289090 119.1860864  84.8610855  49.6317357 117.7888921
  79.1465671  51.3838431 125.8975040  79.2758052  51.6372910 126.8114452
  78.4663122  51.9766139 125.5779695  91.2543332  49.7553513 119.1755717
  92.1661188  49.9880899 119.0003415  90.7452979  50.3390557 118.6130796
  85.4140877  54.4753739 123.8319384  85.8779222  54.7541442 123.0424006
  85.1497675  53.5737184 123.6492475  84.3509763  50.5976892 120.6408949
  85.0533806  51.0497935 121.1082875  84.0190391  49.9560710 121.2688842
  78.0935097  48.8560444 125.9426083  77.3034151  49.1117973 125.4666193
  78.5846344  49.6708782 126.0478123  80.0449842  49.2205024 122.9009559
  79.2481005  49.3323718 123.4193055  79.8175434  49.5591676 122.0350450
  76.3772800  49.1090935 128.3741073  76.6280838  49.9937945 128.6398649
  76.9132348  48.9295536 127.6016165  85.5903527  57.4117834 120.7171054
  85.4549202  58.2569370 121.1455902  86.1313340  57.6137112 119.9536988
  79.0432925  54.9293272 121.2898979  79.5557445  55.7236523 121.4404544
  79.6955637  54.2319563 121.2232581  77.0081841  53.2581927 122.0658550
  77.8457063  53.6678935 121.8492258  77.1860109  52.3181369 122.0358744
  88.9046274  50.9257007 117.7542383  88.3892897  51.6961612 117.9930770
  88.6323582  50.2522143 118.3775444  86.4893385  45.7706708 122.8127621
  85.6334981  45.3813558 122.6333260  86.9020336  45.8498669 121.9527407
  93.8780548  53.6789362 119.6895556  93.1009990  53.3400521 119.2450718
  94.5572029  53.6841985 119.0150521  88.6932577  48.7984099 119.5802164
  88.3882712  49.1130249 120.4312307  89.6463019  48.8765519 119.6229497
  87.1379009  54.9574323 121.2295118  86.6100370  54.2227082 120.9168355
  86.6366511  55.7348999 120.9835086  81.8697736  45.6193989 123.5901729
  82.4441488  45.3969170 122.8574922  82.4568719  45.6882683 124.3430331
  82.1967323  47.6498450 117.6097615  81.3604636  47.9873136 117.9306889
  82.0572093  47.5147430 116.6724752  84.1720404  42.4935238 122.3176799
  83.5184816  42.1784255 121.6933414  84.1300878  41.8710978 123.0436622
  85.2831609  52.7754533 114.2330091  84.3758670  52.5443786 114.4321240
  85.7802641  51.9792152 114.4204073  88.1899688  61.4852040 117.1526777
  87.5161386  61.7883737 117.7611735  88.5765510  62.2881120 116.8032234
  88.1893192  50.3808587 121.7727127  88.9365011  50.8929984 121.4634249
  88.4584782  50.0592640 122.6331520  86.4619842  52.8767128 118.7554081
  85.5531061  52.5926161 118.8526551  86.4914926  53.2966206 117.8957388
  77.0308013  50.5972642 122.7369283  76.8332412  50.0042003 122.0120350
  76.4754677  50.2924852 123.4545222  85.0104736  50.4895748 124.8563876
  85.0653346  49.5369585 124.7806353  84.1995938  50.6455187 125.3405175
  86.1595930  54.4175871 116.0942160  85.7215360  53.7011730 115.6347797
  86.9006371  54.6451986 115.5327251  82.9497096  49.1072808 122.6154255
  82.1364962  49.4066979 123.0219447  83.4456090  48.7128497 123.3328738
  82.4411171  46.6791164 128.2315490  83.0810550  46.5379923 127.5338454
  81.6088701  46.3925677 127.8554092  79.5254238  50.1236676 120.4210235
  78.5951826  50.0621131 120.6380198  79.6211710  49.6012629 119.6246877
  79.4439787  46.6491489 123.0088477  79.7046605  47.5636822 122.8997638
  80.2656960  46.1815931 123.1585090  90.2807158  53.2760253 115.6874217
  89.6636328  52.5507081 115.5907270  89.8123646  54.0369613 115.3441292
  82.0705703  47.4945677 114.8095522  81.1935170  47.3734478 114.4457768
  82.5463457  46.7031756 114.5574410  73.5907844  52.2822837 124.9037029
  74.2778883  51.9684567 124.3158044  73.4355972  53.1864202 124.6304280
  78.3942566  47.1713034 129.3322052  78.3100754  46.5638703 128.5972462
  77.5725272  47.6622052 129.3331549  85.1501248  47.7983980 124.4263932
  84.7799036  47.2455021 125.1144838  85.6460341  47.1942114 123.8738932
  73.1675820  50.3623430 127.1754496  73.2059919  49.8287021 127.9691614
  72.6616113  49.8358636 126.5565473  76.7984397  49.0887533 120.2508427
  77.0937838  48.1798211 120.1975481  75.8972433  49.0675272 119.9289430
  80.3278644  47.1643529 126.2335976  79.6065230  47.7779497 126.0943449
  81.1171900  47.7001294 126.1552622  78.5272239  46.7701630 120.3747752
  78.1984945  45.8899009 120.1922858  78.8811610  46.7149299 121.2624142
  81.6414062  47.0574600 120.7423230  81.9810135  47.5860521 120.0201838
  82.0886183  47.3955006 121.5181797  83.6282209  45.5549222 118.9416523
  84.3490572  45.9330474 118.4380240  83.0047513  46.2738098 119.0451501
  87.7713332  46.2594371 119.8774855  87.9876946  47.1419009 119.5763683
  87.2907399  45.8680584 119.1480497  82.5112553  49.2180084 126.4545600
  82.3657134  49.5320387 127.3469881  82.0337757  49.8364984 125.9016498
  83.7745832  45.0897012 121.7714059  83.8961743  44.1613658 121.9704947
  83.4847875  45.1035698 120.8592375  78.2180851  58.7720753 124.3173812
  79.0438871  58.4724525 123.9372456  77.8674903  58.0028376 124.7663601
  76.4189456  56.6907080 125.2762746  75.5821365  56.2629254 125.0946747
  76.3913102  56.8839523 126.2133537  82.7475891  56.6751145 119.8629947
  82.8964012  57.3586609 119.2096619  83.5542335  56.6556235 120.3779402
  80.5028524  52.7016322 120.8691015  80.2574566  51.7978652 121.0671226
  80.6724439  52.7033473 119.9270493  79.7724172  48.4344680 118.3677177
  79.0793417  48.5089035 117.7117213  79.5275924  47.6705024 118.8898694
  86.2471297  59.1699275 117.3341694  85.6745264  59.7889462 116.8812166
  86.8204090  59.7198637 117.8681616  89.4668557  59.4536425 118.4650276
  90.3999230  59.3881987 118.6683152  89.3791769  60.2892692 118.0064809
  92.0956573  58.7702296 115.4254224  92.0170205  58.4362159 116.3189982
  92.9166240  59.2624064 115.4245696  86.6318095  50.5060088 114.6757746
  87.5777200  50.3766296 114.7446164  86.2532340  49.7674750 115.1527175
  84.8161012  48.4310064 114.6112632  83.9092468  48.1343177 114.6875345
  85.0936993  48.1339883 113.7446918  75.7338953  49.7516428 125.0611678
  75.4141737  48.8981736 124.7686052  75.1872381  49.9665006 125.8169645
  86.4323078  42.9746954 120.7656873  85.6223806  42.6294039 121.1412119
  87.1207495  42.6654498 121.3544485  83.5859797  45.2897000 114.7524611
  84.4478961  45.6151898 115.0120428  83.7710141  44.5028496 114.2397677
  75.6027213  53.3719339 127.0304800  74.9090684  52.9573292 126.5174754
  76.3500204  53.4139876 126.4338219  77.5163955  53.3037593 124.9070815
  77.4934643  53.4025280 123.9552698  77.8264592  54.1502744 125.2287981
  90.5217312  46.3225616 120.9516182  89.6343167  46.6075267 120.7336377
  90.9371301  46.1619380 120.1043459  89.6660525  56.0870291 115.0464202
  90.3696375  56.2920294 115.6621858  88.9423174  56.6547053 115.3113286
  90.4958335  51.8380152 121.1666472  90.4393537  52.2948704 120.3274105
  91.0486678  51.0770837 120.9889315  91.5747222  56.5252820 117.0962662
  92.4092826  56.0934019 116.9140137  91.4131565  56.3534834 118.0239557
  91.2293115  53.0284934 118.4619001  91.1741918  52.8629205 117.5207446
  90.6039170  53.7360967 118.6181191  84.5389240  42.5293043 118.0404320
  84.5267910  43.4734883 118.1972591  85.4312662  42.3463188 117.7463781
  92.9099458  62.8237595 114.8095522  92.0328924  62.7026396 114.4457768
  93.3857211  62.0323673 114.5574410  94.4253552  60.6188917 114.7524611
  95.2872716  60.9443816 115.0120428  94.6103896  59.8320413 114.2397677
  66.5112180   7.8330327 103.8772084  65.8373879   8.1362024 104.4857042
  66.8978002   8.6359408 103.5277541  70.4169066   5.1180583 102.1499530
  70.3382697   4.7840447 103.0435288  71.2378732   5.6102351 102.1491003
  67.9873017   2.4348578 101.7709509  68.6908867   2.6398581 102.3867164
  67.2635666   3.0025340 102.0358592  71.1920512  15.1963663 109.8421561
  70.6285377  15.1053600 109.0737849  71.0772907  14.3763568 110.3224054
  76.7720070  18.8634631 105.1536026  76.1208050  19.4488711 104.7670040
  77.5664433  19.3940826 105.2131064  70.6975698  15.9523768 105.5523160
  71.4706574  15.4052755 105.4136036  71.0501097  16.8168017 105.7637622
  73.0341975  12.1116434 103.1841610  73.2867496  11.5897955 102.4225073
  72.0966535  11.9482580 103.2868294  78.0785258  11.1152213 110.9916354
  78.8648348  10.6971636 110.6406771  78.3423963  12.0198305 111.1598002
  78.2495336  16.5525063 105.6905010  77.6141169  16.6259689 106.4025915
  77.9192742  17.1418662 105.0124090  72.7538264  14.0144540 105.3865985
  72.6374522  13.3389444 106.0547070  72.8640524  13.5276914 104.5698138
  75.0969805  13.4754687 109.0912675  74.7328012  12.9485308 109.8025596
  75.9536921  13.0853156 108.9179160  74.7375292   8.5044587 104.0874023
  74.9049694   9.3724823 104.4544494  74.5472461   8.6671869 103.1635312
  74.7164513  10.9602244 105.0720690  74.5964138  11.4059295 105.9106170
  74.0217101  11.3087562 104.5134228  72.4771405  23.7305886 108.7210821
  72.3995435  24.6813711 108.7999302  71.8733049  23.3851759 109.3785747
  80.4149579  11.4323718 105.9001024  81.3267435  11.6651104 105.7248721
  79.9059226  12.0160762 105.3376103  79.0219161  16.4149536 113.2914605
  78.3928024  16.5795250 112.5890673  78.6344824  16.8291146 114.0625569
  82.9008393  17.3503974 110.6458969  82.2159431  17.7302875 110.0956002
  82.9852243  17.9599301 111.3790917  74.5747123  16.1523944 110.5564691
  75.0385469  16.4311647 109.7669313  74.3103921  15.2507389 110.3737781
  73.5116009  12.2747097 107.3654256  74.2140053  12.7268140 107.8328182
  73.1796638  11.6330915 107.9934149  74.7509774  19.0888039 107.4416361
  74.6155449  19.9339575 107.8701209  75.2919587  19.2907317 106.6782295
  68.2039171  16.6063477 108.0144286  68.7163692  17.4006727 108.1649851
  68.8561884  15.9089768 107.9477887  70.0134056  19.7229233 110.0967039
  70.1900684  20.6447198 109.9088023  70.8090890  19.4087653 110.5261419
  78.0652520  12.6027212 104.4787689  77.5499144  13.3731817 104.7176077
  77.7929829  11.9292348 105.1020751  83.0386794  15.3559567 106.4140863
  82.2616237  15.0170726 105.9696025  83.7178275  15.3612190 105.7395828
  77.8538823  10.4754304 106.3047471  77.5488959  10.7900453 107.1557614
  78.8069266  10.5535724 106.3474804  76.2985255  16.6344528 107.9540425
  75.7706617  15.8997287 107.6413662  75.7972758  17.4119204 107.7080393
  80.0883560  13.1837921 111.1211413  80.6015442  13.8167913 111.6233122
  80.7384784  12.5839116 110.7554773  71.3573570   9.3268655 104.3342921
  70.5210882   9.6643341 104.6552196  71.2178340   9.1917635 103.3970058
  74.4437855  14.4524738 100.9575398  73.5364917  14.2213991 101.1566547
  74.9408887  13.6562357 101.1449379  77.3505934  23.1622245 103.8772084
  76.6767633  23.4653942 104.4857042  77.7371756  23.9651325 103.5277541
  77.3499439  12.0578792 108.4972433  78.0971258  12.5700189 108.1879555
  77.6191028  11.7362845 109.3576827  75.6226089  14.5537333 105.4799388
  74.7137308  14.2696366 105.5771857  75.6521173  14.9736411 104.6202695
  80.8545356  18.1643922 109.2490555  80.4007683  17.3234832 109.3055746
  80.2239323  18.8005321 109.5865335  79.2978296  20.0020419 110.1840373
  79.5901270  20.5625476 109.4652739  79.8076916  20.2948980 110.9393533
  75.3202177  16.0946076 102.8187466  74.8821607  15.3781935 102.3593104
  76.0612618  16.3222191 102.2572558  74.2611921  20.7800770 111.2733827
  74.2188100  21.0061616 110.3442359  75.1774620  20.5464145 111.4219628
  83.4375292  14.3703273 108.8763785  83.2993190  14.5604869 107.9484974
  83.0811510  15.1322656 109.3331836  72.3777722  17.6563799 111.0695789
  73.1718320  17.1614119 110.8678364  71.6669414  17.1281662 110.7063495
  77.1972566  20.0381895 115.4208157  77.2509588  20.6072831 116.1885873
  76.3287347  20.2083780 115.0562194  68.6860485  11.8006881 107.1455542
  67.7558073  11.7391336 107.3625504  68.7817957  11.2782833 106.3492183
  75.5497150  23.3301917 106.0919163  75.7248905  22.8589961 106.9064786
  74.8629938  23.9567684 106.3200424  76.5054213  17.6074424 112.1382464
  76.1704045  17.5675194 113.0340114  76.0058158  16.9419140 111.6652874
  79.4413404  14.9530458 102.4119524  78.8242575  14.2277286 102.3152577
  78.9729893  15.7139818 102.0686598  70.1158235  26.4791280 112.8659023
  70.3554833  27.1109804 113.5438042  69.2727431  26.1279320 113.1524382
  71.2311950   9.1715882 101.5340828  70.3541417   9.0504683 101.1703075
  71.7069703   8.3801961 101.2819717  74.6286097  22.2870403 115.2700527
  74.5556268  23.0925374 115.7819832  74.1863490  22.4862368 114.4448549
  74.4175876  21.5242173 108.7803349  73.6343398  22.0663853 108.8741573
  75.1168621  22.0416152 109.1797590  78.8102307  16.0908489 108.9975977
  77.8758586  16.2109952 108.8280682  78.9878976  15.1880956 108.7335987
  80.2651090  18.2769630 106.5312164  80.5410933  18.1626225 107.4406038
  79.3955588  17.8787115 106.4924337  76.9005154  22.5255981 110.1744977
  77.0827548  21.7077637 110.6372730  77.7238140  22.7423673 109.7369867
  77.2347319  21.4524166 107.4360026  77.7635085  20.9416620 106.8230188
  77.4975539  21.1366696 108.3005559  70.5903067  22.5039283 110.1957802
  69.9213442  22.9885410 109.7121842  70.4515937  22.7508503 111.1101180
  74.7308336  24.5383026 116.7940460  75.2826644  24.7014648 117.5589545
  75.0714529  25.1287464 116.1220485  77.8676723  22.4865002 113.7804142
  77.7427862  21.6854741 113.2715088  78.5255814  22.9811195 113.2918112
  79.9311631  20.2874022 115.4083692  78.9841967  20.1679373 115.3362019
  80.2794404  19.3996520 115.4909954  76.9358065  20.0826738 111.6088045
  76.7883027  19.1543445 111.7895615  77.7611558  20.1046829 111.1245120
  80.5392186  20.9055297 112.6952917  81.4638734  20.6998158 112.5577368
  80.3707490  20.6571698 113.6042259  72.7888456   7.2319427 105.6661829
  73.5096818   7.6100679 105.1625546  72.1653760   7.9508303 105.7696807
  76.9319579   7.9364576 106.6020162  77.1483193   8.8189213 106.3008990
  76.4513646   7.5450789 105.8725804  80.3287503  21.4240964 108.0515009
  80.5024380  20.8587387 107.2988861  80.8216394  22.2241859 107.8694499
  81.3162675  20.7407729 105.1511907  82.0113580  21.3614421 105.3699222
  81.6585825  19.8903080 105.4264285  83.2154098  18.1907434 106.6799238
  83.7405422  18.5294707 105.9548558  83.1276451  17.2554449 106.4962372
  74.8994759  24.2579417 111.0394491  74.4599749  23.7655796 111.7327348
  75.6502876  23.7152385 110.7986566  67.3787098  20.4490958 111.0419119
  68.2045118  20.1494730 110.6617763  67.0281150  19.6798581 111.4908908
  72.3468631  19.8017426 113.1116793  71.7248640  19.1388131 112.8119020
  73.0173498  19.8278558 112.4290440  71.9082138  18.3521350 106.5875253
  72.0570258  19.0356814 105.9341926  72.7148581  18.3326440 107.1024709
  69.6634771  14.3786527 107.5936322  69.4180813  13.4748857 107.7916532
  69.8330686  14.3803678 106.6515800  68.9330419  10.1114885 105.0922484
  68.2399663  10.1859240 104.4362520  68.6882170   9.3475229 105.6144000
  75.4077544  20.8469480 104.0587001  74.8351511  21.4659667 103.6057472
  75.9810337  21.3968842 104.5926923  78.6274803  21.1306630 105.1895583
  79.5605476  21.0652192 105.3928458  78.5398016  21.9662897 104.7310116
  81.2562820  20.4472501 102.1499530  81.1776452  20.1132364 103.0435288
  82.0772487  20.9394269 102.1491003  75.7924342  12.1830293 101.4003053
  76.7383447  12.0536501 101.4691471  75.4138587  11.4444955 101.8772481
  73.9767259  10.1080269 101.3357938  73.0698715   9.8113382 101.4120652
  74.2543240   9.8110087 100.4692225  72.7466044   6.9667205 101.4769918
  73.6085208   7.2922103 101.7365735  72.9316388   6.1798700 100.9642983
  79.6823558   7.9995821 107.6761489  78.7949413   8.2845472 107.4581684
  80.0977547   7.8389585 106.8288766  67.6907809  22.5803573 112.7632933
  67.5562277  21.8203973 112.1970932  67.2739871  23.3044472 112.2961722
  78.8266772  17.7640496 101.7709509  79.5302622  17.9690499 102.3867164
  78.1029421  18.3317258 102.0358592  79.6564582  13.5150357 107.8911779
  79.5999783  13.9718909 107.0519411  80.2092925  12.7541042 107.7134622
  70.8476935  23.4772890 112.9751376  70.7309319  24.4218322 112.8730066
  70.0269381  23.1746451 113.3637175  80.7353469  18.2023025 103.8207969
  81.5699073  17.7704224 103.6385444  80.5737812  18.0305039 104.7484863
  80.3899361  14.7055139 105.1864308  80.3348165  14.5399410 104.2452752
  79.7645417  15.4131171 105.3426498  73.6995487   4.2063248 104.7649627
  73.6874157   5.1505088 104.9217897  74.5918909   4.0233393 104.4709088
  73.6285051  22.8832138 112.8517383  72.6780682  22.8834000 112.7381755
  73.9317537  22.1364873 112.3353418  86.1727451  28.6720104 113.8524670
  85.8345962  28.5561169 112.9645205  87.0417219  28.2711270 113.8325676
  82.0314266  30.5255581 109.8421561  81.4679131  30.4345518 109.0737849
  81.9166661  29.7055485 110.3224054  79.5778698  32.0206773 112.6805782
  80.3699990  31.6797597 112.2652081  79.8175348  32.1301748 113.6007935
  87.6113825  34.1926549 105.1536026  86.9601805  34.7780629 104.7670040
  88.4058188  34.7232744 105.2131064  81.5369452  31.2815686 105.5523160
  82.3100328  30.7344673 105.4136036  81.8894851  32.1459935 105.7637622
  83.3754495  32.6092068 118.7590060  83.0844361  33.5137699 118.6436726
  84.0111479  32.6508596 119.4734129  84.3010702  29.9868917 115.3491419
  84.8974274  29.7624939 114.6348382  84.3585673  29.2453662 115.9516867
  83.8735730  27.4408352 103.1841610  84.1261251  26.9189873 102.4225073
  82.9360289  27.2774497 103.2868294  88.9179013  26.4444130 110.9916354
  89.7042102  26.0263553 110.6406771  89.1817717  27.3490222 111.1598002
  89.0889090  31.8816981 105.6905010  88.4534923  31.9551607 106.4025915
  88.7586497  32.4710579 105.0124090  83.5932019  29.3436458 105.3865985
  83.4768277  28.6681361 106.0547070  83.7034279  28.8568832 104.5698138
  85.9363560  28.8046605 109.0912675  85.5721767  28.2777226 109.8025596
  86.7930676  28.4145074 108.9179160  85.5769047  23.8336505 104.0874023
  85.7443449  24.7016741 104.4544494  85.3866216  23.9963786 103.1635312
  81.7856861  28.7467280 111.7876558  80.8607358  28.6143494 111.9954250
  82.0341274  29.5261500 112.2846500  85.5558267  26.2894162 105.0720690
  85.4357893  26.7351213 105.9106170  84.8610856  26.6379480 104.5134228
  79.1465672  28.3900554 112.6220347  79.2758053  28.6435033 113.5359759
  78.4663124  28.9828262 112.3025002  83.3165160  39.0597804 108.7210821
  83.2389189  40.0105629 108.7999302  82.7126803  38.7143676 109.3785747
  91.2543334  26.7615635 105.9001024  92.1661190  26.9943022 105.7248721
  90.7452981  27.3452680 105.3376103  89.8612916  31.7441454 113.2914605
  89.2321778  31.9087168 112.5890673  89.4738578  32.1583063 114.0625569
  93.7402148  32.6795892 110.6458969  93.0553186  33.0594793 110.0956002
  93.8245997  33.2891218 111.3790917  85.4140878  31.4815862 110.5564691
  85.8779223  31.7603565 109.7669313  85.1497676  30.5799306 110.3737781
  82.3064959  31.0287343 113.4944454  82.8766316  31.4574612 112.8561938
  82.8973071  30.7469928 114.1928639  84.3509764  27.6039014 107.3654256
  85.0533807  28.0560058 107.8328182  84.0190392  26.9622833 107.9934149
  78.0935098  25.8622567 112.6671389  77.3034152  26.1180095 112.1911500
  78.5846345  26.6770905 112.7723430  80.0449843  26.2267146 109.6254866
  79.2481006  26.3385840 110.1438362  79.8175435  26.5653798 108.7595756
  85.8755511  32.7511849 117.5737381  85.9399943  33.2132257 118.4095552
  85.1666435  32.1209214 117.7019690  76.3772801  26.1153057 115.0986380
  76.6280839  27.0000067 115.3643956  76.9132349  25.9357659 114.3261472
  85.5903528  34.4179957 107.4416361  85.4549203  35.2631493 107.8701209
  86.1313341  34.6199234 106.6782295  79.0432926  31.9355395 108.0144286
  79.5557446  32.7298645 108.1649851  79.6955639  31.2381685 107.9477887
  80.8527811  35.0521151 110.0967039  81.0294439  35.9739116 109.9088023
  81.6484644  34.7379570 110.5261419  81.9759126  36.5699325 116.0977381
  82.5266551  36.4416388 115.3254375  81.1370602  36.8694214 115.7472274
  77.0081843  30.2644049 108.7903856  77.8457065  30.6741058 108.5737564
  77.1860110  29.3243491 108.7604050  88.9046275  27.9319130 104.4787689
  88.3892898  28.7023734 104.7176077  88.6323583  27.2584266 105.1020751
  86.4893386  22.7768831 109.5372928  85.6334982  22.3875681 109.3578567
  86.9020338  22.8560791 108.6772713  93.8780549  30.6851484 106.4140863
  93.1009992  30.3462644 105.9696025  94.5572030  30.6904108 105.7395828
  88.6932578  25.8046222 106.3047471  88.3882714  26.1192371 107.1557614
  89.6463020  25.8827642 106.3474804  87.1379010  31.9636445 107.9540425
  86.6100371  31.2289205 107.6413662  86.6366513  32.7411122 107.7080393
  81.8697737  22.6256112 110.3147036  82.4441489  22.4031293 109.5820229
  82.4568720  22.6944806 111.0675637  90.9277315  28.5129838 111.1211413
  91.4409196  29.1459830 111.6233122  91.5778539  27.9131034 110.7554773
  82.1967325  24.6560573 104.3342921  81.3604637  24.9935259 104.6552196
  82.0572094  24.5209552 103.3970058  84.1720405  19.4997360 109.0422106
  83.5184817  19.1846378 108.4178720  84.1300879  18.8773101 109.7681928
  85.2831610  29.7816656 100.9575398  84.3758672  29.5505909 101.1566547
  85.7802642  28.9854275 101.1449379  88.1899689  38.4914163 103.8772084
  87.5161388  38.7945859 104.4857042  88.5765511  39.2943243 103.5277541
  87.4058145  25.9879294 113.3669753  86.4880707  26.2094241 113.2091441
  87.8218289  26.0625604 112.5081461  88.1893193  27.3870710 108.4972433
  88.9365012  27.8992107 108.1879555  88.4584783  27.0654762 109.3576827
  86.4619843  29.8829250 105.4799388  85.5531063  29.5988283 105.5771857
  86.4914927  30.3028329 104.6202695  91.6939111  33.4935840 109.2490555
  91.2401438  32.6526750 109.3055746  91.0633078  34.1297238 109.5865335
  90.1372050  35.3312337 110.1840373  90.4295024  35.8917394 109.4652739
  90.6470671  35.6240898 110.9393533  77.0308014  27.6034765 109.4614590
  76.8332414  27.0104125 108.7365657  76.4754678  27.2986975 110.1790529
  85.0104737  27.4957871 111.5809183  85.0653347  26.5431707 111.5051660
  84.1995939  27.6517310 112.0650481  86.1595931  31.4237994 102.8187466
  85.7215361  30.7073853 102.3593104  86.9006372  31.6514109 102.2572558
  82.9497097  26.1134931 109.3399562  82.1364963  26.4129101 109.7464754
  83.4456092  25.7190619 110.0574044  85.1005675  36.1092688 111.2733827
  85.0581854  36.3353534 110.3442359  86.0168374  35.8756062 111.4219628
  94.2769046  29.6995191 108.8763785  94.1386945  29.8896787 107.9484974
  93.9205265  30.4614574 109.3331836  82.4411172  23.6853286 114.9560797
  83.0810551  23.5442045 114.2583760  81.6088703  23.3987800 114.5799399
  83.2171476  32.9855717 111.0695789  84.0112075  32.4906037 110.8678364
  82.5063168  32.4573580 110.7063495  88.0366321  35.3673812 115.4208157
  88.0903343  35.9364749 116.1885873  87.1681102  35.5375697 115.0562194
  79.5254240  27.1298798 107.1455542  78.5951828  27.0683254 107.3625504
  79.6211711  26.6074751 106.3492183  79.4439789  23.6553611 109.7333784
  79.7046606  24.5698944 109.6242944  80.2656961  23.1878054 109.8830397
  80.9164714  25.0691368 116.9032608  81.5887767  24.8608731 116.2545257
  80.0894500  24.8713454 116.4637841  85.7942752  33.5584739 114.7493626
  85.6553838  33.1903523 115.6219565  85.0057348  34.0732378 114.5777584
  86.3890904  38.6593835 106.0919163  86.5642660  38.1881878 106.9064786
  85.7023692  39.2859601 106.3200424  87.3447967  32.9366341 112.1382464
  87.0097800  32.8967111 113.0340114  86.8451913  32.2711057 111.6652874
  81.3192211  28.3433971 117.6635045  81.1812009  27.6114210 118.2646584
  82.2297135  28.2542871 117.3819233  90.2807159  30.2822376 102.4119524
  89.6636329  29.5569204 102.3152577  89.8123647  31.0431736 102.0686598
  80.9551989  41.8083198 112.8659023  81.1948588  42.4401722 113.5438042
  80.1121186  41.4571238 113.1524382  82.0705705  24.5007800 101.5340828
  81.1935171  24.3796601 101.1703075  82.5463458  23.7093878 101.2819717
  73.5907845  29.2884960 111.6282335  74.2778885  28.9746690 111.0403351
  73.4355974  30.1926324 111.3549587  78.3942567  24.1775156 116.0567359
  78.3100756  23.5700826 115.3217769  77.5725273  24.6684175 116.0576855
  85.4679851  37.6162320 115.2700527  85.3950023  38.4217292 115.7819832
  85.0257244  37.8154286 114.4448549  85.2569631  36.8534090 108.7803349
  84.4737153  37.3955771 108.8741573  85.9562376  37.3708070 109.1797590
  87.9278535  37.5149154 117.4258686  88.6406507  38.1496619 117.3534587
  87.4368563  37.6113020 116.6098688  89.6496062  31.4200407 108.9975977
  88.7152340  31.5401869 108.8280682  89.8272730  30.5172874 108.7335987
  85.1501250  24.8046103 111.1509239  84.7799037  24.2517143 111.8390144
  85.6460342  24.2004236 110.5984239  82.9790448  35.2643598 118.2464257
  83.6799908  35.8980081 118.3993651  82.5085563  35.6058329 117.4859896
  91.1044844  33.6061548 106.5312164  91.3804688  33.4918142 107.4406038
  90.2349343  33.2079032 106.4924337  87.7398908  37.8547898 110.1744977
  87.9221303  37.0369554 110.6372730  88.5631894  38.0715591 109.7369867
  88.0741074  36.7816084 107.4360026  88.6028840  36.2708538 106.8230188
  88.3369293  36.4658614 108.3005559  78.5758166  34.7979953 115.1795359
  79.1611603  34.0523641 115.3123264  78.3783005  35.1083910 116.0632023
  81.4296821  37.8331200 110.1957802  80.7607197  38.3177328 109.7121842
  81.2909691  38.0800421 111.1101180  73.1675821  27.3685553 113.8999802
  73.2059921  26.8349144 114.6936921  72.6616114  26.8420759 113.2810780
  85.5702090  39.8674944 116.7940460  86.1220398  40.0306565 117.5589545
  85.9108284  40.4579382 116.1220485  76.7984399  26.0949655 106.9753734
  77.0937840  25.1860334 106.9220788  75.8972434  26.0737395 106.6534736
  88.7070477  37.8156919 113.7804142  88.5821617  37.0146659 113.2715088
  89.3649568  38.3103113 113.2918112  80.3278646  24.1705652 112.9581282
  79.6065231  24.7841620 112.8188756  81.1171901  24.7063417 112.8797928
  90.7705386  35.6165939 115.4083692  89.8235721  35.4971291 115.3362019
  91.1188159  34.7288437 115.4909954  78.5272240  23.7763753 107.0993059
  78.1984946  22.8961132 106.9168165  78.8811611  23.7211422 107.9869448
  87.7751819  35.4118656 111.6088045  87.6276781  34.4835363 111.7895615
  88.6005313  35.4338746 111.1245120  81.6414063  24.0636723 107.4668537
  81.9810136  24.5922644 106.7447145  82.0886184  24.4017129 108.2427103
  91.3785941  36.2347214 112.6952917  92.3032488  36.0290076 112.5577368
  91.2101244  35.9863616 113.6042259  83.6282210  22.5611344 105.6661829
  84.3490573  22.9392597 105.1625546  83.0047515  23.2800221 105.7696807
  87.7713333  23.2656493 106.6020162  87.9876948  24.1481131 106.3008990
  87.2907400  22.8742707 105.8725804  82.5112555  26.2242206 113.1790906
  82.3657135  26.5382510 114.0715188  82.0337758  26.8427107 112.6261805
  91.1681257  36.7532882 108.0515009  91.3418135  36.1879304 107.2988861
  91.6610148  37.5533777 107.8694499  76.9858217  28.7647551 116.1178568
  76.4411685  29.5407359 116.2498842  77.8637567  29.1118355 115.9597689
  83.7745834  22.0959135 108.4959366  83.8961745  21.1675781 108.6950254
  83.4847876  22.1097821 107.5837681  92.1556430  36.0699646 105.1511907
  92.8507334  36.6906339 105.3699222  92.4979580  35.2194997 105.4264285
  77.7724239  27.8917447 119.0108724  77.0305975  28.0400082 119.5973355
  77.4516983  28.1525713 118.1475474  94.0547853  33.5199352 106.6799238
  94.5799177  33.8586624 105.9548558  93.9670205  32.5846367 106.4962372
  85.7167901  37.4333425 118.8089114  86.0255028  37.1882572 119.6811814
  86.5143383  37.6380064 118.3207985  85.7388513  39.5871335 111.0394491
  85.2993504  39.0947714 111.7327348  86.4896630  39.0444303 110.7986566
  78.2180852  35.7782876 111.0419119  79.0438872  35.4786648 110.6617763
  77.8674904  35.0090498 111.4908908  83.1862386  35.1309344 113.1116793
  82.5642395  34.4680049 112.8119020  83.8567252  35.1570476 112.4290440
  76.4189457  33.6969202 112.0008053  75.5821366  33.2691377 111.8192054
  76.3913103  33.8901646 112.9378844  82.7475893  33.6813267 106.5875253
  82.8964013  34.3648732 105.9341926  83.5542336  33.6618357 107.1024709
  80.5028525  29.7078445 107.5936322  80.2574567  28.8040775 107.7916532
  80.6724440  29.7095596 106.6515800  79.7724173  25.4406803 105.0922484
  79.0793418  25.5151158 104.4362520  79.5275925  24.6767146 105.6144000
  86.2471298  36.1761398 104.0587001  85.6745265  36.7951585 103.6057472
  86.8204092  36.7260760 104.5926923  89.4668558  36.4598548 105.1895583
  90.3999231  36.3944110 105.3928458  89.3791771  37.2954815 104.7310116
  92.0956574  35.7764418 102.1499530  92.0170206  35.4424282 103.0435288
  92.9166241  36.2686186 102.1491003  86.6318097  27.5122211 101.4003053
  87.5777201  27.3828419 101.4691471  86.2532341  26.7736873 101.8772481
  84.8161014  25.4372187 101.3357938  83.9092469  25.1405300 101.4120652
  85.0936995  25.1402005 100.4692225  75.7338954  26.7578550 111.7856985
  75.4141738  25.9043859 111.4931359  75.1872382  26.9727129 112.5414952
  79.5118862  29.4740991 115.5026491  79.7304871  30.4058099 115.5214525
  79.9244635  29.1148966 116.2881295  86.4323079  19.9809077 107.4902180
  85.6223808  19.6356162 107.8657426  87.1207496  19.6716620 108.0789791
  83.5859798  22.2959122 101.4769918  84.4478962  22.6214021 101.7365735
  83.7710142  21.5090618 100.9642983  75.6027214  30.3781462 113.7550106
  74.9090685  29.9635415 113.2420061  76.3500205  30.4201998 113.1583525
  77.5163957  30.3099716 111.6316121  77.4934645  30.4087403 110.6798004
  77.8264593  31.1564867 111.9533287  80.1751334  32.3675871 115.7462736
  81.1294588  32.3359813 115.6792667  79.9763858  31.9066494 116.5612962
  80.7650717  30.9376987 118.3133533  81.5843606  31.4321065 118.3368371
  81.0387524  30.0208955 118.2851101  90.5217313  23.3287739 107.6761489
  89.6343168  23.6137390 107.4581684  90.9371302  23.1681502 106.8288766
  78.5301563  37.9095490 112.7632933  78.3956031  37.1495891 112.1970932
  78.1133626  38.6336390 112.2961722  89.6660526  33.0932414 101.7709509
  90.3696376  33.2982416 102.3867164  88.9423175  33.6609176 102.0358592
  90.4958337  28.8442275 107.8911779  90.4393538  29.3010826 107.0519411
  91.0486679  28.0832960 107.7134622  81.6870689  38.8064807 112.9751376
  81.5703073  39.7510240 112.8730066  80.8663135  38.5038369 113.3637175
  91.5747224  33.5314943 103.8207969  92.4092828  33.0996141 103.6385444
  91.4131567  33.3596957 104.7484863  91.2293116  30.0347056 105.1864308
  91.1741920  29.8691328 104.2452752  90.6039171  30.7423089 105.3426498
  84.5389241  19.5355165 104.7649627  84.5267911  20.4797005 104.9217897
  85.4312663  19.3525311 104.4709088  82.7125203  39.4593069 116.1907305
  83.6152450  39.4916679 116.5073799  82.4862573  38.5293520 116.2053640
  84.4678805  38.2124056 112.8517383  83.5174436  38.2125917 112.7381755
  84.7711291  37.4656790 112.3353418  97.0121205  44.0012022 113.8524670
  96.6739717  43.8853087 112.9645205  97.8810973  43.6003187 113.8325676
  92.8708021  45.8547499 109.8421561  92.3072886  45.7637436 109.0737849
  92.7560416  45.0347403 110.3224054  90.4172453  47.3498690 112.6805782
  91.2093745  47.0089515 112.2652081  90.6569103  47.4593665 113.6007935
  98.4507579  49.5218466 105.1536026  97.7995559  50.1072547 104.7670040
  99.2451942  50.0524661 105.2131064  92.3763207  46.6107603 105.5523160
  93.1494083  46.0636591 105.4136036  92.7288605  47.4751853 105.7637622
  94.2148249  47.9383986 118.7590060  93.9238115  48.8429617 118.6436726
  94.8505234  47.9800513 119.4734129  95.1404456  45.3160834 115.3491419
  95.7368028  45.0916857 114.6348382  95.1979428  44.5745580 115.9516867
  94.7129484  42.7700270 103.1841610  94.9655005  42.2481791 102.4225073
  93.7754044  42.6066415 103.2868294  99.7572767  41.7736048 110.9916354
 100.5435856  41.3555471 110.6406771 100.0211472  42.6782140 111.1598002
  99.9282845  47.2108898 105.6905010  99.2928678  47.2843525 106.4025915
  99.5980251  47.8002497 105.0124090  94.4325773  44.6728376 105.3865985
  94.3162031  43.9973279 106.0547070  94.5428033  44.1860749 104.5698138
  96.7757314  44.1338523 109.0912675  96.4115521  43.6069144 109.8025596
  97.6324430  43.7436992 108.9179160  96.4162801  39.1628422 104.0874023
  96.5837203  40.0308659 104.4544494  96.2259970  39.3255704 103.1635312
  92.6250616  44.0759198 111.7876558  91.7001112  43.9435412 111.9954250
  92.8735029  44.8553417 112.2846500  96.3952022  41.6186080 105.0720690
  96.2751647  42.0643131 105.9106170  95.7004610  41.9671397 104.5134228
  89.9859427  43.7192472 112.6220347  90.1151808  43.9726951 113.5359759
  89.3056878  44.3120180 112.3025002  94.1558914  54.3889722 108.7210821
  94.0782944  55.3397547 108.7999302  93.5520558  54.0435594 109.3785747
 102.0937088  42.0907553 105.9001024 103.0054944  42.3234940 105.7248721
 101.5846735  42.6744597 105.3376103 100.7006670  47.0733371 113.2914605
 100.0715533  47.2379086 112.5890673 100.3132333  47.4874981 114.0625569
 104.5795902  48.0087809 110.6458969 103.8946940  48.3886711 110.0956002
 104.6639752  48.6183136 111.3790917  96.2534632  46.8107780 110.5564691
  96.7172978  47.0895483 109.7669313  95.9891430  45.9091224 110.3737781
  93.1458713  46.3579261 113.4944454  93.7160070  46.7866529 112.8561938
  93.7366825  46.0761846 114.1928639  95.1903518  42.9330932 107.3654256
  95.8927562  43.3851976 107.8328182  94.8584147  42.2914751 107.9934149
  88.9328852  41.1914485 112.6671389  88.1427906  41.4472013 112.1911500
  89.4240100  42.0062822 112.7723430  90.8843598  41.5559064 109.6254866
  90.0874761  41.6677758 110.1438362  90.6569190  41.8945716 108.7595756
  96.7149265  48.0803767 117.5737381  96.7793698  48.5424174 118.4095552
  96.0060189  47.4501132 117.7019690  87.2166555  41.4444975 115.0986380
  87.4674594  42.3291985 115.3643956  87.7526104  41.2649577 114.3261472
  96.4297283  49.7471875 107.4416361  96.2942958  50.5923410 107.8701209
  96.9707095  49.9491152 106.6782295  89.8826680  47.2647313 108.0144286
  90.3951201  48.0590563 108.1649851  90.5349393  46.5673603 107.9477887
  91.6921565  50.3813069 110.0967039  91.8688193  51.3031034 109.9088023
  92.4878399  50.0671488 110.5261419  92.8152881  51.8991243 116.0977381
  93.3660306  51.7708306 115.3254375  91.9764356  52.1986132 115.7472274
  87.8475597  45.5935967 108.7903856  88.6850819  46.0032975 108.5737564
  88.0253865  44.6535409 108.7604050  99.7440029  43.2611048 104.4787689
  99.2286653  44.0315652 104.7176077  99.4717338  42.5876184 105.1020751
  97.3287140  38.1060748 109.5372928  96.4728737  37.7167599 109.3578567
  97.7414092  38.1852709 108.6772713 104.7174303  46.0143402 106.4140863
 103.9403746  45.6754562 105.9696025 105.3965784  46.0196025 105.7395828
  99.5326332  41.1338140 106.3047471  99.2276468  41.4484289 107.1557614
 100.4856775  41.2119559 106.3474804  97.9772764  47.2928363 107.9540425
  97.4494126  46.5581122 107.6413662  97.4760267  48.0703039 107.7080393
  92.7091492  37.9548029 110.3147036  93.2835244  37.7323211 109.5820229
  93.2962474  38.0236724 111.0675637 101.7671069  43.8421756 111.1211413
 102.2802951  44.4751748 111.6233122 102.4172293  43.2422952 110.7554773
  93.0361079  39.9852490 104.3342921  92.1998391  40.3227177 104.6552196
  92.8965849  39.8501470 103.3970058  95.0114160  34.8289278 109.0422106
  94.3578572  34.5138295 108.4178720  94.9694634  34.2065019 109.7681928
  96.1225364  45.1108573 100.9575398  95.2152426  44.8797827 101.1566547
  96.6196396  44.3146192 101.1449379  99.0293443  53.8206080 103.8772084
  98.3555142  54.1237777 104.4857042  99.4159265  54.6235161 103.5277541
  98.2451900  41.3171212 113.3669753  97.3274461  41.5386159 113.2091441
  98.6612044  41.3917522 112.5081461  99.0286948  42.7162627 108.4972433
  99.7758767  43.2284025 108.1879555  99.2978537  42.3946680 109.3576827
  97.3013598  45.2121168 105.4799388  96.3924817  44.9280201 105.5771857
  97.3308682  45.6320247 104.6202695 102.5332865  48.8227758 109.2490555
 102.0795192  47.9818667 109.3055746 101.9026832  49.4589156 109.5865335
 100.9765805  50.6604254 110.1840373 101.2688779  51.2209311 109.4652739
 101.4864425  50.9532815 110.9393533  87.8701768  42.9326682 109.4614590
  87.6726168  42.3396043 108.7365657  87.3148432  42.6278892 110.1790529
  95.8498492  42.8249789 111.5809183  95.9047102  41.8723625 111.5051660
  95.0389694  42.9809228 112.0650481  96.9989686  46.7529912 102.8187466
  96.5609116  46.0365771 102.3593104  97.7400127  46.9806027 102.2572558
  93.7890852  41.4426848 109.3399562  92.9758717  41.7421019 109.7464754
  94.2849846  41.0482537 110.0574044  95.9399430  51.4384605 111.2733827
  95.8975609  51.6645452 110.3442359  96.8562129  51.2047980 111.4219628
 105.1162800  45.0287109 108.8763785 104.9780699  45.2188705 107.9484974
 104.7599019  45.7906492 109.3331836  93.2804927  39.0145204 114.9560797
  93.9204306  38.8733963 114.2583760  92.4482457  38.7279717 114.5799399
  94.0565231  48.3147634 111.0695789  94.8505829  47.8197954 110.8678364
  93.3456923  47.7865497 110.7063495  98.8760075  50.6965730 115.4208157
  98.9297097  51.2656666 116.1885873  98.0074856  50.8667615 115.0562194
  90.3647994  42.4590716 107.1455542  89.4345582  42.3975172 107.3625504
  90.4605466  41.9366669 106.3492183  90.2833543  38.9845529 109.7333784
  90.5440360  39.8990862 109.6242944  91.1050715  38.5169971 109.8830397
  91.7558468  40.3983286 116.9032608  92.4281522  40.1900648 116.2545257
  90.9288255  40.2005372 116.4637841  96.6336507  48.8876656 114.7493626
  96.4947592  48.5195441 115.6219565  95.8451103  49.4024296 114.5777584
  97.2284658  53.9885753 106.0919163  97.4036414  53.5173796 106.9064786
  96.5417447  54.6151519 106.3200424  98.1841722  48.2658259 112.1382464
  97.8491554  48.2259029 113.0340114  97.6845667  47.6002975 111.6652874
  92.1585966  43.6725889 117.6635045  92.0205764  42.9406128 118.2646584
  93.0690889  43.5834789 117.3819233 101.1200913  45.6114293 102.4119524
 100.5030084  44.8861122 102.3152577 100.6517402  46.3723654 102.0686598
  91.7945744  57.1375116 112.8659023  92.0342342  57.7693640 113.5438042
  90.9514940  56.7863156 113.1524382  92.9099459  39.8299718 101.5340828
  92.0328926  39.7088518 101.1703075  93.3857212  39.0385796 101.2819717
  84.4301599  44.6176877 111.6282335  85.1172639  44.3038607 111.0403351
  84.2749728  45.5218242 111.3549587  89.2336322  39.5067074 116.0567359
  89.1494510  38.8992744 115.3217769  88.4119028  39.9976092 116.0576855
  96.3073606  52.9454238 115.2700527  96.2343777  53.7509210 115.7819832
  95.8650999  53.1446204 114.4448549  96.0963385  52.1826008 108.7803349
  95.3130907  52.7247688 108.8741573  96.7956130  52.6999988 109.1797590
  98.7672289  52.8441072 117.4258686  99.4800261  53.4788537 117.3534587
  98.2762318  52.9404938 116.6098688 100.4889816  46.7492325 108.9975977
  99.5546095  46.8693787 108.8280682 100.6666485  45.8464791 108.7335987
  95.9895004  40.1338020 111.1509239  95.6192792  39.5809061 111.8390144
  96.4854097  39.5296154 110.5984239  93.8184203  50.5935516 118.2464257
  94.5193662  51.2271998 118.3993651  93.3479318  50.9350247 117.4859896
 101.9438599  48.9353465 106.5312164 102.2198442  48.8210060 107.4406038
 101.0743097  48.5370950 106.4924337  98.5792663  53.1839816 110.1744977
  98.7615057  52.3661472 110.6372730  99.4025649  53.4007508 109.7369867
  98.9134828  52.1108001 107.4360026  99.4422594  51.6000456 106.8230188
  99.1763048  51.7950531 108.3005559  89.4151921  50.1271871 115.1795359
  90.0005358  49.3815558 115.3123264  89.2176759  50.4375827 116.0632023
  92.2690576  53.1623118 110.1957802  91.6000951  53.6469246 109.7121842
  92.1303446  53.4092338 111.1101180  84.0069575  42.6977471 113.8999802
  84.0453675  42.1641061 114.6936921  83.5009868  42.1712676 113.2810780
  96.4095845  55.1966861 116.7940460  96.9614153  55.3598483 117.5589545
  96.7502038  55.7871299 116.1220485  87.6378153  41.4241573 106.9753734
  87.9331594  40.5152251 106.9220788  86.7366189  41.4029312 106.6534736
  99.5464232  53.1448837 113.7804142  99.4215371  52.3438577 113.2715088
 100.2043323  53.6395030 113.2918112  91.1672400  39.4997569 112.9581282
  90.4458986  40.1133537 112.8188756  91.9565656  40.0355334 112.8797928
 101.6099140  50.9457857 115.4083692 100.6629476  50.8263208 115.3362019
 101.9581913  50.0580355 115.4909954  89.3665995  39.1055671 107.0993059
  89.0378701  38.2253049 106.9168165  89.7205365  39.0503339 107.9869448
  98.6145574  50.7410573 111.6088045  98.4670536  49.8127281 111.7895615
  99.4399067  50.7630664 111.1245120  92.4807818  39.3928640 107.4668537
  92.8203890  39.9214562 106.7447145  92.9279938  39.7309046 108.2427103
 102.2179695  51.5639132 112.6952917 103.1426243  51.3581993 112.5577368
 102.0494999  51.3155533 113.6042259  94.4675965  37.8903262 105.6661829
  95.1884327  38.2684515 105.1625546  93.8441269  38.6092139 105.7696807
  98.6107088  38.5948411 106.6020162  98.8270702  39.4773049 106.3008990
  98.1301155  38.2034624 105.8725804  93.3506309  41.5534124 113.1790906
  93.2050890  41.8674427 114.0715188  92.8731513  42.1719024 112.6261805
 102.0075012  52.0824799 108.0515009 102.1811889  51.5171222 107.2988861
 102.5003903  52.8825694 107.8694499  87.8251971  44.0939469 116.1178568
  87.2805439  44.8699277 116.2498842  88.7031321  44.4410273 115.9597689
  94.6139588  37.4251052 108.4959366  94.7355499  36.4967699 108.6950254
  94.3241630  37.4389738 107.5837681 102.9950184  51.3991564 105.1511907
 103.6901089  52.0198257 105.3699222 103.3373334  50.5486915 105.4264285
  88.6117993  43.2209365 119.0108724  87.8699729  43.3692000 119.5973355
  88.2910738  43.4817630 118.1475474 104.8941607  48.8491269 106.6799238
 105.4192931  49.1878542 105.9548558 104.8063960  47.9138285 106.4962372
  96.5561656  52.7625343 118.8089114  96.8648782  52.5174490 119.6811814
  97.3537138  52.9671982 118.3207985  96.5782268  54.9163253 111.0394491
  96.1387258  54.4239631 111.7327348  97.3290385  54.3736220 110.7986566
  89.0574607  51.1074794 111.0419119  89.8832627  50.8078565 110.6617763
  88.7068659  50.3382416 111.4908908  94.0256140  50.4601262 113.1116793
  93.4036149  49.7971967 112.8119020  94.6961007  50.4862394 112.4290440
  87.2583212  49.0261120 112.0008053  86.4215120  48.5983294 111.8192054
  87.2306857  49.2193563 112.9378844  93.5869647  49.0105185 106.5875253
  93.7357767  49.6940649 105.9341926  94.3936090  48.9910275 107.1024709
  91.3422280  45.0370363 107.5936322  91.0968322  44.1332693 107.7916532
  91.5118195  45.0387513 106.6515800  90.6117928  40.7698720 105.0922484
  89.9187172  40.8443075 104.4362520  90.3669679  40.0059064 105.6144000
  97.0865053  51.5053316 104.0587001  96.5139020  52.1243503 103.6057472
  97.6597846  52.0552677 104.5926923 100.3062312  51.7890466 105.1895583
 101.2392985  51.7236027 105.3928458 100.2185525  52.6246733 104.7310116
 102.9350329  51.1056336 102.1499530 102.8563961  50.7716200 103.0435288
 103.7559996  51.5978104 102.1491003  97.4711851  42.8414128 101.4003053
  98.4170956  42.7120336 101.4691471  97.0926096  42.1028790 101.8772481
  95.6554768  40.7664105 101.3357938  94.7486224  40.4697217 101.4120652
  95.9330749  40.4693923 100.4692225  86.5732709  42.0870468 111.7856985
  86.2535493  41.2335776 111.4931359  86.0266137  42.3019046 112.5414952
  90.3512616  44.8032909 115.5026491  90.5698626  45.7350017 115.5214525
  90.7638390  44.4440884 116.2881295  97.2716834  35.3100994 107.4902180
  96.4617562  34.9648079 107.8657426  97.9601251  35.0008538 108.0789791
  94.4253553  37.6251040 101.4769918  95.2872717  37.9505938 101.7365735
  94.6103897  36.8382536 100.9642983  86.4420969  45.7073380 113.7550106
  85.7484440  45.2927332 113.2420061  87.1893960  45.7493916 113.1583525
  88.3557711  45.6391633 111.6316121  88.3328399  45.7379321 110.6798004
  88.6658348  46.4856784 111.9533287  91.0145089  47.6967788 115.7462736
  91.9688343  47.6651731 115.6792667  90.8157613  47.2358412 116.5612962
  91.6044471  46.2668904 118.3133533  92.4237360  46.7612983 118.3368371
  91.8781279  45.3500873 118.2851101 101.3611067  38.6579657 107.6761489
 100.4736922  38.9429307 107.4581684 101.7765056  38.4973420 106.8288766
  89.3695318  53.2387408 112.7632933  89.2349786  52.4787809 112.1970932
  88.9527380  53.9628308 112.2961722 100.5054281  48.4224331 101.7709509
 101.2090131  48.6274334 102.3867164  99.7816930  48.9901093 102.0358592
 101.3352091  44.1734193 107.8911779 101.2787292  44.6302744 107.0519411
 101.8880434  43.4124877 107.7134622  92.5264444  54.1356725 112.9751376
  92.4096828  55.0802157 112.8730066  91.7056890  53.8330286 113.3637175
 102.4140978  48.8606861 103.8207969 103.2486582  48.4288059 103.6385444
 102.2525321  48.6888874 104.7484863 102.0686870  45.3638974 105.1864308
 102.0135674  45.1983245 104.2452752 101.4432926  46.0715007 105.3426498
  86.8579385  40.6007038 119.0125730  87.5038249  40.0905992 119.5012955
  86.6496536  41.3375720 119.5869156  95.3782996  34.8647083 104.7649627
  95.3661666  35.8088923 104.9217897  96.2706418  34.6817228 104.4709088
  93.5518958  54.7884987 116.1907305  94.4546204  54.8208597 116.5073799
  93.3256328  53.8585438 116.2053640  95.3072560  53.5415973 112.8517383
  94.3568191  53.5417835 112.7381755  95.6105046  52.7948708 112.3353418
 103.7101775  61.1839416 109.8421561 103.1466640  61.0929353 109.0737849
 103.5954170  60.3639321 110.3224054 109.2901334  64.8510384 105.1536026
 108.6389314  65.4364464 104.7670040 110.0845697  65.3816579 105.2131064
 103.2156961  61.9399521 105.5523160 103.9887837  61.3928508 105.4136036
 103.5682360  62.8043770 105.7637622 105.5523239  58.0992187 103.1841610
 105.8048760  57.5773709 102.4225073 104.6147798  57.9358333 103.2868294
 110.5966522  57.1027966 110.9916354 111.3829611  56.6847389 110.6406771
 110.8605226  58.0074058 111.1598002 110.7676599  62.5400816 105.6905010
 110.1322432  62.6135442 106.4025915 110.4374006  63.1294415 105.0124090
 105.2719528  60.0020293 105.3865985 105.1555786  59.3265197 106.0547070
 105.3821788  59.5152667 104.5698138 107.6151069  59.4630440 109.0912675
 107.2509276  58.9361061 109.8025596 108.4718185  59.0728909 108.9179160
 107.2556556  54.4920340 104.0874023 107.4230958  55.3600576 104.4544494
 107.0653725  54.6547622 103.1635312 103.4644370  59.4051116 111.7876558
 102.5394867  59.2727330 111.9954250 103.7128783  60.1845335 112.2846500
 107.2345776  56.9477997 105.0720690 107.1145402  57.3935048 105.9106170
 106.5398365  57.2963315 104.5134228 100.8253181  59.0484389 112.6220347
 100.9545562  59.3018868 113.5359759 100.1450633  59.6412097 112.3025002
 112.9330843  57.4199471 105.9001024 113.8448699  57.6526857 105.7248721
 112.4240490  58.0036515 105.3376103 107.0928387  62.1399697 110.5564691
 107.5566732  62.4187400 109.7669313 106.8285185  61.2383142 110.3737781
 106.0297273  58.2622850 107.3654256 106.7321316  58.7143893 107.8328182
 105.6977901  57.6206668 107.9934149  99.7722607  56.5206402 112.6671389
  98.9821661  56.7763931 112.1911500 100.2633854  57.3354740 112.7723430
 101.7237352  56.8850981 109.6254866 100.9268515  56.9969676 110.1438362
 101.4962944  57.2237634 108.7595756  98.0560310  56.7736893 115.0986380
  98.3068348  57.6583903 115.3643956  98.5919858  56.5941494 114.3261472
 107.2691037  65.0763792 107.4416361 107.1336712  65.9215328 107.8701209
 107.8100850  65.2783070 106.6782295 100.7220435  62.5939230 108.0144286
 101.2344955  63.3882480 108.1649851 101.3743148  61.8965521 107.9477887
  98.6869352  60.9227885 108.7903856  99.5244574  61.3324893 108.5737564
  98.8647619  59.9827327 108.7604050 110.5833784  58.5902965 104.4787689
 110.0680407  59.3607570 104.7176077 110.3111092  57.9168101 105.1020751
 108.1680895  53.4352666 109.5372928 107.3122491  53.0459516 109.3578567
 108.5807847  53.5144627 108.6772713 115.5568058  61.3435320 106.4140863
 114.7797501  61.0046479 105.9696025 116.2359539  61.3487943 105.7395828
 110.3720087  56.4630057 106.3047471 110.0670223  56.7776206 107.1557614
 111.3250529  56.5411477 106.3474804 108.8166519  62.6220281 107.9540425
 108.2887880  61.8873040 107.6413662 108.3154022  63.3994957 107.7080393
 103.5485246  53.2839947 110.3147036 104.1228998  53.0615128 109.5820229
 104.1356229  53.3528641 111.0675637 103.8754833  55.3144408 104.3342921
 103.0392146  55.6519094 104.6552196 103.7359603  55.1793388 103.3970058
 105.8507914  50.1581196 109.0422106 105.1972326  49.8430213 108.4178720
 105.8088388  49.5356936 109.7681928 106.9619119  60.4400491 100.9575398
 106.0546181  60.2089744 101.1566547 107.4590151  59.6438110 101.1449379
 109.8687198  69.1497998 103.8772084 109.1948897  69.4529695 104.4857042
 110.2553020  69.9527078 103.5277541 109.8680702  58.0454545 108.4972433
 110.6152521  58.5575942 108.1879555 110.1372292  57.7238598 109.3576827
 108.1407352  60.5413086 105.4799388 107.2318572  60.2572119 105.5771857
 108.1702436  60.9612164 104.6202695  98.7095523  58.2618600 109.4614590
  98.5119923  57.6687961 108.7365657  98.1542187  57.9570810 110.1790529
 106.6892246  58.1541706 111.5809183 106.7440856  57.2015543 111.5051660
 105.8783448  58.3101145 112.0650481 107.8383440  62.0821829 102.8187466
 107.4002870  61.3657688 102.3593104 108.5793881  62.3097944 102.2572558
 104.6284606  56.7718766 109.3399562 103.8152472  57.0712937 109.7464754
 105.1243601  56.3774455 110.0574044 104.1198681  54.3437122 114.9560797
 104.7598060  54.2025881 114.2583760 103.2876212  54.0571635 114.5799399
 101.2041748  57.7882634 107.1455542 100.2739337  57.7267089 107.3625504
 101.2999220  57.2658587 106.3492183 101.1227298  54.3137447 109.7333784
 101.3834115  55.2282780 109.6242944 101.9444470  53.8461889 109.8830397
 111.9594668  60.9406211 102.4119524 111.3423838  60.2153039 102.3152577
 111.4911156  61.7015571 102.0686598 103.7493214  55.1591635 101.5340828
 102.8722680  55.0380436 101.1703075 104.2250967  54.3677714 101.2819717
  95.2695354  59.9468795 111.6282335  95.9566394  59.6330525 111.0403351
  95.1143483  60.8510160 111.3549587 100.0730076  54.8358992 116.0567359
  99.9888265  54.2284661 115.3217769  99.2512782  55.3268010 116.0576855
 106.8288759  55.4629938 111.1509239 106.4586546  54.9100979 111.8390144
 107.3247851  54.8588072 110.5984239  94.8463330  58.0269388 113.8999802
  94.8847429  57.4932979 114.6936921  94.3403623  57.5004594 113.2810780
  98.4771908  56.7533491 106.9753734  98.7725349  55.8444169 106.9220788
  97.5759943  56.7321230 106.6534736 102.0066155  54.8289487 112.9581282
 101.2852740  55.4425455 112.8188756 102.7959410  55.3647252 112.8797928
 100.2059749  54.4347588 107.0993059  99.8772455  53.5544967 106.9168165
 100.5599120  54.3795257 107.9869448 103.3201572  54.7220558 107.4668537
 103.6597645  55.2506479 106.7447145 103.7673693  55.0600964 108.2427103
 105.3069719  53.2195180 105.6661829 106.0278082  53.5976432 105.1625546
 104.6835024  53.9384056 105.7696807 109.4500842  53.9240329 106.6020162
 109.6664457  54.8064966 106.3008990 108.9694909  53.5326542 105.8725804
 104.1900064  56.8826042 113.1790906 104.0444644  57.1966345 114.0715188
 103.7125267  57.5010942 112.6261805 105.4533343  52.7542970 108.4959366
 105.5749254  51.8259616 108.6950254 105.1635385  52.7681656 107.5837681
  99.8968361  66.4366711 111.0419119 100.7226381  66.1370483 110.6617763
  99.5462413  65.6674334 111.4908908  98.0976966  64.3553038 112.0008053
  97.2608875  63.9275212 111.8192054  98.0700612  64.5485481 112.9378844
 104.4263401  64.3397103 106.5875253 104.5751522  65.0232567 105.9341926
 105.2329845  64.3202193 107.1024709 102.1816034  60.3662280 107.5936322
 101.9362076  59.4624610 107.7916532 102.3511949  60.3679431 106.6515800
 101.4511682  56.0990638 105.0922484 100.7580927  56.1734993 104.4362520
 101.2063434  55.3350982 105.6144000 107.9258807  66.8345233 104.0587001
 107.3532774  67.4535420 103.6057472 108.4991601  67.3844595 104.5926923
 111.1456067  67.1182383 105.1895583 112.0786740  67.0527945 105.3928458
 111.0579280  67.9538650 104.7310116 113.7744083  66.4348254 102.1499530
 113.6957715  66.1008117 103.0435288 114.5953750  66.9270022 102.1491003
 108.3105606  58.1706046 101.4003053 109.2564710  58.0412254 101.4691471
 107.9319850  57.4320708 101.8772481 106.4948523  56.0956022 101.3357938
 105.5879978  55.7989135 101.4120652 106.7724504  55.7985840 100.4692225
  97.4126463  57.4162386 111.7856985  97.0929247  56.5627694 111.4931359
  96.8659891  57.6310964 112.5414952 108.1110588  50.6392912 107.4902180
 107.3011317  50.2939997 107.8657426 108.7995005  50.3300456 108.0789791
 105.2647307  52.9542958 101.4769918 106.1266471  53.2797856 101.7365735
 105.4497651  52.1674453 100.9642983  97.2814723  61.0365297 113.7550106
  96.5878194  60.6219250 113.2420061  98.0287714  61.0785834 113.1583525
  99.1951466  60.9683551 111.6316121  99.1722154  61.0671238 110.6798004
  99.5052102  61.8148702 111.9533287 112.2004822  53.9871574 107.6761489
 111.3130677  54.2721225 107.4581684 112.6158811  53.8265338 106.8288766
 111.3448035  63.7516249 101.7709509 112.0483885  63.9566252 102.3867164
 110.6210684  64.3193011 102.0358592 112.1745846  59.5026110 107.8911779
 112.1181047  59.9594662 107.0519411 112.7274188  58.7416795 107.7134622
 113.2534733  64.1898778 103.8207969 114.0880337  63.7579977 103.6385444
 113.0919076  64.0180792 104.7484863 112.9080625  60.6930892 105.1864308
 112.8529429  60.5275163 104.2452752 112.2826680  61.4006925 105.3426498
 106.2176750  50.1939001 104.7649627 106.2055420  51.1380841 104.9217897
 107.1100172  50.0109146 104.4709088 114.5886968  70.4883553 101.5340828
 113.7116435  70.3672354 101.1703075 115.0644721  69.6969631 101.2819717
 116.1041062  68.2834875 101.4769918 116.9660226  68.6089774 101.7365735
 116.2891406  67.4966371 100.9642983  70.1158236   3.4853403  99.5904330
  70.3554834   4.1171927 100.2683348  69.2727433   3.1341443  99.8769689
  82.0314268   7.5317704  96.5666868  81.4679133   7.4407640  95.7983156
  81.9166663   6.7117608  97.0469360  79.5778699   9.0268895  99.4051088
  80.3699991   8.6859720  98.9897388  79.8175350   9.1363870 100.3253242
  87.6113826  11.1988671  91.8781333  86.9601806  11.7842752  91.4915347
  88.4058189  11.7294866  91.9376370  81.5369453   8.2877808  92.2768467
  82.3100329   7.7406795  92.1381343  81.8894852   9.1522058  92.4882928
  83.3754496   9.6154191 105.4835366  83.0844362  10.5199821 105.3682033
  84.0111480   9.6570718 106.1979436  84.3010703   6.9931039 102.0736726
  84.8974275   6.7687062 101.3593689  84.3585674   6.2515785 102.6762174
  89.0889091   8.8879103  92.4150317  88.4534924   8.9613730  93.1271222
  88.7586498   9.4772702  91.7369396  83.5932020   6.3498580  92.1111292
  83.4768278   5.6743484  92.7792376  83.7034280   5.8630954  91.2943445
  81.7856863   5.7529403  98.5121865  80.8607359   5.6205617  98.7199556
  82.0341276   6.5323622  99.0091807  79.1465674   5.3962677  99.3465654
  79.2758055   5.6497155 100.2605065  78.4663125   5.9890385  99.0270309
  83.3165161  16.0659926  95.4456128  83.2389191  17.0167752  95.5244608
  82.7126804  15.7205799  96.1031054  89.8612917   8.7503576 100.0159912
  89.2321780   8.9149290  99.3135980  89.4738579   9.1645186 100.7870876
  93.7402149   9.6858014  97.3704276  93.0553187  10.0656916  96.8201309
  93.8245998  10.2953341  98.1036224  85.4140879   8.4877984  97.2809997
  85.8779225   8.7665687  96.4914620  85.1497677   7.5861429  97.0983088
  82.3064960   8.0349466 100.2189760  82.8766317   8.4636734  99.5807245
  82.8973072   7.7532051 100.9173946  85.8755512   9.7573972 104.2982687
  85.9399945  10.2194379 105.1340859  85.1666436   9.1271337 104.4264997
  85.5903530  11.4242079  94.1661667  85.4549205  12.2693615  94.5946515
  86.1313342  11.6261357  93.4027601  79.0432927   8.9417517  94.7389593
  79.5557448   9.7360768  94.8895157  79.6955640   8.2443808  94.6723194
  80.8527812  12.0583274  96.8212346  81.0294440  12.9801238  96.6333330
  81.6484645  11.7441693  97.2506726  81.9759127  13.5761448 102.8222688
  82.5266552  13.4478511 102.0499682  81.1370603  13.8756337 102.4717581
  77.0081844   7.2706172  95.5149163  77.8457066   7.6803180  95.2982871
  77.1860112   6.3305614  95.4849357  87.1379011   8.9698568  94.6785731
  86.6100373   8.2351327  94.3658969  86.6366514   9.7473244  94.4325700
  88.1899690  15.4976285  90.6017390  87.5161389  15.8007982  91.2102348
  88.5765512  16.3005366  90.2522847  86.4619845   6.8891373  92.2044694
  85.5531064   6.6050406  92.3017164  86.4914928   7.3090452  91.3448001
  91.6939112  10.4997962  95.9735862  91.2401439   9.6588872  96.0301052
  91.0633079  11.1359361  96.3110642  90.1372051  12.3374459  96.9085680
  90.4295026  12.8979516  96.1898046  90.6470672  12.6303020  97.6638839
  77.0308015   4.6096887  96.1859897  76.8332415   4.0166248  95.4610963
  76.4754679   4.3049097  96.9035835  86.1595932   8.4300117  89.5432773
  85.7215362   7.7135976  89.0838410  86.9006373   8.6576231  88.9817864
  85.1005677  13.1154810  97.9979133  85.0581855  13.3415657  97.0687665
  86.0168375  12.8818185  98.1464934  83.2171477   9.9917839  97.7941096
  84.0112076   9.4968159  97.5923671  82.5063170   9.4635702  97.4308802
  88.0366322  12.3735935 102.1453464  88.0903344  12.9426871 102.9131180
  87.1681103  12.5437820 101.7807501  85.7942753  10.5646861 101.4738933
  85.6553839  10.1965646 102.3464871  85.0057350  11.0794501 101.3022891
  86.3890905  15.6655958  92.8164470  86.5642661  15.1944001  93.6310092
  85.7023693  16.2921724  93.0445730  87.3447968   9.9428464  98.8627771
  87.0097801   9.9029234  99.7585421  86.8451914   9.2773180  98.3898181
  80.9551991  18.8145320  99.5904330  81.1948589  19.4463845 100.2683348
  80.1121187  18.4633361  99.8769689  73.5907846   6.2947082  98.3527642
  74.2778886   5.9808812  97.7648657  73.4355975   7.1988447  98.0794893
  85.4679852  14.6224443 101.9945834  85.3950024  15.4279414 102.5065138
  85.0257246  14.8216409 101.1693855  85.2569632  13.8596213  95.5048655
  84.4737154  14.4017893  95.5986880  85.9562377  14.3770193  95.9042896
  87.9278536  14.5211277 104.1503992  88.6406508  15.1558742 104.0779894
  87.4368565  14.6175143 103.3343994  82.9790449  12.2705720 104.9709563
  83.6799909  12.9042203 105.1238957  82.5085564  12.6120452 104.2105203
  91.1044845  10.6123670  93.2557470  91.3804689  10.4980265  94.1651344
  90.2349344  10.2141155  93.2169643  87.7398909  14.8610021  96.8990284
  87.9221304  14.0431677  97.3618036  88.5631895  15.0777713  96.4615174
  88.0741075  13.7878206  94.1605332  88.6028841  13.2770661  93.5475494
  88.3369294  13.4720736  95.0250865  78.5758168  11.8042075 101.9040666
  79.1611604  11.0585763 102.0368570  78.3783006  12.1146032 102.7877330
  81.4296823  14.8393323  96.9203108  80.7607198  15.3239450  96.4367148
  81.2909692  15.0862543  97.8346487  73.1675822   4.3747676 100.6245109
  73.2059922   3.8411266 101.4182227  72.6616115   3.8482881 100.0056086
  85.5702091  16.8737066 103.5185767  86.1220399  17.0368688 104.2834852
  85.9108285  17.4641504 102.8465792  88.7070479  14.8219042 100.5049449
  88.5821618  14.0208782  99.9960394  89.3649570  15.3165235 100.0163419
  90.7705387  12.6228062 102.1328999  89.8235723  12.5033413 102.0607326
  91.1188160  11.7350560 102.2155260  87.7751820  12.4180778  98.3333351
  87.6276783  11.4897486  98.5140921  88.6005314  12.4400869  97.8490426
  91.3785942  13.2409337  99.4198224  92.3032490  13.0352198  99.2822675
  91.2101246  12.9925738 100.3287565  91.1681258  13.7595004  94.7760315
  91.3418136  13.1941427  94.0234168  91.6610150  14.5595899  94.5939805
  76.9858218   5.7709673 102.8423874  76.4411686   6.5469481 102.9744148
  77.8637568   6.1180478 102.6842996  92.1556431  13.0761769  91.8757214
  92.8507335  13.6968461  92.0944528  92.4979581  12.2257120  92.1509592
  77.7724240   4.8979570 105.7354031  77.0305976   5.0462205 106.3218661
  77.4516984   5.1587835 104.8720780  94.0547854  10.5261474  93.4044544
  94.5799178  10.8648747  92.6793864  93.9670207   9.5908490  93.2207679
  85.7167903  14.4395548 105.5334421  86.0255029  14.1944695 106.4057121
  86.5143385  14.6442186 105.0453291  85.7388515  16.5933458  97.7639798
  85.2993505  16.1009836  98.4572654  86.4896632  16.0506425  97.5231873
  78.2180854  12.7844998  97.7664426  79.0438874  12.4848770  97.3863069
  77.8674906  12.0152621  98.2154214  83.1862387  12.1371467  99.8362099
  82.5642396  11.4742172  99.5364327  83.8567254  12.1632599  99.1535747
  76.4189459  10.7031325  98.7253359  75.5821367  10.2753499  98.5437361
  76.3913104  10.8963768  99.6624150  82.7475894  10.6875390  93.3120560
  82.8964014  11.3710854  92.6587233  83.5542337  10.6680480  93.8270016
  80.5028527   6.7140568  94.3181629  80.2574569   5.8102898  94.5161839
  80.6724441   6.7157718  93.3761107  86.2471299  13.1823520  90.7832307
  85.6745266  13.8013708  90.3302779  86.8204093  13.7322882  91.3172229
  89.4668559  13.4660671  91.9140890  90.3999232  13.4006232  92.1173765
  89.3791772  14.3016937  91.4555422  92.0956576  12.7826541  88.8744837
  92.0170207  12.4486405  89.7680595  92.9166243  13.2748309  88.8736309
  75.7338955   3.7640673  98.5102291  75.4141740   2.9105981  98.2176665
  75.1872384   3.9789251  99.2660259  79.5118863   6.4803114 102.2271798
  79.7304873   7.4120222 102.2459832  79.9244637   6.1211088 103.0126602
  75.6027215   7.3843585 100.4795413  74.9090687   6.9697537  99.9665367
  76.3500206   7.4264121  99.8828832  77.5163958   7.3161838  98.3561428
  77.4934646   7.4149526  97.4043311  77.8264594   8.1626989  98.6778594
  80.1751336   9.3737993 102.4708042  81.1294589   9.3421936 102.4037974
  79.9763859   8.9128617 103.2858268  80.7650718   7.9439109 105.0378840
  81.5843607   8.4383188 105.0613677  81.0387526   7.0271078 105.0096407
  78.5301565  14.9157613  99.4878240  78.3956032  14.1558014  98.9216238
  78.1133627  15.6398513  99.0207029  89.6660528  10.0994536  88.4954815
  90.3696378  10.3044539  89.1112471  88.9423176  10.6671298  88.7603899
  81.6870690  15.8126930  99.6996683  81.5703075  16.7572362  99.5975373
  80.8663137  15.5100491 100.0882482  91.5747225  10.5377066  90.5453275
  92.4092829  10.1058264  90.3630750  91.4131568  10.3659079  91.4730170
  82.7125205  16.4655192 102.9152611  83.6152451  16.4978802 103.2319106
  82.4862575  15.5355643 102.9298947  84.4678807  15.2186178  99.5762690
  83.5174438  15.2188040  99.4627062  84.7711293  14.4718913  99.0598724
  97.0121206  21.0074145 100.5769977  96.6739718  20.8915209  99.6890512
  97.8810974  20.6065310 100.5570983  92.8708022  22.8609621  96.5666868
  92.3072887  22.7699558  95.7983156  92.7560417  22.0409526  97.0469360
  90.4172454  24.3560813  99.4051088  91.2093746  24.0151637  98.9897388
  90.6569104  24.4655788 100.3253242  98.4507581  26.5280589  91.8781333
  97.7995560  27.1134669  91.4915347  99.2451944  27.0586784  91.9376370
  92.3763208  23.6169726  92.2768467  93.1494084  23.0698713  92.1381343
  92.7288607  24.4813975  92.4882928  94.2148250  24.9446108 105.4835366
  93.9238116  25.8491739 105.3682033  94.8505235  24.9862636 106.1979436
  95.1404457  22.3222957 102.0736726  95.7368030  22.0978979 101.3593689
  95.1979429  21.5807702 102.6762174  94.7129486  19.7762392  89.9086917
  94.9655006  19.2543913  89.1470380  93.7754045  19.6128538  90.0113601
  99.7572769  18.7798171  97.7161660 100.5435858  18.3617594  97.3652077
 100.0211473  19.6844263  97.8843309  99.9282846  24.2171021  92.4150317
  99.2928679  24.2905647  93.1271222  99.5980252  24.8064620  91.7369396
  94.4325774  21.6790498  92.1111292  94.3162033  21.0035401  92.7792376
  94.5428034  21.1922872  91.2943445  96.7757315  21.1400645  95.8157981
  96.4115523  20.6131266  96.5270903  97.6324431  20.7499114  95.6424467
  96.4162802  16.1690545  90.8119330  96.5837205  17.0370781  91.1789801
  96.2259971  16.3317827  89.8880619  92.6250617  21.0821321  98.5121865
  91.7001113  20.9497535  98.7199556  92.8735030  21.8615540  99.0091807
  96.3952023  18.6248202  91.7965997  96.2751648  19.0705253  92.6351477
  95.7004612  18.9733520  91.2379535  89.9859428  20.7254594  99.3465654
  90.1151809  20.9789073 100.2605065  89.3056879  21.3182302  99.0270309
  94.1558915  31.3951844  95.4456128  94.0782945  32.3459669  95.5244608
  93.5520559  31.0497717  96.1031054 102.0937089  19.0969676  92.6246331
 103.0054945  19.3297062  92.4494028 101.5846736  19.6806720  92.0621409
 100.7006672  24.0795494 100.0159912 100.0715534  24.2441208  99.3135980
 100.3132334  24.4937104 100.7870876 104.5795904  25.0149932  97.3704276
 103.8946942  25.3948833  96.8201309 104.6639753  25.6245259  98.1036224
  96.2534634  23.8169902  97.2809997  96.7172979  24.0957605  96.4914620
  95.9891432  22.9153347  97.0983088  93.1458715  23.3641384 100.2189760
  93.7160072  23.7928652  99.5807245  93.7366826  23.0823968 100.9173946
  95.1903520  19.9393054  94.0899562  95.8927563  20.3914098  94.5573489
  94.8584148  19.2976873  94.7179455  88.9328854  18.1976607  99.3916696
  88.1427908  18.4534136  98.9156806  89.4240101  19.0124945  99.4968736
  90.8843599  18.5621186  96.3500173  90.0874762  18.6739881  96.8683668
  90.6569191  18.9007839  95.4841063  96.7149267  25.0865890 104.2982687
  96.7793699  25.5486297 105.1340859  96.0060190  24.4563255 104.4264997
  87.2166557  18.4507098 101.8231687  87.4674595  19.3354108 102.0889263
  87.7526105  18.2711699 101.0506778  96.4297284  26.7533997  94.1661667
  96.2942959  27.5985533  94.5946515  96.9707097  26.9553275  93.4027601
  89.8826682  24.2709435  94.7389593  90.3951202  25.0652685  94.8895157
  90.5349394  23.5735726  94.6723194  91.6921566  27.3875191  96.8212346
  91.8688195  28.3093156  96.6333330  92.4878400  27.0733611  97.2506726
  92.8152882  28.9053365 102.8222688  93.3660307  28.7770429 102.0499682
  91.9764358  29.2048254 102.4717581  87.8475598  22.5998089  95.5149163
  88.6850820  23.0095098  95.2982871  88.0253866  21.6597532  95.4849357
  99.7440031  20.2673170  91.2032996  99.2286654  21.0377775  91.4421383
  99.4717339  19.5938306  91.8266058  97.3287142  15.1122871  96.2618234
  96.4728738  14.7229721  96.0823873  97.7414093  15.1914832  95.4018020
 104.7174305  23.0205525  93.1386170 103.9403747  22.6816684  92.6941332
 105.3965786  23.0258148  92.4641135  99.5326334  18.1400262  93.0292777
  99.2276469  18.4546411  93.8802920 100.4856776  18.2181682  93.0720110
  97.9772766  24.2990486  94.6785731  97.4494127  23.5643245  94.3658969
  97.4760268  25.0765162  94.4325700  92.7091493  14.9610152  97.0392343
  93.2835245  14.7385333  96.3065536  93.2962476  15.0298846  97.7920944
 101.7671070  20.8483879  97.8456719 102.2802952  21.4813871  98.3478429
 102.4172294  20.2485074  97.4800079  93.0361080  16.9914613  91.0588228
  92.1998393  17.3289299  91.3797503  92.8965850  16.8563593  90.1215365
  95.0114161  11.8351401  95.7667412  94.3578573  11.5200418  95.1424027
  94.9694635  11.2127141  96.4927235  96.1225366  22.1170696  87.6820704
  95.2152427  21.8859949  87.8811853  96.6196398  21.3208315  87.8694686
  99.0293445  30.8268203  90.6017390  98.3555143  31.1299900  91.2102348
  99.4159267  31.6297283  90.2522847  98.2451901  18.3233334 100.0915060
  97.3274463  18.5448281  99.9336748  98.6612045  18.3979645  99.2326767
  99.0286949  19.7224750  95.2217740  99.7758768  20.2346147  94.9124862
  99.2978539  19.4008803  96.0822134  97.3013599  22.2183291  92.2044694
  96.3924818  21.9342323  92.3017164  97.3308683  22.6382369  91.3448001
 102.5332867  25.8289880  95.9735862 102.0795194  24.9880790  96.0301052
 101.9026833  26.4651279  96.3110642 100.9765806  27.6666377  96.9085680
 101.2688780  28.2271434  96.1898046 101.4864426  27.9594938  97.6638839
  87.8701770  19.9388805  96.1859897  87.6726169  19.3458165  95.4610963
  87.3148434  19.6341015  96.9035835  95.8498493  19.8311911  98.3054490
  95.9047103  18.8785748  98.2296966  95.0389695  19.9871350  98.7895788
  96.9989687  23.7592034  89.5432773  96.5609117  23.0427893  89.0838410
  97.7400128  23.9868149  88.9817864  93.7890853  18.4488971  96.0644869
  92.9758719  18.7483142  96.4710061  94.2849847  18.0544660  96.7819351
  95.9399431  28.4446728  97.9979133  95.8975610  28.6707574  97.0687665
  96.8562130  28.2110103  98.1464934 105.1162802  22.0349231  95.6009091
 104.9780700  22.2250827  94.6730281 104.7599021  22.7968614  96.0577143
  93.2804928  16.0207327 101.6806104  93.9204307  15.8796086 100.9829067
  92.4482458  15.7341840 101.3044706  94.0565232  25.3209757  97.7941096
  94.8505830  24.8260077  97.5923671  93.3456924  24.7927620  97.4308802
  98.8760076  27.7027852 102.1453464  98.9297099  28.2718789 102.9131180
  98.0074858  27.8729738 101.7807501  90.3647995  19.4652839  93.8700849
  89.4345583  19.4037294  94.0870811  90.4605467  18.9428791  93.0737490
  90.2833544  15.9907652  96.4579090  90.5440362  16.9052985  96.3488251
  91.1050717  15.5232094  96.6075703  91.7558470  17.4045409 103.6277915
  92.4281523  17.1962771 102.9790564  90.9288256  17.2067495 103.1883147
  96.6336508  25.8938779 101.4738933  96.4947593  25.5257563 102.3464871
  95.8451104  26.4086418 101.3022891  97.2284660  30.9947875  92.8164470
  97.4036415  30.5235919  93.6310092  96.5417448  31.6213642  93.0445730
  98.1841723  25.2720382  98.8627771  97.8491556  25.2321152  99.7585421
  97.6845669  24.6065098  98.3898181  92.1585967  20.6788012 104.3880352
  92.0205765  19.9468250 104.9891891  93.0690890  20.5896912 104.1064540
 101.1200915  22.6176416  89.1364831 100.5030085  21.8923244  89.0397883
 100.6517403  23.3785776  88.7931905  91.7945745  34.1437238  99.5904330
  92.0342343  34.7755762 100.2683348  90.9514942  33.7925278  99.8769689
  92.9099460  16.8361840  88.2586135  92.0328927  16.7150641  87.8948381
  93.3857214  16.0447919  88.0065023  84.4301601  21.6239000  98.3527642
  85.1172640  21.3100730  97.7648657  84.2749729  22.5280365  98.0794893
  89.2336323  16.5129197 102.7812666  89.1494512  15.9054866 102.0463076
  88.4119029  17.0038215 102.7822162  96.3073607  29.9516361 101.9945834
  96.2343778  30.7571332 102.5065138  95.8651000  30.1508326 101.1693855
  96.0963387  29.1888131  95.5048655  95.3130908  29.7309811  95.5986880
  96.7956132  29.7062110  95.9042896  98.7672290  29.8503195 104.1503992
  99.4800263  30.4850659 104.0779894  98.2762319  29.9467061 103.3343994
 100.4889817  23.7554447  95.7221284  99.5546096  23.8755910  95.5525988
 100.6666486  22.8526914  95.4581294  95.9895005  17.1400143  97.8754545
  95.6192793  16.5871183  98.5635451  96.4854098  16.5358277  97.3229545
  93.8184204  27.5997638 104.9709563  94.5193663  28.2334121 105.1238957
  93.3479319  27.9412370 104.2105203 101.9438600  25.9415588  93.2557470
 102.2198444  25.8272182  94.1651344 101.0743099  25.5433073  93.2169643
  98.5792664  30.1901939  96.8990284  98.7615058  29.3723595  97.3618036
  99.4025650  30.4069631  96.4615174  98.9134829  29.1170124  94.1605332
  99.4422596  28.6062578  93.5475494  99.1763049  28.8012654  95.0250865
  89.4151922  27.1333993 101.9040666  90.0005359  26.3877681 102.0368570
  89.2176760  27.4437950 102.7877330  92.2690577  30.1685241  96.9203108
  91.6000953  30.6531368  96.4367148  92.1303447  30.4154461  97.8346487
  84.0069577  19.7039593 100.6245109  84.0453676  19.1703184 101.4182227
  83.5009870  19.1774799 100.0056086  96.4095846  32.2028984 103.5185767
  96.9614154  32.3660606 104.2834852  96.7502039  32.7933422 102.8465792
  87.6378154  18.4303696  93.6999040  87.9331595  17.5214374  93.6466094
  86.7366190  18.4091435  93.3780043  99.5464233  30.1510960 100.5049449
  99.4215373  29.3500699  99.9960394 100.2043324  30.6457153 100.0163419
  91.1672401  16.5059692  99.6826589  90.4458987  17.1195660  99.5434062
  91.9565657  17.0417457  99.6043235 101.6099141  27.9519980 102.1328999
 100.6629477  27.8325331 102.0607326 101.9581915  27.0642478 102.2155260
  89.3665996  16.1117793  93.8238366  89.0378702  15.2315172  93.6413472
  89.7205367  16.0565462  94.7114755  98.6145575  27.7472696  98.3333351
  98.4670537  26.8189403  98.5140921  99.4399068  27.7692787  97.8490426
  92.4807819  16.3990763  94.1913843  92.8203892  16.9276684  93.4692452
  92.9279940  16.7371169  94.9672410 102.2179697  28.5701255  99.4198224
 103.1426244  28.3644116  99.2822675 102.0495000  28.3217656 100.3287565
  94.4675966  14.8965385  92.3907136  95.1884329  15.2746637  91.8870853
  93.8441270  15.6154261  92.4942114  98.6107089  15.6010534  93.3265468
  98.8270703  16.4835171  93.0254297  98.1301156  15.2096747  92.5971110
  93.3506310  18.5596247  99.9036213  93.2050891  18.8736550 100.7960494
  92.8731514  19.1781147  99.3507112 102.0075013  29.0886922  94.7760315
 102.1811890  28.5233345  94.0234168 102.5003904  29.8887817  94.5939805
  87.8251973  21.1001591 102.8423874  87.2805441  21.8761399 102.9744148
  88.7031323  21.4472396 102.6842996  94.6139589  14.4313175  95.2204673
  94.7355500  13.5029821  95.4195560  94.3241632  14.4451861  94.3082988
 102.9950185  28.4053686  91.8757214 103.6901090  29.0260379  92.0944528
 103.3373335  27.5549038  92.1509592  88.6117995  20.2271487 105.7354031
  87.8699731  20.3754123 106.3218661  88.2910739  20.4879753 104.8720780
 104.8941608  25.8553392  93.4044544 105.4192933  26.1940665  92.6793864
 104.8063961  24.9200407  93.2207679  96.5561657  29.7687466 105.5334421
  96.8648784  29.5236612 106.4057121  97.3537139  29.9734104 105.0453291
  96.5782269  31.9225375  97.7639798  96.1387259  31.4301754  98.4572654
  97.3290386  31.3798343  97.5231873  89.0574608  28.1136916  97.7664426
  89.8832628  27.8140688  97.3863069  88.7068660  27.3444539  98.2154214
  94.0256141  27.4663384  99.8362099  93.4036151  26.8034089  99.5364327
  94.6961008  27.4924516  99.1535747  87.2583213  26.0323243  98.7253359
  86.4215122  25.6045417  98.5437361  87.2306859  26.2255686  99.6624150
  93.5869648  26.0167308  93.3120560  93.7357769  26.7002772  92.6587233
  94.3936092  25.9972398  93.8270016  91.3422281  22.0432485  94.3181629
  91.0968323  21.1394815  94.5161839  91.5118196  22.0449636  93.3761107
  90.6117929  17.7760843  91.8167790  89.9187174  17.8505198  91.1607826
  90.3669681  17.0121187  92.3389307  97.0865054  28.5115438  90.7832307
  96.5139021  29.1305625  90.3302779  97.6597847  29.0614800  91.3172229
 100.3062314  28.7952588  91.9140890 101.2392987  28.7298150  92.1173765
 100.2185526  29.6308855  91.4555422 102.9350330  28.1118459  88.8744837
 102.8563962  27.7778322  89.7680595 103.7559997  28.6040227  88.8736309
  97.4711852  19.8476251  88.1248360  98.4170957  19.7182459  88.1936778
  97.0926097  19.1090913  88.6017788  95.6554769  17.7726227  88.0603245
  94.7486225  17.4759340  88.1365959  95.9330750  17.4756045  87.1937531
  86.5732710  19.0932591  98.5102291  86.2535494  18.2397899  98.2176665
  86.0266138  19.3081169  99.2660259  90.3512617  21.8095032 102.2271798
  90.5698627  22.7412140 102.2459832  90.7638391  21.4503006 103.0126602
  97.2716835  12.3163117  94.2147486  96.4617563  11.9710202  94.5902732
  97.9601252  12.0070661  94.8035098  94.4253554  14.6313163  88.2015224
  95.2872718  14.9568061  88.4611041  94.6103898  13.8444658  87.6888290
  86.4420970  22.7135502 100.4795413  85.7484441  22.2989455  99.9665367
  87.1893961  22.7556039  99.8828832  88.3557712  22.6453756  98.3561428
  88.3328400  22.7441443  97.4043311  88.6658349  23.4918907  98.6778594
  91.0145090  24.7029911 102.4708042  91.9688344  24.6713853 102.4037974
  90.8157614  24.2420535 103.2858268  91.6044472  23.2731027 105.0378840
  92.4237361  23.7675106 105.0613677  91.8781280  22.3562995 105.0096407
 101.3611069  15.6641779  94.4006795 100.4736924  15.9491430  94.1826990
 101.7765058  15.5035543  93.5534072  89.3695319  30.2449530  99.4878240
  89.2349787  29.4849931  98.9216238  88.9527381  30.9690430  99.0207029
 100.5054282  25.4286454  88.4954815 101.2090132  25.6336457  89.1112471
  99.7816931  25.9963216  88.7603899 101.3352092  21.1796315  94.6157086
 101.2787294  21.6364867  93.7764718 101.8880435  20.4187000  94.4379928
  92.5264445  31.1418848  99.6996683  92.4096829  32.0864280  99.5975373
  91.7056891  30.8392409 100.0882482 102.4140979  25.8668983  90.5453275
 103.2486583  25.4350182  90.3630750 102.2525322  25.6950997  91.4730170
 102.0686872  22.3701097  91.9109615 102.0135675  22.2045368  90.9698059
 101.4432927  23.0777129  92.0671804  86.8579387  17.6069161 105.7371037
  87.5038250  17.0968115 106.2258262  86.6496538  18.3437843 106.3114462
  95.3782997  11.8709206  91.4894933  95.3661667  12.8151045  91.6463204
  96.2706419  11.6879351  91.1954394  93.5518959  31.7947109 102.9152611
  94.4546206  31.8270720 103.2319106  93.3256329  30.8647560 102.9298947
  95.3072561  30.5478096  99.5762690  94.3568192  30.5479958  99.4627062
  95.6105047  29.8010831  99.0598724 107.8514961  36.3366062 100.5769977
 107.5133472  36.2207127  99.6890512 108.7204729  35.9357228 100.5570983
 103.7101776  38.1901539  96.5666868 103.1466642  38.0991476  95.7983156
 103.5954172  37.3701443  97.0469360 101.2566208  39.6852730  99.4051088
 102.0487500  39.3443555  98.9897388 101.4962859  39.7947706 100.3253242
 109.2901335  41.8572507  91.8781333 108.6389315  42.4426587  91.4915347
 110.0845698  42.3878701  91.9376370 103.2156962  38.9461644  92.2768467
 103.9887838  38.3990631  92.1381343 103.5682361  39.8105893  92.4882928
 105.0542005  40.2738026 105.4835366 104.7631871  41.1783657 105.3682033
 105.6898989  40.3154554 106.1979436 105.9798212  37.6514874 102.0736726
 106.5761784  37.4270897 101.3593689 106.0373183  36.9099620 102.6762174
 105.5523240  35.1054310  89.9086917 105.8048761  34.5835831  89.1470380
 104.6147799  34.9420455  90.0113601 110.5966523  34.1090088  97.7161660
 111.3829612  33.6909511  97.3652077 110.8605227  35.0136180  97.8843309
 110.7676600  39.5462938  92.4150317 110.1322433  39.6197565  93.1271222
 110.4374007  40.1356537  91.7369396 105.2719529  37.0082416  92.1111292
 105.1555787  36.3327319  92.7792376 105.3821789  36.5214790  91.2943445
 107.6151070  36.4692563  95.8157981 107.2509277  35.9423184  96.5270903
 108.4718186  36.0791032  95.6424467 107.2556557  31.4982463  90.8119330
 107.4230959  32.3662699  91.1789801 107.0653726  31.6609744  89.8880619
 103.4644371  36.4113238  98.5121865 102.5394868  36.2789452  98.7199556
 103.7128785  37.1907458  99.0091807 107.2345778  33.9540120  91.7965997
 107.1145403  34.3997171  92.6351477 106.5398366  34.3025438  91.2379535
 100.8253183  36.0546512  99.3465654 100.9545564  36.3080991 100.2605065
 100.1450634  36.6474220  99.0270309 104.9952670  46.7243762  95.4456128
 104.9176700  47.6751587  95.5244608 104.3914313  46.3789634  96.1031054
 112.9330844  34.4261593  92.6246331 113.8448700  34.6588980  92.4494028
 112.4240491  35.0098637  92.0621409 111.5400426  39.4087412 100.0159912
 110.9109289  39.5733126  99.3135980 111.1526088  39.8229021 100.7870876
 115.4189658  40.3441850  97.3704276 114.7340696  40.7240751  96.8201309
 115.5033507  40.9537176  98.1036224 107.0928388  39.1461820  97.2809997
 107.5566734  39.4249523  96.4914620 106.8285186  38.2445264  97.0983088
 103.9852469  38.6933301 100.2189760 104.5553826  39.1220570  99.5807245
 104.5760581  38.4115886 100.9173946 106.0297274  35.2684972  94.0899562
 106.7321317  35.7206016  94.5573489 105.6977903  34.6268791  94.7179455
  99.7722608  33.5268525  99.3916696  98.9821662  33.7826053  98.9156806
 100.2633855  34.3416863  99.4968736 101.7237353  33.8913104  96.3500173
 100.9268517  34.0031798  96.8683668 101.4962946  34.2299756  95.4841063
 107.5543021  40.4157807 104.2982687 107.6187454  40.8778215 105.1340859
 106.8453945  39.7855172 104.4264997  98.0560311  33.7799015 101.8231687
  98.3068349  34.6646025 102.0889263  98.5919859  33.6003617 101.0506778
 107.2691039  42.0825915  94.1661667 107.1336714  42.9277451  94.5946515
 107.8100851  42.2845192  93.4027601 100.7220436  39.6001353  94.7389593
 101.2344957  40.3944603  94.8895157 101.3743149  38.9027643  94.6723194
 102.5315321  42.7167109  96.8212346 102.7081949  43.6385074  96.6333330
 103.3272154  42.4025528  97.2506726 103.6546636  44.2345283 102.8222688
 104.2054061  44.1062346 102.0499682 102.8158112  44.5340172 102.4717581
  98.6869353  37.9290007  95.5149163  99.5244575  38.3387015  95.2982871
  98.8647621  36.9889449  95.4849357 110.5833785  35.5965088  91.2032996
 110.0680408  36.3669692  91.4421383 110.3111093  34.9230224  91.8266058
 108.1680896  30.4414789  96.2618234 107.3122492  30.0521639  96.0823873
 108.5807848  30.5206749  95.4018020 115.5568059  38.3497442  93.1386170
 114.7797502  38.0108602  92.6941332 116.2359540  38.3550066  92.4641135
 110.3720088  33.4692180  93.0292777 110.0670224  33.7838329  93.8802920
 111.3250530  33.5473600  93.0720110 108.8166520  39.6282403  94.6785731
 108.2887882  38.8935163  94.3658969 108.3154023  40.4057080  94.4325700
 103.5485248  30.2902069  97.0392343 104.1229000  30.0677251  96.3065536
 104.1356230  30.3590764  97.7920944 112.6064825  36.1775796  97.8456719
 113.1196707  36.8105788  98.3478429 113.2566049  35.5776992  97.4800079
 103.8754835  32.3206531  91.0588228 103.0392147  32.6581217  91.3797503
 103.7359604  32.1855510  90.1215365 105.8507915  27.1643318  95.7667412
 105.1972328  26.8492336  95.1424027 105.8088389  26.5419059  96.4927235
 106.9619120  37.4462613  87.6820704 106.0546182  37.2151867  87.8811853
 107.4590152  36.6500233  87.8694686 109.8687199  46.1560121  90.6017390
 109.1948898  46.4591817  91.2102348 110.2553021  46.9589201  90.2522847
 109.0845656  33.6525252 100.0915060 108.1668217  33.8740199  99.9336748
 109.5005799  33.7271562  99.2326767 109.8680703  35.0516668  95.2217740
 110.6152522  35.5638065  94.9124862 110.1372293  34.7300720  96.0822134
 108.1407354  37.5475208  92.2044694 107.2318573  37.2634241  92.3017164
 108.1702437  37.9674287  91.3448001 113.3726621  41.1581798  95.9735862
 112.9188948  40.3172708  96.0301052 112.7420588  41.7943196  96.3110642
 111.8159560  42.9958295  96.9085680 112.1082535  43.5563352  96.1898046
 112.3258181  43.2886856  97.6638839  98.7095524  35.2680722  96.1859897
  98.5119924  34.6750083  95.4610963  98.1542188  34.9632933  96.9035835
 106.6892248  35.1603829  98.3054490 106.7440857  34.2077665  98.2296966
 105.8783450  35.3163268  98.7895788 107.8383441  39.0883952  89.5432773
 107.4002871  38.3719811  89.0838410 108.5793882  39.3160067  88.9817864
 104.6284608  33.7780889  96.0644869 103.8152473  34.0775059  96.4710061
 105.1243602  33.3836577  96.7819351 106.7793185  43.7738646  97.9979133
 106.7369364  43.9999492  97.0687665 107.6955884  43.5402020  98.1464934
 115.9556556  37.3641149  95.6009091 115.8174455  37.5542745  94.6730281
 115.5992775  38.1260532  96.0577143 104.1198682  31.3499244 101.6806104
 104.7598062  31.2088003 100.9829067 103.2876213  31.0633758 101.3044706
 104.8958986  40.6501675  97.7941096 105.6899585  40.1551995  97.5923671
 104.1850679  40.1219538  97.4308802 109.7153831  43.0319770 102.1453464
 109.7690853  43.6010706 102.9131180 108.8468612  43.2021655 101.7807501
 101.2041750  34.7944756  93.8700849 100.2739338  34.7329212  94.0870811
 101.2999222  34.2720709  93.0737490 101.1227299  31.3199569  96.4579090
 101.3834116  32.2344902  96.3488251 101.9444471  30.8524012  96.6075703
 102.5952224  32.7337326 103.6277915 103.2675278  32.5254688 102.9790564
 101.7682011  32.5359412 103.1883147 107.4730262  41.2230697 101.4738933
 107.3341348  40.8549481 102.3464871 106.6844859  41.7378336 101.3022891
 108.0678414  46.3239793  92.8164470 108.2430170  45.8527836  93.6310092
 107.3811202  46.9505559  93.0445730 109.0235477  40.6012299  98.8627771
 108.6885310  40.5613069  99.7585421 108.5239423  39.9357015  98.3898181
 102.9979721  36.0079929 104.3880352 102.8599519  35.2760168 104.9891891
 103.9084645  35.9188829 104.1064540 111.9594669  37.9468334  89.1364831
 111.3423840  37.2215162  89.0397883 111.4911158  38.7077694  88.7931905
 102.6339500  49.4729156  99.5904330 102.8736098  50.1047680 100.2683348
 101.7908696  49.1217196  99.8769689 103.7493215  32.1653758  88.2586135
 102.8722681  32.0442559  87.8948381 104.2250968  31.3739836  88.0065023
  95.2695355  36.9530918  98.3527642  95.9566395  36.6392648  97.7648657
  95.1143484  37.8572282  98.0794893 100.0730077  31.8421114 102.7812666
  99.9888266  31.2346784 102.0463076  99.2512784  32.3330133 102.7822162
 107.1467361  45.2808278 101.9945834 107.0737533  46.0863250 102.5065138
 106.7044754  45.4800244 101.1693855 106.9357141  44.5180048  95.5048655
 106.1524663  45.0601728  95.5986880 107.6349886  45.0354028  95.9042896
 109.6066045  45.1795112 104.1503992 110.3194017  45.8142577 104.0779894
 109.1156074  45.2758978 103.3343994 111.3283572  39.0846365  95.7221284
 110.3939851  39.2047827  95.5525988 111.5060240  38.1818832  95.4581294
 106.8288760  32.4692061  97.8754545 106.4586547  31.9163101  98.5635451
 107.3247852  31.8650194  97.3229545 104.6577958  42.9289556 104.9709563
 105.3587418  43.5626039 105.1238957 104.1873073  43.2704287 104.2105203
 112.7832354  41.2707506  93.2557470 113.0592198  41.1564100  94.1651344
 111.9136853  40.8724990  93.2169643 109.4186418  45.5193856  96.8990284
 109.6008813  44.7015512  97.3618036 110.2419404  45.7361549  96.4615174
 109.7528584  44.4462042  94.1605332 110.2816350  43.9354496  93.5475494
 110.0156803  44.1304572  95.0250865 100.2545677  42.4625911 101.9040666
 100.8399113  41.7169599 102.0368570 100.0570515  42.7729868 102.7877330
 103.1084332  45.4977158  96.9203108 102.4394707  45.9823286  96.4367148
 102.9697201  45.7446379  97.8346487  94.8463331  35.0331511 100.6245109
  94.8847431  34.4995102 101.4182227  94.3403624  34.5066717 100.0056086
 107.2489600  47.5320902 103.5185767 107.8007908  47.6952523 104.2834852
 107.5895794  48.1225340 102.8465792  98.4771909  33.7595613  93.6999040
  98.7725350  32.8506292  93.6466094  97.5759945  33.7383353  93.3780043
 110.3857988  45.4802877 100.5049449 110.2609127  44.6792617  99.9960394
 111.0437079  45.9749071 100.0163419 102.0066156  31.8351610  99.6826589
 101.2852742  32.4487577  99.5434062 102.7959412  32.3709375  99.6043235
 112.4492896  43.2811897 102.1328999 111.5023232  43.1617249 102.0607326
 112.7975669  42.3934395 102.2155260 100.2059750  31.4409711  93.8238366
  99.8772457  30.5607090  93.6413472 100.5599121  31.3857380  94.7114755
 109.4539329  43.0764614  98.3333351 109.3064292  42.1481321  98.5140921
 110.2792823  43.0984704  97.8490426 103.3201574  31.7282681  94.1913843
 103.6597646  32.2568602  93.4692452 103.7673694  32.0663087  94.9672410
 113.0573451  43.8993172  99.4198224 113.9819999  43.6936034  99.2822675
 112.8888754  43.6509573 100.3287565 105.3069721  30.2257302  92.3907136
 106.0278083  30.6038555  91.8870853 104.6835025  30.9446179  92.4942114
 109.4500844  30.9302451  93.3265468 109.6664458  31.8127089  93.0254297
 108.9694911  30.5388665  92.5971110 104.1900065  33.8888164  99.9036213
 104.0444646  34.2028467 100.7960494 103.7125269  34.5073065  99.3507112
 112.8468767  44.4178840  94.7760315 113.0205645  43.8525262  94.0234168
 113.3397659  45.2179735  94.5939805  98.6645727  36.4293509 102.8423874
  98.1199195  37.2053317 102.9744148  99.5425077  36.7764313 102.6842996
 105.4533344  29.7605093  95.2204673 105.5749255  28.8321739  95.4195560
 105.1635386  29.7743779  94.3082988 113.8343940  43.7345604  91.8757214
 114.5294844  44.3552297  92.0944528 114.1767090  42.8840955  92.1509592
  99.4511749  35.5563405 105.7354031  98.7093485  35.7046040 106.3218661
  99.1304493  35.8171671 104.8720780 115.7335363  41.1845310  93.4044544
 116.2586687  41.5232582  92.6793864 115.6457715  40.2492325  93.2207679
 107.3955412  45.0979383 105.5334421 107.7042538  44.8528530 106.4057121
 108.1930894  45.3026022 105.0453291 107.4176024  47.2517293  97.7639798
 106.9781014  46.7593672  98.4572654 108.1684141  46.7090261  97.5231873
  99.8968363  43.4428834  97.7664426 100.7226383  43.1432606  97.3863069
  99.5462415  42.6736456  98.2154214 104.8649896  42.7955302  99.8362099
 104.2429905  42.1326007  99.5364327 105.5354763  42.8216434  99.1535747
  98.0976968  41.3615160  98.7253359  97.2608876  40.9337335  98.5437361
  98.0700613  41.5547604  99.6624150 104.4263403  41.3459225  93.3120560
 104.5751523  42.0294690  92.6587233 105.2329846  41.3264315  93.8270016
 102.1816036  37.3724403  94.3181629 101.9362078  36.4686733  94.5161839
 102.3511950  37.3741553  93.3761107 101.4511683  33.1052761  91.8167790
 100.7580928  33.1797116  91.1607826 101.2063435  32.3413104  92.3389307
 107.9258808  43.8407356  90.7832307 107.3532775  44.4597543  90.3302779
 108.4991602  44.3906718  91.3172229 111.1456068  44.1244506  91.9140890
 112.0786741  44.0590068  92.1173765 111.0579281  44.9600773  91.4555422
 113.7744085  43.4410376  88.8744837 113.6957716  43.1070240  89.7680595
 114.5953752  43.9332144  88.8736309 108.3105607  35.1768169  88.1248360
 109.2564711  35.0474377  88.1936778 107.9319852  34.4382830  88.6017788
 106.4948524  33.1018145  88.0603245 105.5879979  32.8051258  88.1365959
 106.7724505  32.8047963  87.1937531  97.4126464  34.4224508  98.5102291
  97.0929249  33.5689817  98.2176665  96.8659892  34.6373087  99.2660259
 101.1906372  37.1386949 102.2271798 101.4092382  38.0704057 102.2459832
 101.6032146  36.7794924 103.0126602 108.1110590  27.6455035  94.2147486
 107.3011318  27.3002120  94.5902732 108.7995007  27.3362578  94.8035098
 105.2647309  29.9605080  88.2015224 106.1266473  30.2859979  88.4611041
 105.4497653  29.1736576  87.6888290  97.2814724  38.0427420 100.4795413
  96.5878196  37.6281373  99.9665367  98.0287715  38.0847956  99.8828832
  99.1951467  37.9745674  98.3561428  99.1722155  38.0733361  97.4043311
  99.5052103  38.8210824  98.6778594 101.8538845  40.0321829 102.4708042
 102.8082098  40.0005771 102.4037974 101.6551368  39.5712452 103.2858268
 102.4438227  38.6022945 105.0378840 103.2631116  39.0967023 105.0613677
 102.7175035  37.6854913 105.0096407 112.2004823  30.9933697  94.4006795
 111.3130678  31.2783348  94.1826990 112.6158812  30.8327460  93.5534072
 100.2089074  45.5741448  99.4878240 100.0743541  44.8141849  98.9216238
  99.7921136  46.2982348  99.0207029 111.3448037  40.7578372  88.4954815
 112.0483887  40.9628374  89.1112471 110.6210685  41.3255134  88.7603899
 112.1745847  36.5088233  94.6157086 112.1181048  36.9656784  93.7764718
 112.7274189  35.7478918  94.4379928 103.3658199  46.4710765  99.6996683
 103.2490584  47.4156198  99.5975373 102.5450646  46.1684327 100.0882482
 113.2534734  41.1960901  90.5453275 114.0880338  40.7642099  90.3630750
 113.0919077  41.0242915  91.4730170 112.9080626  37.6993014  91.9109615
 112.8529430  37.5337286  90.9698059 112.2826681  38.4069047  92.0671804
  97.6973141  32.9361079 105.7371037  98.3432005  32.4260033 106.2258262
  97.4890292  33.6729760 106.3114462 106.2176752  27.2001123  91.4894933
 106.2055421  28.1442963  91.6463204 107.1100173  27.0171269  91.1954394
 104.3912714  47.1239027 102.9152611 105.2939960  47.1562637 103.2319106
 104.1650084  46.1939478 102.9298947 106.1466316  45.8770014  99.5762690
 105.1961947  45.8771875  99.4627062 106.4498802  45.1302748  99.0598724
 114.5495531  53.5193457  96.5666868 113.9860396  53.4283393  95.7983156
 114.4347926  52.6993361  97.0469360 112.0959963  55.0144648  99.4051088
 112.8881255  54.6735473  98.9897388 112.3356613  55.1239623 100.3253242
 114.0550717  54.2753561  92.2768467 114.8281593  53.7282548  92.1381343
 114.4076116  55.1397811  92.4882928 115.8935759  55.6029944 105.4835366
 115.6025625  56.5075574 105.3682033 116.5292744  55.6446471 106.1979436
 116.8191966  52.9806792 102.0736726 117.4155539  52.7562815 101.3593689
 116.8766938  52.2391538 102.6762174 116.3916995  50.4346228  89.9086917
 116.6442515  49.9127749  89.1470380 115.4541554  50.2712373  90.0113601
 116.1113283  52.3374333  92.1111292 115.9949542  51.6619237  92.7792376
 116.2215543  51.8506707  91.2943445 118.0950311  46.8274380  90.8119330
 118.2624714  47.6954617  91.1789801 117.9047480  46.9901662  89.8880619
 114.3038126  51.7405156  98.5121865 113.3788622  51.6081370  98.7199556
 114.5522539  52.5199375  99.0091807 118.0739532  49.2832038  91.7965997
 117.9539157  49.7289089  92.6351477 117.3792121  49.6317355  91.2379535
 111.6646937  51.3838430  99.3465654 111.7939318  51.6372908 100.2605065
 110.9844388  51.9766138  99.0270309 115.8346424  62.0535680  95.4456128
 115.7570454  63.0043505  95.5244608 115.2308068  61.7081552  96.1031054
 114.8246224  54.0225219 100.2189760 115.3947581  54.4512487  99.5807245
 115.4154335  53.7407804 100.9173946 116.8691029  50.5976890  94.0899562
 117.5715072  51.0497934  94.5573489 116.5371657  49.9560709  94.7179455
 110.6116363  48.8560443  99.3916696 109.8215417  49.1117971  98.9156806
 111.1027610  49.6708780  99.4968736 112.5631108  49.2205022  96.3500173
 111.7662271  49.3323716  96.8683668 112.3356700  49.5591674  95.4841063
 108.8954066  49.1090933 101.8231687 109.1462104  49.9937943 102.0889263
 109.4313614  48.9295534 101.0506778 111.5614191  54.9293271  94.7389593
 112.0738711  55.7236521  94.8895157 112.2136903  54.2319561  94.6723194
 113.3709075  58.0459027  96.8212346 113.5475704  58.9676991  96.6333330
 114.1665909  57.7317446  97.2506726 114.4940391  59.5637201 102.8222688
 115.0447816  59.4354264 102.0499682 113.6551867  59.8632090 102.4717581
 109.5263107  53.2581925  95.5149163 110.3638329  53.6678933  95.2982871
 109.7041375  52.3181367  95.4849357 114.3879002  45.6193987  97.0392343
 114.9622754  45.3969169  96.3065536 114.9749985  45.6882682  97.7920944
 114.7148589  47.6498448  91.0588228 113.8785902  47.9873135  91.3797503
 114.5753359  47.5147428  90.1215365 116.6901670  42.4935236  95.7667412
 116.0366082  42.1784253  95.1424027 116.6482144  41.8710977  96.4927235
 109.5489279  50.5972640  96.1859897 109.3513678  50.0042001  95.4610963
 108.9935943  50.2924850  96.9035835 117.5286002  50.4895747  98.3054490
 117.5834612  49.5369583  98.2296966 116.7177204  50.6455186  98.7895788
 115.4678362  49.1072806  96.0644869 114.6546228  49.4066977  96.4710061
 115.9637356  48.7128495  96.7819351 114.9592437  46.6791162 101.6806104
 115.5991816  46.5379921 100.9829067 114.1269967  46.3925675 101.3044706
 115.7352741  55.9793592  97.7941096 116.5293339  55.4843912  97.5923671
 115.0244433  55.4511455  97.4308802 112.0435504  50.1236674  93.8700849
 111.1133092  50.0621130  94.0870811 112.1392976  49.6012627  93.0737490
 111.9621053  46.6491487  96.4579090 112.2227871  47.5636820  96.3488251
 112.7838226  46.1815929  96.6075703 113.4345979  48.0629244 103.6277915
 114.1069032  47.8546606 102.9790564 112.6075765  47.8651330 103.1883147
 113.8373476  51.3371847 104.3880352 113.6993274  50.6052086 104.9891891
 114.7478399  51.2480747 104.1064540 113.4733254  64.8021074  99.5904330
 113.7129852  65.4339598 100.2683348 112.6302450  64.4509114  99.8769689
 114.5886969  47.4945676  88.2586135 113.7116436  47.3734476  87.8948381
 115.0644723  46.7031754  88.0065023 106.1089110  52.2822835  98.3527642
 106.7960149  51.9684565  97.7648657 105.9537238  53.1864200  98.0794893
 110.9123832  47.1713032 102.7812666 110.8282020  46.5638701 102.0463076
 110.0906538  47.6622050 102.7822162 117.9861116  60.6100196 101.9945834
 117.9131287  61.4155167 102.5065138 117.5438509  60.8092162 101.1693855
 117.6682514  47.7983978  97.8754545 117.2980302  47.2455019  98.5635451
 118.1641607  47.1942112  97.3229545 115.4971713  58.2581473 104.9709563
 116.1981172  58.8917956 105.1238957 115.0266828  58.5996205 104.2105203
 111.0939431  57.7917828 101.9040666 111.6792868  57.0461516 102.0368570
 110.8964269  58.1021785 102.7877330 113.9478086  60.8269076  96.9203108
 113.2788461  61.3115204  96.4367148 113.8090956  61.0738296  97.8346487
 105.6857086  50.3623429 100.6245109 105.7241185  49.8287019 101.4182227
 105.1797379  49.8358634 100.0056086 109.3165663  49.0887531  93.6999040
 109.6119104  48.1798209  93.6466094 108.4153699  49.0675270  93.3780043
 112.8459910  47.1643527  99.6826589 112.1246496  47.7779495  99.5434062
 113.6353166  47.7001292  99.6043235 111.0453505  46.7701629  93.8238366
 110.7166211  45.8899007  93.6413472 111.3992876  46.7149297  94.7114755
 114.1595328  47.0574598  94.1913843 114.4991401  47.5860520  93.4692452
 114.6067449  47.3955004  94.9672410 116.1463475  45.5549220  92.3907136
 116.8671838  45.9330473  91.8870853 115.5228779  46.2738097  92.4942114
 115.0293819  49.2180082  99.9036213 114.8838400  49.5320385 100.7960494
 114.5519023  49.8364982  99.3507112 109.5039482  51.7585426 102.8423874
 108.9592950  52.5345234 102.9744148 110.3818831  52.1056231 102.6842996
 116.2927098  45.0897010  95.2204673 116.4143009  44.1613657  95.4195560
 116.0029141  45.1035696  94.3082988 110.2905503  50.8855323 105.7354031
 109.5487240  51.0337958 106.3218661 109.9698248  51.1463588 104.8720780
 110.7362117  58.7720751  97.7664426 111.5620137  58.4724523  97.3863069
 110.3856169  58.0028374  98.2154214 115.7043650  58.1247220  99.8362099
 115.0823660  57.4617925  99.5364327 116.3748517  58.1508352  99.1535747
 108.9370722  56.6907078  98.7253359 108.1002631  56.2629252  98.5437361
 108.9094368  56.8839521  99.6624150 115.2657157  56.6751143  93.3120560
 115.4145278  57.3586607  92.6587233 116.0723601  56.6556233  93.8270016
 113.0209790  52.7016321  94.3181629 112.7755832  51.7978651  94.5161839
 113.1905705  52.7033471  93.3761107 112.2905438  48.4344678  91.8167790
 111.5974683  48.5089033  91.1607826 112.0457190  47.6705022  92.3389307
 117.3342278  48.4310063  88.0603245 116.4273734  48.1343175  88.1365959
 117.6118259  48.1339881  87.1937531 108.2520219  49.7516426  98.5102291
 107.9323003  48.8981734  98.2176665 107.7053647  49.9665004  99.2660259
 112.0300126  52.4678867 102.2271798 112.2486136  53.3995975 102.2459832
 112.4425900  52.1086841 103.0126602 116.1041063  45.2896998  88.2015224
 116.9660227  45.6151896  88.4611041 116.2891407  44.5028494  87.6888290
 108.1208479  53.3719338 100.4795413 107.4271950  52.9573290  99.9665367
 108.8681470  53.4139874  99.8828832 110.0345221  53.3037591  98.3561428
 110.0115909  53.4025279  97.4043311 110.3445858  54.1502742  98.6778594
 112.6932599  55.3613746 102.4708042 113.6475853  55.3297689 102.4037974
 112.4945123  54.9004370 103.2858268 113.2831981  53.9314862 105.0378840
 114.1024870  54.4258941 105.0613677 113.5568789  53.0146831 105.0096407
 111.0482828  60.9033366  99.4878240 110.9137296  60.1433767  98.9216238
 110.6314890  61.6274266  99.0207029 114.2051954  61.8002683  99.6996683
 114.0884338  62.7448115  99.5975373 113.3844400  61.4976244 100.0882482
 108.5366896  48.2652996 105.7371037 109.1825759  47.7551950 106.2258262
 108.3284047  49.0021678 106.3114462 117.0570506  42.5293041  91.4894933
 117.0449176  43.4734881  91.6463204 117.9493928  42.3463186  91.1954394
 115.2306468  62.4530945 102.9152611 116.1333715  62.4854555 103.2319106
 115.0043838  61.5231396 102.9298947 116.9860070  61.2061931  99.5762690
 116.0355701  61.2063793  99.4627062 117.2892556  60.4594666  99.0598724
 116.9482864  67.6114753  98.3527642 117.6353904  67.2976483  97.7648657
 116.7930993  68.5156118  98.0794893 116.5250840  65.6915346 100.6245109
 116.5634940  65.1578937 101.4182227 116.0191133  65.1650552 100.0056086
  91.7945746  11.1499361  86.3149636  92.0342345  11.7817885  86.9928655
  90.9514943  10.7987401  86.6014996 103.7101778  15.1963661  83.2912174
 103.1466643  15.1053598  82.5228462 103.5954173  14.3763566  83.7714667
 101.2566210  16.6914853  86.1296395 102.0487502  16.3505678  85.7142694
 101.4962860  16.8009828  87.0498548 109.2901336  18.8634629  78.6026639
 108.6389316  19.4488710  78.2160653 110.0845699  19.3940824  78.6621677
 103.2156964  15.9523766  79.0013774 103.9887840  15.4052753  78.8626650
 103.5682362  16.8168016  79.2128235 105.0542006  17.2800149  92.2080673
 104.7631872  18.1845779  92.0927339 105.6898991  17.3216676  92.9224743
 105.9798213  14.6576997  88.7982033 106.5761785  14.4333019  88.0838996
 106.0373185  13.9161743  89.4007481 110.7676602  16.5525061  79.1395624
 110.1322435  16.6259688  79.8516528 110.4374008  17.1418660  78.4614703
 105.2719530  14.0144538  78.8356599 105.1555788  13.3389442  79.5037683
 105.3821790  13.5276912  78.0188752 103.4644373  13.4175361  85.2367171
 102.5394869  13.2851575  85.4444863 103.7128786  14.1969580  85.7337114
 100.8253184  13.0608634  86.0710960 100.9545565  13.3143113  86.9850372
 100.1450635  13.6536342  85.7515615 104.9952671  23.7305884  82.1701434
 104.9176701  24.6813710  82.2489915 104.3914315  23.3851757  82.8276361
 111.5400427  16.4149534  86.7405219 110.9109290  16.5795248  86.0381287
 111.1526090  16.8291144  87.5116183 115.4189659  17.3503972  84.0949582
 114.7340697  17.7302874  83.5446616 115.5033509  17.9599299  84.8281530
 107.0928389  16.1523942  84.0055304 107.5566735  16.4311645  83.2159926
 106.8285187  15.2507387  83.8228394 103.9852470  15.6995424  86.9435067
 104.5553827  16.1282692  86.3052552 104.5760582  15.4178009  87.6419253
 107.5543022  17.4219930  91.0227994 107.6187455  17.8840337  91.8586166
 106.8453946  16.7917295  91.1510304 107.2691040  19.0888037  80.8906974
 107.1336715  19.9339573  81.3191822 107.8100852  19.2907315  80.1272908
 100.7220437  16.6063475  81.4634899 101.2344958  17.4006726  81.6140464
 101.3743150  15.9089766  81.3968501 102.5315322  19.7229232  83.5457652
 102.7081950  20.6447196  83.3578636 103.3272156  19.4087651  83.9752032
 103.6546638  21.2407405  89.5467995 104.2054063  21.1124469  88.7744989
 102.8158113  21.5402295  89.1962888  98.6869354  14.9352130  82.2394470
  99.5244576  15.3449138  82.0228177  98.8647622  13.9951572  82.2094664
 108.8166521  16.6344526  81.4031038 108.2887883  15.8997285  81.0904275
 108.3154024  17.4119202  81.1571006 109.8687200  23.1622243  77.3262697
 109.1948899  23.4653940  77.9347655 110.2553022  23.9651324  76.9768154
 108.1407355  14.5537331  78.9290001 107.2318574  14.2696364  79.0262471
 108.1702439  14.9736409  78.0693308 113.3726622  18.1643920  82.6981169
 112.9188949  17.3234830  82.7546359 112.7420589  18.8005319  83.0355949
 111.8159562  20.0020417  83.6330987 112.1082536  20.5625474  82.9143352
 112.3258182  20.2948978  84.3884146  98.7095525  12.2742845  82.9105203
  98.5119925  11.6812206  82.1856270  98.1542189  11.9695055  83.6281142
 107.8383443  16.0946075  76.2678080 107.4002873  15.3781934  75.8083717
 108.5793884  16.3222189  75.7063171 106.7793187  20.7800768  84.7224440
 106.7369366  21.0061615  83.7932972 107.6955886  20.5464143  84.8710241
 104.8958988  17.6563797  84.5186403 105.6899586  17.1614117  84.3168978
 104.1850680  17.1281660  84.1554108 109.7153832  20.0381893  88.8698770
 109.7690854  20.6072829  89.6376486 108.8468613  20.2083778  88.5052807
 107.4730264  18.2292819  88.1984240 107.3341349  17.8611604  89.0710178
 106.6844860  18.7440459  88.0268198 108.0678415  23.3301916  79.5409776
 108.2430171  22.8589959  80.3555399 107.3811204  23.9567682  79.7691037
 109.0235479  17.6074422  85.5873078 108.6885311  17.5675192  86.4830727
 108.5239424  16.9419138  85.1143488 102.6339501  26.4791278  86.3149636
 102.8736099  27.1109803  86.9928655 101.7908697  26.1279318  86.6014996
  95.2695356  13.9593040  85.0772949  95.9566396  13.6454770  84.4893964
  95.1143485  14.8634405  84.8040200 107.1467363  22.2870401  88.7191140
 107.0737534  23.0925372  89.2310445 106.7044756  22.4862367  87.8939162
 106.9357142  21.5242171  82.2293962 106.1524664  22.0663851  82.3232186
 107.6349887  22.0416151  82.6288203 109.6066046  22.1857235  90.8749299
 110.3194018  22.8204700  90.8025201 109.1156075  22.2821101  90.0589301
 104.6577960  19.9351678  91.6954870 105.3587419  20.5688161  91.8484264
 104.1873075  20.2766410  90.9350509 112.7832356  18.2769628  79.9802777
 113.0592199  18.1626223  80.8896651 111.9136854  17.8787113  79.9414950
 109.4186420  22.5255979  83.6235591 109.6008814  21.7077635  84.0863343
 110.2419406  22.7423671  83.1860481 109.7528585  21.4524164  80.8850639
 110.2816351  20.9416619  80.2720801 110.0156805  21.1366694  81.7496172
 100.2545678  19.4688033  88.6285973 100.8399115  18.7231721  88.7613877
 100.0570516  19.7791990  89.5122636 103.1084333  22.5039281  83.6448415
 102.4394708  22.9885408  83.1612455 102.9697203  22.7508501  84.5591793
  94.8463332  12.0393634  87.3490416  94.8847432  11.5057224  88.1427534
  94.3403625  11.5128839  86.7301393 107.2489602  24.5383024  90.2431073
 107.8007910  24.7014646  91.0080159 107.5895795  25.1287462  89.5711098
 110.3857989  22.4865000  87.2294755 110.2609128  21.6854740  86.7205701
 111.0437080  22.9811193  86.7408725 112.4492897  20.2874020  88.8574306
 111.5023233  20.1679371  88.7852632 112.7975670  19.3996518  88.9400567
 109.4539331  20.0826736  85.0578658 109.3064293  19.1543444  85.2386228
 110.2792824  20.1046827  84.5735733 113.0573452  20.9055295  86.1443531
 113.9820000  20.6998156  86.0067982 112.8888756  20.6571696  87.0532872
 112.8468769  21.4240962  81.5005622 113.0205646  20.8587385  80.7479474
 113.3397660  22.2241857  81.3185112  98.6645728  13.4355631  89.5669181
  98.1199196  14.2115439  89.6989455  99.5425078  13.7826436  89.4088302
 113.8343941  20.7407727  78.6002520 114.5294846  21.3614419  78.8189835
 114.1767091  19.8903078  78.8754898  99.4511750  12.5625528  92.4599338
  98.7093486  12.7108163  93.0463968  99.1304495  12.8233793  91.5966087
 115.7335364  18.1907432  80.1289851 116.2586688  18.5294705  79.4039171
 115.6457717  17.2554448  79.9452986 107.3955413  22.1041506  92.2579728
 107.7042539  21.8590653  93.1302427 108.1930895  22.3088144  91.7698598
 107.4176025  24.2579416  84.4885104 106.9781015  23.7655794  85.1817961
 108.1684142  23.7152383  84.2477179  99.8968364  20.4490956  84.4909732
 100.7226384  20.1494728  84.1108376  99.5462416  19.6798579  84.9399521
 104.8649897  19.8017425  86.5607406 104.2429906  19.1388130  86.2609634
 105.5354764  19.8278557  85.8781054  98.0976969  18.3677283  85.4498666
  97.2608877  17.9399457  85.2682667  98.0700614  18.5609726  86.3869457
 104.4263404  18.3521348  80.0365866 104.5751524  19.0356812  79.3832539
 105.2329847  18.3326438  80.5515322 102.1816037  14.3786526  81.0426935
 101.9362079  13.4748856  81.2407145 102.3511952  14.3803676  80.1006413
 107.9258810  20.8469478  77.5077614 107.3532777  21.4659666  77.0548086
 108.4991603  21.3968840  78.0417536 111.1456069  21.1306629  78.6386196
 112.0786742  21.0652190  78.8419072 111.0579282  21.9662895  78.1800729
 113.7744086  20.4472499  75.5990144 113.6957718  20.1132363  76.4925902
 114.5953753  20.9394267  75.5981616  97.4126466  11.4286631  85.2347598
  97.0929250  10.5751939  84.9421972  96.8659894  11.6435209  85.9905565
 101.1906373  14.1449072  88.9517105 101.4092383  15.0766180  88.9705138
 101.6032147  13.7857046  89.7371908  97.2814726  15.0489542  87.2040720
  96.5878197  14.6343495  86.6910674  98.0287717  15.0910079  86.6074138
  99.1951468  14.9807796  85.0806734  99.1722156  15.0795484  84.1288618
  99.5052105  15.8272947  85.4023901 101.8538846  17.0383951  89.1953349
 102.8082100  17.0067894  89.1283280 101.6551370  16.5774575  90.0103575
 102.4438228  15.6085067  91.7624147 103.2631117  16.1029146  91.7858984
 102.7175036  14.6917035  91.7341714 100.2089075  22.5803571  86.2123547
 100.0743543  21.8203972  85.6461545  99.7921137  23.3044471  85.7452336
 111.3448038  17.7640494  75.2200122 112.0483888  17.9690497  75.8357778
 110.6210687  18.3317256  75.4849206 103.3658201  23.4772888  86.4241989
 103.2490585  24.4218320  86.3220680 102.5450647  23.1746449  86.8127789
 113.2534735  18.2023023  77.2698582 114.0880339  17.7704222  77.0876057
 113.0919078  18.0305037  78.1975477 104.3912715  24.1301150  89.6397918
 105.2939961  24.1624760  89.9564413 104.1650085  23.2001601  89.6544254
 106.1466317  22.8832136  86.3007996 105.1961948  22.8833998  86.1872369
 106.4498803  22.1364871  85.7844031 114.5495532  30.5255579  83.2912174
 113.9860397  30.4345516  82.5228462 114.4347927  29.7055484  83.7714667
 112.0959964  32.0206771  86.1296395 112.8881256  31.6797595  85.7142694
 112.3356614  32.1301746  87.0498548 114.0550718  31.2815684  79.0013774
 114.8281594  30.7344671  78.8626650 114.4076117  32.1459933  79.2128235
 115.8935761  32.6092066  92.2080673 115.6025627  33.5137697  92.0927339
 116.5292745  32.6508594  92.9224743 116.8191968  29.9868915  88.7982033
 117.4155540  29.7624937  88.0838996 116.8766939  29.2453660  89.4007481
 116.3916996  27.4408350  76.6332224 116.6442517  26.9189871  75.8715687
 115.4541555  27.2774496  76.7358907 116.1113285  29.3436456  78.8356599
 115.9949543  28.6681359  79.5037683 116.2215545  28.8568830  78.0188752
 118.0950313  23.8336503  77.5364636 118.2624715  24.7016739  77.9035107
 117.9047482  23.9963785  76.6125926 114.3038127  28.7467279  85.2367171
 113.3788624  28.6143493  85.4444863 114.5522540  29.5261498  85.7337114
 118.0739533  26.2894160  78.5211303 117.9539159  26.7351211  79.3596783
 117.3792122  26.6379478  77.9624841 111.6646938  28.3900552  86.0710960
 111.7939319  28.6435031  86.9850372 110.9844390  28.9828260  85.7515615
 115.8346426  39.0597802  82.1701434 115.7570455  40.0105627  82.2489915
 115.2308069  38.7143675  82.8276361 114.8246225  31.0287342  86.9435067
 115.3947582  31.4574610  86.3052552 115.4154337  30.7469926  87.6419253
 116.8691030  27.6039012  80.8144869 117.5715073  28.0560056  81.2818795
 116.5371658  26.9622831  81.4424762 110.6116364  25.8622565  86.1162002
 109.8215418  26.1180094  85.6402113 111.1027611  26.6770903  86.2214043
 112.5631109  26.2267144  83.0745479 111.7662272  26.3385839  83.5928975
 112.3356701  26.5653797  82.2086370 108.8954067  26.1153056  88.5476993
 109.1462105  27.0000065  88.8134569 109.4313615  25.9357657  87.7752085
 111.5614192  31.9355393  81.4634899 112.0738712  32.7298643  81.6140464
 112.2136905  31.2381684  81.3968501 113.3709077  35.0521149  83.5457652
 113.5475705  35.9739114  83.3578636 114.1665910  34.7379569  83.9752032
 114.4940392  36.5699323  89.5467995 115.0447817  36.4416387  88.7744989
 113.6551868  36.8694212  89.1962888 109.5263109  30.2644047  82.2394470
 110.3638331  30.6741056  82.0228177 109.7041376  29.3243490  82.2094664
 114.3879003  22.6256110  83.7637649 114.9622755  22.4031291  83.0310842
 114.9749986  22.6944804  84.5166251 114.7148590  24.6560571  77.7833535
 113.8785903  24.9935257  78.1042809 114.5753360  24.5209551  76.8460672
 116.6901671  19.4997359  82.4912719 116.0366083  19.1846376  81.8669334
 116.6482145  18.8773099  83.2172542 109.5489280  27.6034763  82.9105203
 109.3513680  27.0104123  82.1856270 108.9935944  27.2986973  83.6281142
 117.5286003  27.4957869  85.0299796 117.5834613  26.5431706  84.9542273
 116.7177205  27.6517308  85.5141095 115.4678363  26.1134929  82.7890175
 114.6546229  26.4129099  83.1955367 115.9637358  25.7190618  83.5064657
 114.9592438  23.6853284  88.4051410 115.5991817  23.5442044  87.7074373
 114.1269969  23.3987798  88.0290012 115.7352742  32.9855715  84.5186403
 116.5293341  32.4906035  84.3168978 115.0244434  32.4573578  84.1554108
 112.0435505  27.1298797  80.5946155 111.1133094  27.0683252  80.8116117
 112.1392977  26.6074749  79.7982797 111.9621055  23.6553609  83.1824397
 112.2227872  24.5698943  83.0733557 112.7838227  23.1878052  83.3321010
 113.4345980  25.0691367  90.3523222 114.1069033  24.8608729  89.7035870
 112.6075766  24.8713453  89.9128454 113.8373477  28.3433970  91.1125659
 113.6993275  27.6114208  91.7137198 114.7478401  28.2542870  90.8309846
 113.4733255  41.8083196  86.3149636 113.7129853  42.4401720  86.9928655
 112.6302452  41.4571236  86.6014996 114.5886971  24.5007798  74.9831441
 113.7116437  24.3796599  74.6193688 115.0644724  23.7093877  74.7310330
 106.1089111  29.2884958  85.0772949 106.7960151  28.9746688  84.4893964
 105.9537240  30.1926323  84.8040200 110.9123833  24.1775155  89.5057972
 110.8282022  23.5700824  88.7708382 110.0906539  24.6684173  89.5067469
 117.9861117  37.6162319  88.7191140 117.9131289  38.4217290  89.2310445
 117.5438510  37.8154284  87.8939162 117.6682516  24.8046101  84.5999852
 117.2980303  24.2517141  85.2880758 118.1641608  24.2004235  84.0474852
 115.4971714  35.2643596  91.6954870 116.1981174  35.8980079  91.8484264
 115.0266829  35.6058328  90.9350509 111.0939432  34.7979951  88.6285973
 111.6792869  34.0523639  88.7613877 110.8964271  35.1083908  89.5122636
 113.9478087  37.8331198  83.6448415 113.2788463  38.3177326  83.1612455
 113.8090957  38.0800419  84.5591793 105.6857087  27.3685551  87.3490416
 105.7241187  26.8349142  88.1427534 105.1797380  26.8420757  86.7301393
 109.3165665  26.0949653  80.4244347 109.6119106  25.1860332  80.3711401
 108.4153700  26.0737393  80.1025349 112.8459912  24.1705650  86.4071896
 112.1246497  24.7841618  86.2679369 113.6353167  24.7063415  86.3288542
 111.0453506  23.7763751  80.5483672 110.7166212  22.8961130  80.3658778
 111.3992877  23.7211420  81.4360062 114.1595329  24.0636721  80.9159150
 114.4991402  24.5922642  80.1937758 114.6067450  24.4017127  81.6917716
 116.1463476  22.5611343  79.1152443 116.8671839  22.9392595  78.6116160
 115.5228781  23.2800219  79.2187421 115.0293821  26.2242205  86.6281520
 114.8838401  26.5382508  87.5205801 114.5519024  26.8427105  86.0752418
 109.5039483  28.7647549  89.5669181 108.9592951  29.5407357  89.6989455
 110.3818833  29.1118354  89.4088302 116.2927100  22.0959133  81.9449979
 116.4143011  21.1675779  82.1440867 116.0029142  22.1097819  81.0328295
 110.2905505  27.8917445  92.4599338 109.5487241  28.0400081  93.0463968
 109.9698249  28.1525711  91.5966087 110.7362118  35.7782874  84.4909732
 111.5620138  35.4786646  84.1108376 110.3856170  35.0090497  84.9399521
 115.7043652  35.1309342  86.5607406 115.0823661  34.4680047  86.2609634
 116.3748518  35.1570474  85.8781054 108.9370723  33.6969201  85.4498666
 108.1002632  33.2691375  85.2682667 108.9094369  33.8901644  86.3869457
 115.2657158  33.6813266  80.0365866 115.4145279  34.3648730  79.3832539
 116.0723602  33.6618356  80.5515322 113.0209791  29.7078443  81.0426935
 112.7755833  28.8040773  81.2407145 113.1905706  29.7095594  80.1006413
 112.2905439  25.4406801  78.5413097 111.5974684  25.5151156  77.8853133
 112.0457191  24.6767144  79.0634614 117.3342280  25.4372185  74.7848552
 116.4273735  25.1405298  74.8611265 117.6118261  25.1402003  73.9182838
 108.2520220  26.7578549  85.2347598 107.9323004  25.9043857  84.9421972
 107.7053648  26.9727127  85.9905565 112.0300128  29.4740990  88.9517105
 112.2486137  30.4058097  88.9705138 112.4425901  29.1148964  89.7371908
 116.1041064  22.2959120  74.9260531 116.9660228  22.6214019  75.1856348
 116.2891408  21.5090616  74.4133597 108.1208480  30.3781460  87.2040720
 107.4271951  29.9635413  86.6910674 108.8681471  30.4201997  86.6074138
 110.0345223  30.3099714  85.0806734 110.0115911  30.4087401  84.1288618
 110.3445859  31.1564865  85.4023901 112.6932600  32.3675869  89.1953349
 113.6475854  32.3359811  89.1283280 112.4945124  31.9066493  90.0103575
 113.2831983  30.9376985  91.7624147 114.1024872  31.4321064  91.7858984
 113.5568790  30.0208953  91.7341714 111.0482829  37.9095488  86.2123547
 110.9137297  37.1495889  85.6461545 110.6314892  38.6336388  85.7452336
 114.2051955  38.8064805  86.4241989 114.0884339  39.7510238  86.3220680
 113.3844401  38.5038367  86.8127789 108.5366897  25.2715119  92.4616344
 109.1825760  24.7614073  92.9503569 108.3284048  26.0083801  93.0359769
 117.0570507  19.5355163  78.2140240 117.0449177  20.4797003  78.3708511
 117.9493929  19.3525309  77.9199701 115.2306469  39.4593067  89.6397918
 116.1333716  39.4916678  89.9564413 115.0043839  38.5293518  89.6544254
 116.9860071  38.2124054  86.3007996 116.0355702  38.2125916  86.1872369
 117.2892557  37.4656788  85.7844031 116.9482865  44.6176876  85.0772949
 117.6353905  44.3038606  84.4893964 116.7930994  45.5218240  84.8040200
 116.5250841  42.6977469  87.3490416 116.5634941  42.1641060  88.1427534
 116.0191134  42.1712674  86.7301393 113.4733257  18.8145319  73.0394943
 113.7129855  19.4463843  73.7173962 112.6302453  18.4633359  73.3260302
 116.9482867  21.6238998  71.8018255 117.6353906  21.3100728  71.2139271
 116.7930995  22.5280363  71.5285507 116.5250843  19.7039592  74.0735722
 116.5634942  19.1703182  74.8672840 116.0191136  19.1774797  73.4546700
  44.8324668  69.1498000 130.4281467  44.1586367  69.4529697 131.0366425
  45.2190490  69.9527080 130.0786924  48.7381554  66.4348255 128.7008914
  48.6595186  66.1008119 129.5944672  49.5591221  66.9270023 128.7000386
  46.3085506  63.7516251 128.3218892  47.0121356  63.9566253 128.9376548
  45.5848155  64.3193013 128.5867976  49.5524439  70.4883555 128.0850212
  48.6753905  70.3672356 127.7212458  50.0282192  69.6969633 127.8329100
  51.0678532  68.2834877 128.0279301  51.9297696  68.6089775 128.2875118
  51.2528876  67.4966373 127.5152367  44.8324670  46.1560122 117.1526774
  44.1586368  46.4591819 117.7611732  45.2190492  46.9589203 116.8032231
  48.7381555  43.4410378 115.4254221  48.6595187  43.1070242 116.3189979
  49.5591222  43.9332146 115.4245693  46.3085507  40.7578373 115.0464199
  47.0121357  40.9628376 115.6621855  45.5848156  41.3255135 115.3113283
  49.5133002  53.5193458 123.1176251  48.9497867  53.4283395 122.3492539
  49.3985397  52.6993363 123.5978744  55.0932560  57.1864426 118.4290716
  54.4420540  57.7718506 118.0424730  55.8876923  57.7170621 118.4885754
  49.0188187  54.2753563 118.8277851  49.7919063  53.7282550 118.6890727
  49.3713586  55.1397812 119.0392312  51.3554465  50.4346229 116.4596301
  51.6079986  49.9127751 115.6979764  50.4179024  50.2712375 116.5622984
  56.3997748  49.4382008 124.2671044  57.1860837  49.0201431 123.9161461
  56.6636452  50.3428100 124.4352692  56.5707825  54.8754858 118.9659701
  55.9353658  54.9489484 119.6780605  56.2405232  55.4648457 118.2878780
  61.8006175  49.3757241 125.1704022  62.5331347  48.8056458 125.4041852
  61.0445531  48.9878841 125.6110528  51.0750754  52.3374335 118.6620676
  50.9587012  51.6619239 119.3301760  51.1853014  51.8506709 117.8452829
  53.4182295  51.7984482 122.3667365  53.0540502  51.2715103 123.0780286
  54.2749411  51.4082951 122.1933850  53.0587782  46.8274382 117.3628713
  53.2262184  47.6954618 117.7299184  52.8684951  46.9901664 116.4390003
  53.0377003  49.2832040 118.3475380  52.9176628  49.7289090 119.1860860
  52.3429591  49.6317357 117.7888918  50.7983895  62.0535681 121.9965511
  50.7207925  63.0043506 122.0753992  50.1945538  61.7081554 122.6540438
  58.7362069  49.7553513 119.1755714  59.6479925  49.9880899 119.0003412
  58.2271716  50.3390557 118.6130793  57.3431651  54.7379331 126.5669296
  56.7140514  54.9025045 125.8645364  56.9557313  55.1520941 127.3380260
  61.2220883  55.6733769 123.9213659  60.5371921  56.0532670 123.3710693
  61.3064732  56.2829096 124.6545607  52.8959613  54.4753739 123.8319381
  53.3597959  54.7541442 123.0424003  52.6316411  53.5737184 123.6492471
  51.8328499  50.5976892 120.6408946  52.5352542  51.0497935 121.1082872
  51.5009128  49.9560710 121.2688839  59.5917643  56.1965683 128.6931360
  60.4135086  55.7945871 128.4114042  59.5880046  56.0933918 129.6447476
  67.6823636  52.5404432 125.0416332  66.9287344  51.9711830 124.8860336
  67.8171177  52.5067096 125.9886966  53.0722264  57.4117834 120.7171051
  52.9367939  58.2569370 121.1455899  53.6132076  57.6137112 119.9536985
  46.5251661  54.9293272 121.2898976  47.0376182  55.7236523 121.4404541
  47.1774374  54.2319563 121.2232578  48.3346546  58.0459029 123.3721729
  48.5113174  58.9676993 123.1842713  49.1303379  57.7317448 123.8016109
  56.3865010  50.9257007 117.7542380  55.8711633  51.6961612 117.9930767
  56.1142318  50.2522143 118.3775441  61.3599284  53.6789362 119.6895553
  60.5828727  53.3400521 119.2450715  62.0390765  53.6841985 119.0150518
  56.1751313  48.7984099 119.5802161  55.8701449  49.1130249 120.4312304
  57.1281755  48.8765519 119.6229494  54.6197745  54.9574323 121.2295115
  54.0919107  54.2227082 120.9168352  54.1185248  55.7348999 120.9835083
  59.5990591  53.1523343 126.3462161  58.9414266  53.8422605 126.4342290
  60.4030990  53.5419775 126.6896148  58.4096050  51.5067716 124.3966103
  58.9227932  52.1397708 124.8987813  59.0597274  50.9068911 124.0309463
  49.6786060  47.6498450 117.6097612  48.8423372  47.9873136 117.9306886
  49.5390829  47.5147430 116.6724749  52.7650345  52.7754533 114.2330088
  51.8577407  52.5443786 114.4321237  53.2621377  51.9792152 114.4204069
  55.6718424  61.4852040 117.1526774  54.9980123  61.7883737 117.7611732
  56.0584246  62.2881120 116.8032231  55.6711929  50.3808587 121.7727124
  56.4183747  50.8929984 121.4634246  55.9403518  50.0592640 122.6331517
  53.9438579  52.8767128 118.7554078  53.0349798  52.5926161 118.8526548
  53.9733662  53.2966206 117.8957385  59.1757846  56.4873717 122.5245246
  58.7220173  55.6464627 122.5810436  58.5451813  57.1235116 122.8620026
  57.6190785  58.3250214 123.4595064  57.9113760  58.8855271 122.7407429
  58.1289406  58.6178775 124.2148223  53.6414666  54.4175871 116.0942157
  53.2034096  53.7011730 115.6347794  54.3825107  54.6451986 115.5327248
  52.5824411  59.1030565 124.5488517  52.5400589  59.3291411 123.6197049
  53.4987109  58.8693940 124.6974318  61.7587781  52.6933068 122.1518475
  61.6205680  52.8834664 121.2239664  61.4024000  53.4552451 122.6086526
  61.7857161  54.7609595 127.1629747  62.2193668  54.6684885 128.0112801
  62.4988742  54.7367096 126.5249763  50.6990211  55.9793594 124.3450480
  51.4930810  55.4843914 124.1433055  49.9881904  55.4511457 123.9818185
  55.5185056  58.3611690 128.6962847  55.5722078  58.9302626 129.4640563
  54.6499837  58.5313575 128.3316884  47.0072975  50.1236676 120.4210232
  46.0770563  50.0621131 120.6380194  47.1030447  49.6012629 119.6246874
  53.8709639  61.6531713 119.3673853  54.0461395  61.1819756 120.1819476
  53.1842427  62.2797479 119.5955114  54.8266702  55.9304219 125.4137155
  54.4916535  55.8904989 126.3094804  54.3270648  55.2648935 124.9407565
  57.7625894  53.2760253 115.6874214  57.1455065  52.5507081 115.5907267
  57.2942383  54.0369613 115.3441288  48.4370725  64.8021075 126.1413713
  48.6767323  65.4339599 126.8192732  47.5939921  64.4509115 126.4279073
  49.5524440  47.4945677 114.8095518  48.6753906  47.3734478 114.4457765
  50.0282193  46.7031756 114.5574407  52.9498586  60.6100198 128.5455217
  52.8768758  61.4155169 129.0574522  52.5075980  60.8092164 127.7203239
  52.7388366  59.8471968 122.0558039  51.9555888  60.3893648 122.1496263
  53.4381111  60.3645947 122.4552280  63.9014774  51.3606963 126.3410536
  63.8904650  52.2431678 125.9704469  63.0332153  51.0078514 126.1465073
  57.1314797  54.4138284 122.2730668  56.1971076  54.5339747 122.1035372
  57.3091465  53.5110751 122.0090678  60.5187348  50.2555604 122.8080702
  60.9847800  51.0883595 122.7341005  60.9694849  49.7900585 123.5125960
  58.5863579  56.5999425 119.8066854  58.8623423  56.4856020 120.7160728
  57.7168078  56.2016910 119.7679027  55.2217643  60.8485776 123.4499668
  55.4040038  60.0307432 123.9127420  56.0450629  61.0653468 123.0124558
  55.5559809  59.7753961 120.7114716  56.0847575  59.2646416 120.0984878
  55.8188028  59.4596491 121.5760249  48.9115557  60.8269078 123.4712492
  48.2425932  61.3115205 122.9876532  48.7728426  61.0738298 124.3855871
  53.0520825  62.8612821 130.0695150  53.6039133  63.0244443 130.8344236
  53.3927019  63.4517259 129.3975175  56.1889213  60.8094797 127.0558833
  56.0640352  60.0084537 126.5469778  56.8468304  61.3040990 126.5672802
  58.2524121  58.6103817 128.6838383  57.3054457  58.4909168 128.6116709
  58.6006894  57.7226315 128.7664644  55.2570554  58.4056533 124.8842735
  55.1095517  57.4773240 125.0650305  56.0824048  58.4276624 124.3999810
  58.8604676  59.2285092 125.9707608  59.7851224  59.0227953 125.8332059
  58.6919980  58.9801493 126.8796949  51.1100946  45.5549222 118.9416520
  51.8309308  45.9330474 118.4380237  50.4866250  46.2738098 119.0451498
  55.2532069  46.2594371 119.8774852  55.4695683  47.1419009 119.5763680
  54.7726136  45.8680584 119.1480494  58.6499992  59.7470759 121.3269699
  58.8236870  59.1817182 120.5743551  59.1428884  60.5471654 121.1449189
  64.5039384  52.5107182 122.9459999  64.9470530  51.7614507 122.5479122
  63.6265894  52.5017318 122.5633731  59.6375165  59.0637524 118.4266597
  60.3326069  59.6844216 118.6453912  59.9798315  58.2132875 118.7018975
  61.5366588  56.5137229 119.9553928  62.0617912  56.8524502 119.2303248
  61.4488941  55.5784244 119.7717063  53.2207249  62.5809212 124.3149181
  52.7812239  62.0885591 125.0082038  53.9715366  62.0382180 124.0741256
  45.6999588  58.7720753 124.3173809  46.5257608  58.4724525 123.9372453
  45.3493640  58.0028376 124.7663598  50.6681121  58.1247221 126.3871483
  50.0461130  57.4617927 126.0873711  51.3385988  58.1508353 125.7045131
  50.2294628  56.6751145 119.8629943  50.3782748  57.3586609 119.2096616
  51.0361071  56.6556235 120.3779399  64.0472248  53.9812420 125.3382446
  64.8819140  54.4202225 125.5020007  64.1831377  53.5051074 124.5190692
  47.9847261  52.7016322 120.8691012  47.7393303  51.7978652 121.0671223
  48.1543175  52.7033473 119.9270490  47.2542908  48.4344680 118.3677174
  46.5612153  48.5089035 117.7117210  47.0094660  47.6705024 118.8898691
  53.7290033  59.1699275 117.3341691  53.1564000  59.7889462 116.8812163
  54.3022827  59.7198637 117.8681613  56.9487293  59.4536425 118.4650273
  57.8817966  59.3881987 118.6683149  56.8610506  60.2892692 118.0064806
  59.5775310  58.7702296 115.4254221  59.4988941  58.4362159 116.3189979
  60.3984977  59.2624064 115.4245693  54.1136832  50.5060088 114.6757743
  55.0595937  50.3766296 114.7446161  53.7351077  49.7674750 115.1527172
  68.0930051  52.6980042 127.7736576  68.8233439  52.4365330 128.3344279
  67.4836996  51.9608764 127.8138644  66.1745348  50.8387904 128.3711027
  65.4478511  50.7043869 127.7627519  65.7592635  51.1464733 129.1767745
  52.2979749  48.4310064 114.6112629  51.3911204  48.1343177 114.6875342
  52.5755730  48.1339883 113.7446915  51.0678534  45.2897000 114.7524608
  51.9297698  45.6151898 115.0120425  51.2528878  44.5028496 114.2397674
  59.2211170  44.1625526 121.8959831  58.6409839  44.8210330 121.5137883
  58.9547103  43.3402871 121.4847248  58.0036048  46.3225616 120.9516179
  57.1161903  46.6075267 120.7336374  58.4190037  46.1619380 120.1043456
  46.0120299  60.9033368 126.0387624  45.8774766  60.1433769 125.4725622
  45.5952361  61.6274267 125.5716413  57.1479262  56.0870291 115.0464199
  57.8515112  56.2920294 115.6621855  56.4241910  56.6547053 115.3113283
  57.9777072  51.8380152 121.1666469  57.9212273  52.2948704 120.3274102
  58.5305414  51.0770837 120.9889312  61.7881878  47.6269884 121.9916589
  61.5318812  47.2266520 122.8224796  61.1634746  48.3413678 121.8666728
  66.0994216  50.3665958 124.4987880  65.5393774  50.4359147 125.2719442
  65.4937719  50.1906942 123.7787376  49.1689424  61.8002685 126.2506066
  49.0521809  62.7448117 126.1484757  48.3481871  61.4976246 126.6391866
  59.0565959  56.5252820 117.0962659  59.8911563  56.0934019 116.9140134
  58.8950302  56.3534834 118.0239554  58.7111851  53.0284934 118.4618998
  58.6560655  52.8629205 117.5207443  58.0857906  53.7360967 118.6181188
  52.0207977  42.5293043 118.0404317  52.0086646  43.4734883 118.1972588
  52.9131398  42.3463188 117.7463778  51.9497541  61.2061933 126.1272073
  50.9993172  61.2063795 126.0136446  52.2530027  60.4594668 125.6108108
  60.3526756  68.8485376 123.1176251  59.7891621  68.7575313 122.3492539
  60.2379151  68.0285280 123.5978744  65.9326315  72.5156344 118.4290716
  65.2814294  73.1010424 118.0424730  66.7270678  73.0462539 118.4885754
  59.8581942  69.6045481 118.8277851  60.6312818  69.0574468 118.6890727
  60.2107341  70.4689730 119.0392312  62.1948220  65.7638147 116.4596301
  62.4473740  65.2419668 115.6979764  61.2572779  65.6004292 116.5622984
  67.2391503  64.7673925 124.2671044  68.0254592  64.3493348 123.9161461
  67.5030207  65.6720018 124.4352692  67.4101580  70.2046776 118.9659701
  66.7747413  70.2781402 119.6780605  67.0798986  70.7940374 118.2878780
  61.9144508  67.6666253 118.6620676  61.7980767  66.9911156 119.3301760
  62.0246768  67.1798627 117.8452829  64.2576049  67.1276400 122.3667365
  63.8934257  66.6007021 123.0780286  65.1143165  66.7374869 122.1933850
  63.8981536  62.1566300 117.3628713  64.0655939  63.0246536 117.7299184
  63.7078705  62.3193581 116.4390003  60.1069351  67.0697075 125.0631248
  59.1819847  66.9373290 125.2708940  60.3553764  67.8491295 125.5601191
  63.8770757  64.6123957 118.3475380  63.7570382  65.0581008 119.1860860
  63.1823346  64.9609275 117.7888918  57.4678162  66.7130349 125.8975037
  57.5970543  66.9664828 126.8114449  56.7875613  67.3058057 125.5779692
  69.5755823  65.0845430 119.1755714  70.4873679  65.3172817 119.0003412
  69.0665470  65.6682475 118.6130793  66.9191798  61.2603466 127.4245575
  66.0576277  61.5584720 127.7162313  66.9454233  61.4773865 126.4926608
  63.7353368  69.8045657 123.8319381  64.1991713  70.0833360 123.0424003
  63.4710166  68.9029102 123.6492471  62.6722254  65.9268809 120.6408946
  63.3746297  66.3789853 121.1082872  62.3402882  65.2852628 121.2688839
  56.4147588  64.1852362 125.9426079  55.6246642  64.4409890 125.4666190
  56.9058835  65.0000700 126.0478120  58.3662333  64.5496941 122.9009556
  57.5693496  64.6615635 123.4193052  58.1387925  64.8883593 122.0350447
  54.6985291  64.4382852 128.3741070  54.9493329  65.3229862 128.6398646
  55.2344839  64.2587454 127.6016162  63.9116018  72.7409752 120.7171051
  63.7761693  73.5861288 121.1455899  64.4525831  72.9429030 119.9536985
  57.3645416  70.2585190 121.2898976  57.8769936  71.0528440 121.4404541
  58.0168128  69.5611480 121.2232578  67.2608482  56.2640314 129.2469945
  66.9172751  57.1541955 129.1709055  67.6287444  56.0741971 128.3839530
  55.3294332  68.5873844 122.0658547  56.1669554  68.9970853 121.8492254
  55.5072600  67.6473286 122.0358741  67.2258765  66.2548925 117.7542380
  66.7105388  67.0253530 117.9930767  66.9536073  65.5814061 118.3775441
  64.8105876  61.0998626 122.8127618  63.9547472  60.7105476 122.6333257
  65.2232827  61.1790586 121.9527404  66.3405022  58.6344969 127.2119178
  65.8369818  58.5975104 126.3986983  66.6335629  59.5437712 127.2715835
  62.5847908  58.7183699 126.2185360  63.4500905  58.5226507 125.8591249
  62.6525417  58.4894050 127.1454716  72.1993039  69.0081280 119.6895553
  71.4222481  68.6692439 119.2450715  72.8784520  69.0133903 119.0150518
  67.0145068  64.1276017 119.5802161  66.7095203  64.4422166 120.4312304
  67.9675510  64.2057437 119.6229494  65.4591500  70.2866240 121.2295115
  64.9312861  69.5519000 120.9168352  64.9579002  71.0640917 120.9835083
  60.1910227  60.9485907 123.5901726  60.7653979  60.7261088 122.8574919
  60.7781210  61.0174601 124.3430328  60.5179814  62.9790368 117.6097612
  59.6817127  63.3165054 117.9306886  60.3784584  62.8439347 116.6724749
  62.4932895  57.8227156 122.3176796  61.8397307  57.5076173 121.6933411
  62.4513369  57.2002896 123.0436619  63.6044100  68.1046451 114.2330088
  62.6971161  67.8735704 114.4321237  64.1015132  67.3084070 114.4204069
  66.5112179  76.8143958 117.1526774  65.8373877  77.1175655 117.7611732
  66.8978001  77.6173038 116.8032231  66.5105683  65.7100505 121.7727124
  67.2577502  66.2221902 121.4634246  66.7797273  65.3884557 122.6331517
  64.7832333  68.2059045 118.7554078  63.8743552  67.9218078 118.8526548
  64.8127417  68.6258124 117.8957385  68.9584520  62.7457621 123.7545913
  68.2207277  62.2335007 124.0856156  69.2111294  62.3058003 122.9429190
  69.0596147  55.5233873 124.3487682  69.3655024  54.6631236 124.0613597
  69.7848752  56.1151493 124.1486676  55.3520504  65.9264560 122.7369280
  55.1544903  65.3333920 122.0120347  54.7967168  65.6216770 123.4545219
  63.3317227  65.8187666 124.8563873  63.3865837  64.8661502 124.7806350
  62.5208429  65.9747105 125.3405172  64.4808421  69.7467789 116.0942157
  64.0427851  69.0303648 115.6347794  65.2218862  69.9743904 115.5327248
  61.2709587  64.4364726 122.6154252  60.4577453  64.7358896 123.0219444
  61.7668581  64.0420415 123.3328734  60.7623662  62.0083081 128.2315487
  61.4023041  61.8671840 127.5338451  59.9301192  61.7217595 127.8554089
  57.8466729  65.4528593 120.4210232  56.9164317  65.3913049 120.6380194
  57.9424201  64.9304546 119.6246874  57.7652278  61.9783406 123.0088474
  58.0259096  62.8928740 122.8997634  58.5869451  61.5107849 123.1585087
  68.6019649  68.6052171 115.6874214  67.9848819  67.8798999 115.5907267
  68.1336137  69.3661531 115.3441288  60.3918195  62.8237595 114.8095518
  59.5147661  62.7026396 114.4457765  60.8675948  62.0323673 114.5574407
  51.9120335  67.6114755 124.9037026  52.5991374  67.2976485 124.3158041
  51.7568463  68.5156119 124.6304277  56.7155057  62.5004951 129.3322049
  56.6313246  61.8930621 128.5972459  55.8937763  62.9913970 129.3331546
  66.8878771  60.9858515 124.6992244  67.3847470  60.2328477 124.3793315
  66.1165752  61.0222832 124.1335454  63.4713739  63.1275898 124.4263929
  63.1011527  62.5746938 125.1144835  63.9672832  62.5234031 123.8738929
  69.3297765  57.9528108 126.8471603  68.4160845  58.1832335 127.0153810
  69.7590867  58.0366552 127.6985636  51.4888311  65.6915348 127.1754493
  51.5272410  65.1578939 127.9691611  50.9828604  65.1650554 126.5565470
  58.8679073  60.5379889 130.6717035  58.9320400  61.3994720 130.2594433
  58.8046193  59.9253890 129.9389394  55.1196888  64.4179450 120.2508424
  55.4150329  63.5090129 120.1975478  54.2184924  64.3967190 119.9289426
  58.6491135  62.4935447 126.2335973  57.9277721  63.1071415 126.0943446
  59.4384391  63.0293212 126.1552619  56.8484730  62.0993548 120.3747749
  56.5197436  61.2190927 120.1922855  57.2024101  62.0441217 121.2624139
  59.9626553  62.3866518 120.7423227  60.3022626  62.9152439 120.0201835
  60.4098674  62.7246924 121.5181793  63.3086466  57.8552881 128.6453618
  64.1312535  57.3813359 128.5232508  63.5524529  58.6343365 129.1452304
  61.9494700  60.8841139 118.9416520  62.6703063  61.2622392 118.4380237
  61.3260004  61.6030016 119.0451498  66.0925823  61.5886288 119.8774852
  66.3089438  62.4710926 119.5763680  65.6119890  61.1972502 119.1480494
  60.8325044  64.5472002 126.4545597  60.6869625  64.8612305 127.3469878
  60.3550248  65.1656902 125.9016495  62.6921427  61.5374550 126.5026486
  62.6782996  60.6415643 126.1658784  63.4093855  61.5445213 127.1364772
  62.0958323  60.4188930 121.7714056  62.2174235  59.4905576 121.9704944
  61.8060366  60.4327616 120.8592372  64.9649514  58.1043840 124.9080776
  64.9871211  58.1683173 123.9532756  65.3817573  57.2648349 125.1021282
  56.5393342  74.1012671 124.3173809  57.3651362  73.8016443 123.9372453
  56.1887394  73.3320293 124.7663598  54.7401947  72.0198997 125.2762743
  53.9033856  71.5921172 125.0946744  54.7125593  72.2131441 126.2133534
  61.0688382  72.0043063 119.8629943  61.2176503  72.6878527 119.2096616
  61.8754826  71.9848153 120.3779399  58.8241015  68.0308240 120.8691012
  58.5787057  67.1270570 121.0671223  58.9936930  68.0325391 119.9270490
  58.0936663  63.7636598 118.3677174  57.4005908  63.8380953 117.7117210
  57.8488415  62.9996941 118.8898691  66.7650319  55.3232199 125.7716665
  67.0452073  54.6555388 126.3977091  67.5500926  55.5161295 125.2591328
  64.5683788  74.4991193 117.3341691  63.9957755  75.1181380 116.8812163
  65.1416581  75.0490555 117.8681613  67.7881048  74.7828343 118.4650273
  68.7211721  74.7173905 118.6683149  67.7004260  75.6184610 118.0064806
  70.4169064  74.0994213 115.4254221  70.3382696  73.7654077 116.3189979
  71.2378731  74.5915981 115.4245693  64.9530586  65.8352006 114.6757743
  65.8989691  65.7058214 114.7446161  64.5744831  65.0966668 115.1527172
  70.9252471  57.5008012 124.6384635  70.7277292  57.1923100 125.5227967
  71.5352176  58.2269651 124.7682565  63.1373503  63.7601982 114.6112629
  62.2304959  63.4635095 114.6875342  63.4149484  63.4631800 113.7446915
  54.0551444  65.0808346 125.0611675  53.7354228  64.2273654 124.7686049
  53.5084872  65.2956924 125.8169642  64.7535569  58.3038872 120.7656870
  63.9436297  57.9585957 121.1412116  65.4419986  57.9946416 121.3544481
  66.6826117  57.3816919 122.3881167  67.2357156  57.8012372 123.0471190
  66.9196204  56.4552667 122.4304123  61.9072288  60.6188917 114.7524608
  62.7691452  60.9443816 115.0120425  62.0922632  59.8320413 114.2397674
  53.9239704  68.7011257 127.0304797  53.2303175  68.2865210 126.5174751
  54.6712695  68.7431794 126.4338215  70.0604925  59.4917444 121.8959831
  69.4803594  60.1502248 121.5137883  69.7940857  58.6694788 121.4847248
  68.5108491  58.8922501 124.0981151  69.0108269  59.0039036 123.2895470
  69.1544099  58.5883554 124.7381960  55.8376446  68.6329511 124.9070811
  55.8147134  68.7317198 123.9552695  56.1477083  69.4794662 125.2287978
  68.8429803  61.6517534 120.9516179  67.9555658  61.9367185 120.7336374
  69.2583792  61.4911298 120.1043456  67.9873016  71.4162209 115.0464199
  68.6908866  71.6212211 115.6621855  67.2635665  71.9838971 115.3113283
  68.8170826  67.1672070 121.1666469  68.7606028  67.6240622 120.3274102
  69.3699169  66.4062755 120.9889312  72.6275632  62.9561802 121.9916589
  72.3712566  62.5558438 122.8224796  72.0028500  63.6705596 121.8666728
  69.8959713  71.8544738 117.0962659  70.7305317  71.4225937 116.9140134
  69.7344056  71.6826752 118.0239554  69.5505606  68.3576851 118.4618998
  69.4954409  68.1921123 117.5207443  68.9251661  69.0652884 118.6181188
  62.8601731  57.8584960 118.0404317  62.8480401  58.8026800 118.1972588
  63.7525153  57.6755106 117.7463778  66.6753851  54.4527737 122.2950254
  65.9086246  53.8986224 122.4406936  67.0864556  54.5249606 123.1564405
  71.2311949  78.1529513 114.8095518  70.3541415  78.0318314 114.4457765
  71.7069702  77.3615591 114.5574407  72.7466043  75.9480835 114.7524608
  73.6085207  76.2735733 115.0120425  72.9316387  75.1612331 114.2397674
  44.8324671  23.1622245 103.8772081  44.1586370  23.4653942 104.4857039
  45.2190493  23.9651325 103.5277538  48.7381557  20.4472501 102.1499527
  48.6595188  20.1132364 103.0435285  49.5591223  20.9394269 102.1491000
  46.3085508  17.7640496 101.7709506  47.0121358  17.9690499 102.3867161
  45.5848157  18.3317258 102.0358589  49.5133003  30.5255581 109.8421558
  48.9497868  30.4345518 109.0737846  49.3985398  29.7055485 110.3224051
  55.0932562  34.1926549 105.1536023  54.4420541  34.7780629 104.7670037
  55.8876924  34.7232744 105.2131060  49.0188189  31.2815686 105.5523157
  49.7919065  30.7344673 105.4136033  49.3713588  32.1459935 105.7637619
  51.3554466  27.4408352 103.1841607  51.6079987  26.9189873 102.4225070
  50.4179026  27.2774497 103.2868291  56.3997749  26.4444130 110.9916351
  57.1860839  26.0263553 110.6406768  56.6636454  27.3490222 111.1597999
  56.5707827  31.8816981 105.6905007  55.9353660  31.9551607 106.4025912
  56.2405233  32.4710579 105.0124087  61.8006176  26.3819363 111.8949329
  62.5331348  25.8118580 112.1287159  61.0445532  25.9940964 112.3355835
  51.0750755  29.3436458 105.3865982  50.9587013  28.6681361 106.0547067
  51.1853015  28.8568832 104.5698135  53.4182296  28.8046605 109.0912671
  53.0540503  28.2777226 109.8025593  54.2749412  28.4145074 108.9179157
  53.0587783  23.8336505 104.0874020  53.2262185  24.7016741 104.4544491
  52.8684952  23.9963786 103.1635309  53.0377004  26.2894162 105.0720687
  52.9176629  26.7351213 105.9106167  52.3429592  26.6379480 104.5134225
  50.7983896  39.0597804 108.7210818  50.7207926  40.0105629 108.7999299
  50.1945540  38.7143676 109.3785744  58.7362070  26.7615635 105.9001021
  59.6479926  26.9943022 105.7248718  58.2271717  27.3452680 105.3376099
  57.3431652  31.7441454 113.2914602  56.7140515  31.9087168 112.5890670
  56.9557315  32.1583063 114.0625566  61.2220884  32.6795892 110.6458966
  60.5371923  33.0594793 110.0955999  61.3064734  33.2891218 111.3790914
  52.8959614  31.4815862 110.5564687  53.3597960  31.7603565 109.7669310
  52.6316412  30.5799306 110.3737778  51.8328500  27.6039014 107.3654253
  52.5352544  28.0560058 107.8328179  51.5009129  26.9622833 107.9934146
  59.5917644  33.2027806 115.4176667  60.4135088  32.8007993 115.1359349
  59.5880047  33.0996040 116.3692783  67.6823637  29.5466555 111.7661638
  66.9287345  28.9773953 111.6105643  67.8171178  29.5129219 112.7132273
  53.0722265  34.4179957 107.4416358  52.9367940  35.2631493 107.8701206
  53.6132078  34.6199234 106.6782292  46.5251662  31.9355395 108.0144283
  47.0376183  32.7298645 108.1649848  47.1774375  31.2381685 107.9477884
  48.3346547  35.0521151 110.0967036  48.5113175  35.9739116 109.9088020
  49.1303381  34.7379570 110.5261416  56.3865011  27.9319130 104.4787686
  55.8711635  28.7023734 104.7176074  56.1142320  27.2584266 105.1020748
  61.3599285  30.6851484 106.4140860  60.5828728  30.3462644 105.9696022
  62.0390766  30.6904108 105.7395825  56.1751314  25.8046222 106.3047468
  55.8701450  26.1192371 107.1557611  57.1281757  25.8827642 106.3474801
  54.6197746  31.9636445 107.9540422  54.0919108  31.2289205 107.6413659
  54.1185249  32.7411122 107.7080390  59.5990592  30.1585466 113.0707468
  58.9414267  30.8484727 113.1587596  60.4030992  30.5481898 113.4141454
  58.4096051  28.5129838 111.1211410  58.9227933  29.1459830 111.6233119
  59.0597275  27.9131034 110.7554770  49.6786061  24.6560573 104.3342918
  48.8423373  24.9935259 104.6552193  49.5390831  24.5209552 103.3970055
  52.7650347  29.7816656 100.9575395  51.8577408  29.5505909 101.1566544
  53.2621378  28.9854275 101.1449376  55.6718425  38.4914163 103.8772081
  54.9980124  38.7945859 104.4857039  56.0584247  39.2943243 103.5277538
  55.6711930  27.3870710 108.4972430  56.4183749  27.8992107 108.1879552
  55.9403519  27.0654762 109.3576824  53.9438580  29.8829250 105.4799385
  53.0349799  29.5988283 105.5771854  53.9733664  30.3028329 104.6202692
  59.1757847  33.4935840 109.2490552  58.7220174  32.6526750 109.3055743
  58.5451814  34.1297238 109.5865332  57.6190787  35.3312337 110.1840370
  57.9113761  35.8917394 109.4652736  58.1289407  35.6240898 110.9393529
  53.6414668  31.4237994 102.8187463  53.2034098  30.7073853 102.3593101
  54.3825109  31.6514109 102.2572555  52.5824412  36.1092688 111.2733824
  52.5400591  36.3353534 110.3442356  53.4987111  35.8756062 111.4219625
  61.7587783  29.6995191 108.8763782  61.6205681  29.8896787 107.9484971
  61.4024001  30.4614574 109.3331833  61.7857162  31.7671718 113.8875053
  62.2193669  31.6747007 114.7358107  62.4988743  31.7429219 113.2495069
  50.6990213  32.9855717 111.0695786  51.4930811  32.4906037 110.8678361
  49.9881905  32.4573580 110.7063492  55.5185057  35.3673812 115.4208154
  55.5722079  35.9364749 116.1885870  54.6499838  35.5375697 115.0562191
  47.0072976  27.1298798 107.1455539  46.0770564  27.0683254 107.3625501
  47.1030448  26.6074751 106.3492180  53.8709641  38.6593835 106.0919160
  54.0461396  38.1881878 106.9064783  53.1842429  39.2859601 106.3200421
  54.8266704  32.9366341 112.1382461  54.4916536  32.8967111 113.0340111
  54.3270649  32.2711057 111.6652871  57.7625895  30.2822376 102.4119521
  57.1455066  29.5569204 102.3152573  57.2942384  31.0431736 102.0686595
  48.4370726  41.8083198 112.8659020  48.6767324  42.4401722 113.5438039
  47.5939922  41.4571238 113.1524379  49.5524441  24.5007800 101.5340825
  48.6753908  24.3796601 101.1703072  50.0282194  23.7093878 101.2819714
  52.9498588  37.6162320 115.2700524  52.8768759  38.4217292 115.7819829
  52.5075981  37.8154286 114.4448545  52.7388367  36.8534090 108.7803346
  51.9555889  37.3955771 108.8741570  53.4381112  37.3708070 109.1797587
  63.9014775  28.3669085 113.0655842  63.8904651  29.2493801 112.6949776
  63.0332154  28.0140636 112.8710380  57.1314798  31.4200407 108.9975974
  56.1971077  31.5401869 108.8280679  57.3091467  30.5172874 108.7335984
  60.5187349  27.2617726 109.5326009  60.9847802  28.0945718 109.4586311
  60.9694850  26.7962708 110.2371267  58.5863581  33.6061548 106.5312161
  58.8623424  33.4918142 107.4406035  57.7168079  33.2079032 106.4924334
  55.2217645  37.8547898 110.1744974  55.4040039  37.0369554 110.6372727
  56.0450631  38.0715591 109.7369864  55.5559810  36.7816084 107.4360023
  56.0847577  36.2708538 106.8230185  55.8188030  36.4658614 108.3005556
  48.9115558  37.8331200 110.1957799  48.2425933  38.3177328 109.7121839
  48.7728428  38.0800421 111.1101177  53.0520827  39.8674944 116.7940457
  53.6039135  40.0306565 117.5589542  53.3927020  40.4579382 116.1220482
  56.1889214  37.8156919 113.7804139  56.0640353  37.0146659 113.2715085
  56.8468305  38.3103113 113.2918109  58.2524122  35.6165939 115.4083689
  57.3054458  35.4971291 115.3362016  58.6006895  34.7288437 115.4909951
  55.2570556  35.4118656 111.6088041  55.1095518  34.4835363 111.7895611
  56.0824049  35.4338746 111.1245117  58.8604677  36.2347214 112.6952914
  59.7851225  36.0290076 112.5577365  58.6919981  35.9863616 113.6042256
  51.1100947  22.5611344 105.6661826  51.8309309  22.9392597 105.1625543
  50.4866251  23.2800221 105.7696804  55.2532070  23.2656493 106.6020159
  55.4695684  24.1481131 106.3008987  54.7726137  22.8742707 105.8725801
  58.6499994  36.7532882 108.0515006  58.8236871  36.1879304 107.2988858
  59.1428885  37.5533777 107.8694496  64.5039385  29.5169305 109.6705305
  64.9470531  28.7676630 109.2724429  63.6265895  29.5079441 109.2879037
  59.6375166  36.0699646 105.1511904  60.3326071  36.6906339 105.3699219
  59.9798316  35.2194997 105.4264282  61.5366589  33.5199352 106.6799235
  62.0617913  33.8586624 105.9548555  61.4488942  32.5846367 106.4962369
  53.2207250  39.5871335 111.0394488  52.7812240  39.0947714 111.7327345
  53.9715367  39.0444303 110.7986563  45.6999589  35.7782876 111.0419116
  46.5257609  35.4786648 110.6617759  45.3493641  35.0090498 111.4908905
  50.6681122  35.1309344 113.1116790  50.0461131  34.4680049 112.8119017
  51.3385989  35.1570476 112.4290437  50.2294629  33.6813267 106.5875250
  50.3782749  34.3648732 105.9341923  51.0361072  33.6618357 107.1024706
  64.0472249  30.9874543 112.0627753  64.8819141  31.4264347 112.2265313
  64.1831378  30.5113196 111.2435999  47.9847262  29.7078445 107.5936319
  47.7393304  28.8040775 107.7916529  48.1543177  29.7095596 106.6515797
  47.2542910  25.4406803 105.0922480  46.5612154  25.5151158 104.4362516
  47.0094661  24.6767146 105.6143997  53.7290035  36.1761398 104.0586998
  53.1564002  36.7951585 103.6057469  54.3022828  36.7260760 104.5926919
  56.9487294  36.4598548 105.1895580  57.8817968  36.3944110 105.3928455
  56.8610507  37.2954815 104.7310112  59.5775311  35.7764418 102.1499527
  59.4988943  35.4424282 103.0435285  60.3984978  36.2686186 102.1491000
  54.1136833  27.5122211 101.4003050  55.0595938  27.3828419 101.4691468
  53.7351078  26.7736873 101.8772478  68.0930052  29.7042165 114.4981883
  68.8233441  29.4427453 115.0589586  67.4836998  28.9670886 114.5383951
  66.1745349  27.8450027 115.0956334  65.4478513  27.7105992 114.4872826
  65.7592636  28.1526856 115.9013052  52.2979750  25.4372187 101.3357935
  51.3911206  25.1405300 101.4120649  52.5755731  25.1402005 100.4692221
  51.0678535  22.2959122 101.4769914  51.9297699  22.6214021 101.7365732
  51.2528879  21.5090618 100.9642980  59.2211171  21.1687649 108.6205137
  58.6409840  21.8272453 108.2383190  58.9547104  20.3464993 108.2092555
  58.0036049  23.3287739 107.6761486  57.1161904  23.6137390 107.4581680
  58.4190038  23.1681502 106.8288763  46.0120300  37.9095490 112.7632930
  45.8774768  37.1495891 112.1970928  45.5952362  38.6336390 112.2961719
  57.1479263  33.0932414 101.7709506  57.8515113  33.2982416 102.3867161
  56.4241912  33.6609176 102.0358589  57.9777073  28.8442275 107.8911776
  57.9212274  29.3010826 107.0519408  58.5305416  28.0832960 107.7134619
  61.7881879  24.6332007 108.7161895  61.5318813  24.2328643 109.5470103
  61.1634747  25.3475801 108.5912035  66.0994217  27.3728080 111.2233187
  65.5393775  27.4421269 111.9964749  65.4937720  27.1969065 110.5032683
  49.1689426  38.8064807 112.9751373  49.0521810  39.7510240 112.8730063
  48.3481872  38.5038369 113.3637172  59.0565960  33.5314943 103.8207966
  59.8911564  33.0996141 103.6385441  58.8950303  33.3596957 104.7484860
  58.7111852  30.0347056 105.1864305  58.6560656  29.8691328 104.2452749
  58.0857908  30.7423089 105.3426495  52.0207978  19.5355165 104.7649623
  52.0086648  20.4797005 104.9217894  52.9131400  19.3525311 104.4709085
  51.9497542  38.2124056 112.8517380  50.9993173  38.2125917 112.7381752
  52.2530028  37.4656790 112.3353415  67.6850235  44.0484594 113.9163142
  68.3228645  43.9291341 113.2126483  67.5671078  44.9965438 113.9751095
  64.4939942  44.0012022 113.8524667  64.1558453  43.8853087 112.9645202
  65.3629710  43.6003187 113.8325673  60.3526757  45.8547499 109.8421558
  59.7891622  45.7637436 109.0737846  60.2379152  45.0347403 110.3224051
  64.9759725  45.1546874 119.8110873  64.9648365  44.7599672 118.9391376
  65.1380364  44.4212947 120.4044644  57.8991189  47.3498690 112.6805779
  58.6912481  47.0089515 112.2652078  58.1387839  47.4593665 113.6007932
  65.9326316  49.5218466 105.1536023  65.2814296  50.1072547 104.7670037
  66.7270679  50.0524661 105.2131060  59.8581943  46.6107603 105.5523157
  60.6312819  46.0636591 105.4136033  60.2107342  47.4751853 105.7637619
  61.6966986  47.9383986 118.7590057  61.4056852  48.8429617 118.6436723
  62.3323970  47.9800513 119.4734126  62.6223193  45.3160834 115.3491416
  63.2186765  45.0916857 114.6348379  62.6798164  44.5745580 115.9516864
  62.1948221  42.7700270 103.1841607  62.4473742  42.2481791 102.4225070
  61.2572780  42.6066415 103.2868291  67.2391504  41.7736048 110.9916351
  68.0254593  41.3555471 110.6406768  67.5030208  42.6782140 111.1597999
  67.4101581  47.2108898 105.6905007  66.7747414  47.2843525 106.4025912
  67.0798988  47.8002497 105.0124087  72.6399931  41.7111281 111.8949329
  73.3725103  41.1410498 112.1287159  71.8839287  41.3232882 112.3355835
  61.9144510  44.6728376 105.3865982  61.7980768  43.9973279 106.0547067
  62.0246770  44.1860749 104.5698135  64.2576051  44.1338523 109.0912671
  63.8934258  43.6069144 109.8025593  65.1143167  43.7436992 108.9179157
  70.1625351  35.4232855 116.3543938  69.8308676  36.2928266 116.1305153
  69.5670965  35.1069139 117.0337968  63.8981538  39.1628422 104.0874020
  64.0655940  40.0308659 104.4544491  63.7078707  39.3255704 103.1635309
  66.6556871  47.6245401 115.7539850  66.3557594  48.5270440 115.6455658
  66.3107930  47.3577584 116.6061003  60.1069352  44.0759198 111.7876555
  59.1819849  43.9435412 111.9954247  60.3553765  44.8553417 112.2846497
  70.0554015  40.1427941 113.4337288  69.1470892  40.0743350 113.1396049
  70.0041610  40.6199886 114.2619113  63.8770758  41.6186080 105.0720687
  63.7570384  42.0643131 105.9106167  63.1823347  41.9671397 104.5134225
  57.4678163  43.7192472 112.6220344  57.5970544  43.9726951 113.5359756
  56.7875615  44.3120180 112.3024999  61.6377651  54.3889722 108.7210818
  61.5601680  55.3397547 108.7999299  61.0339294  54.0435594 109.3785744
  64.1294880  41.5617587 121.3772185  63.3528214  42.1211507 121.3675050
  64.7685443  42.0474370 121.8987055  71.9215661  38.3444380 115.2115162
  71.2790041  38.6376913 114.5654956  71.4170590  38.2297300 116.0168358
  69.5755825  42.0907553 105.9001021  70.4873681  42.3234940 105.7248718
  69.0665472  42.6744597 105.3376099  62.3841253  44.3703040 120.9390152
  63.1255937  44.9088084 120.6624976  61.6778238  44.9969329 121.0961704
  67.8596592  46.5132181 119.5362313  68.2679948  46.0714591 118.7916946
  67.1373854  45.9384808 119.7896506  64.2127662  41.4504788 116.9095870
  65.0588858  41.8744201 117.0530519  64.1526300  40.7938412 117.6034434
  68.1825407  47.0733371 113.2914602  67.5534269  47.2379086 112.5890670
  67.7951069  47.4874981 114.0625566  72.0614639  48.0087809 110.6458966
  71.3765677  48.3886711 110.0955999  72.1458488  48.6183136 111.3790914
  67.3627108  39.1109156 118.5677044  67.1188040  39.8651216 118.0311320
  67.6387038  39.4894504 119.4024291  69.3165570  45.6547768 117.2454310
  69.5282466  46.2979528 116.5688691  69.2695319  44.8210085 116.7776240
  66.9191799  38.2665589 114.1490882  66.0576278  38.5646843 114.4407619
  66.9454234  38.4835988 113.2171914  63.7353369  46.8107780 110.5564687
  64.1991714  47.0895483 109.7669310  63.4710167  45.9091224 110.3737778
  60.6277450  46.3579261 113.4944451  61.1978807  46.7866529 112.8561935
  61.2185562  46.0761846 114.1928636  62.6722255  42.9330932 107.3654253
  63.3746298  43.3851976 107.8328179  62.3402883  42.2914751 107.9934146
  61.1202616  41.5242689 121.7405462  60.4901277  42.2058969 121.9740859
  61.0138704  41.4125770 120.7958600  56.4147589  41.1914485 112.6671386
  55.6246643  41.4472013 112.1911497  56.9058836  42.0062822 112.7723427
  70.4311398  48.5319724 115.4176667  71.2528842  48.1299911 115.1359349
  70.4273801  48.4287958 116.3692783  58.3662334  41.5559064 109.6254863
  57.5693498  41.6677758 110.1438359  58.1387926  41.8945716 108.7595753
  64.1968002  48.0803767 117.5737377  64.2612434  48.5424174 118.4095549
  63.4878926  47.4501132 117.7019687  54.6985292  41.4444975 115.0986377
  54.9493330  42.3291985 115.3643953  55.2344840  41.2649577 114.3261469
  78.5217391  44.8758472 111.7661638  77.7681100  44.3065870 111.6105643
  78.6564933  44.8421137 112.7132273  63.9116020  49.7471875 107.4416358
  63.7761694  50.5923410 107.8701206  64.4525832  49.9491152 106.6782292
  57.3645417  47.2647313 108.0144283  57.8769937  48.0590563 108.1649848
  58.0168130  46.5673603 107.9477884  59.1740302  50.3813069 110.0967036
  59.3506930  51.3031034 109.9088020  59.9697135  50.0671488 110.5261416
  58.4592658  42.4277701 119.9729199  58.3446173  41.5262958 120.2736298
  57.6037176  42.6741397 119.6214016  65.5384496  50.3695441 121.5716700
  65.0948350  49.5831820 121.2537604  66.2001709  50.5574592 120.9060591
  60.2971617  51.8991243 116.0977378  60.8479042  51.7708306 115.3254372
  59.4583093  52.1986132 115.7472271  67.6365734  50.6498241 119.5998101
  67.6184209  51.4707122 119.1078370  68.5585654  50.5252316 119.8248242
  64.0938788  48.1642370 120.4421610  64.6267125  47.4030659 120.2120917
  63.5652869  47.8716022 121.1845764  67.2608483  33.2702436 115.9715251
  66.9172752  34.1604078 115.8954362  67.6287446  33.0804094 115.1084836
  55.3294334  45.5935967 108.7903853  56.1669556  46.0032975 108.5737561
  55.5072601  44.6535409 108.7604047  67.2258766  43.2611048 104.4787686
  66.7105389  44.0315652 104.7176074  66.9536074  42.5876184 105.1020748
  64.8105877  38.1060748 109.5372925  63.9547473  37.7167599 109.3578563
  65.2232829  38.1852709 108.6772710  66.3405023  35.6407092 113.9364484
  65.8369819  35.6037227 113.1232290  66.6335630  36.5499834 113.9961141
  62.5847909  35.7245821 112.9430666  63.4500906  35.5288630 112.5836556
  62.6525418  35.4956173 113.8700023  72.1993040  46.0143402 106.4140860
  71.4222483  45.6754562 105.9696022  72.8784521  46.0196025 105.7395825
  67.0145069  41.1338140 106.3047468  66.7095205  41.4484289 107.1557611
  67.9675511  41.2119559 106.3474801  65.4591501  47.2928363 107.9540422
  64.9312862  46.5581122 107.6413659  64.9579004  48.0703039 107.7080390
  70.4384347  45.4877383 113.0707468  69.7808021  46.1776645 113.1587596
  71.2424746  45.8773815 113.4141454  60.1910228  37.9548029 110.3147033
  60.7653980  37.7323211 109.5820226  60.7781211  38.0236724 111.0675634
  69.2489806  43.8421756 111.1211410  69.7621687  44.4751748 111.6233119
  69.8991030  43.2422952 110.7554770  60.5179816  39.9852490 104.3342918
  59.6817128  40.3227177 104.6552193  60.3784585  39.8501470 103.3970055
  62.4932896  34.8289278 109.0422102  61.8397308  34.5138295 108.4178717
  62.4513370  34.2065019 109.7681925  63.6044101  45.1108573 100.9575395
  62.6971163  44.8797827 101.1566544  64.1015133  44.3146192 101.1449376
  66.5112180  53.8206080 103.8772081  65.8373879  54.1237777 104.4857039
  66.8978002  54.6235161 103.5277538  65.7270636  41.3171212 113.3669750
  64.8093198  41.5386159 113.2091438  66.1430780  41.3917522 112.5081457
  66.5105684  42.7162627 108.4972430  67.2577503  43.2284025 108.1879552
  66.7797274  42.3946680 109.3576824  64.7832334  45.2121168 105.4799385
  63.8743554  44.9280201 105.5771854  64.8127418  45.6320247 104.6202692
  70.0151602  48.8227758 109.2490552  69.5613929  47.9818667 109.3055743
  69.3845569  49.4589156 109.5865332  68.9584521  39.7519744 110.4791220
  68.2207278  39.2397130 110.8101462  69.2111295  39.3120125 109.6674497
  68.4584541  50.6604254 110.1840370  68.7507515  51.2209311 109.4652736
  68.9683162  50.9532815 110.9393529  69.0596149  32.5295996 111.0732989
  69.3655026  31.6693359 110.7858904  69.7848754  33.1213616 110.8731983
  55.3520505  42.9326682 109.4614587  55.1544905  42.3396043 108.7365653
  54.7967169  42.6278892 110.1790526  63.3317228  42.8249789 111.5809180
  63.3865838  41.8723625 111.5051657  62.5208431  42.9809228 112.0650478
  64.4808422  46.7529912 102.8187463  64.0427852  46.0365771 102.3593101
  65.2218863  46.9806027 102.2572555  61.2709588  41.4426848 109.3399559
  60.4577454  41.7421019 109.7464751  61.7668583  41.0482537 110.0574041
  63.4218166  51.4384605 111.2733824  63.3794345  51.6645452 110.3442356
  64.3380865  51.2047980 111.4219625  66.8683800  41.9068673 118.1714453
  67.2233188  42.1340146 119.0308919  67.5155931  42.2387050 117.5491708
  72.5981537  45.0287109 108.8763782  72.4599436  45.2188705 107.9484971
  72.2417756  45.7906492 109.3331833  60.7623663  39.0145204 114.9560794
  61.4023042  38.8733963 114.2583757  59.9301194  38.7279717 114.5799396
  72.6250917  47.0963636 113.8875053  73.0587423  47.0038925 114.7358107
  73.3382497  47.0721136 113.2495069  61.5383967  48.3147634 111.0695786
  62.3324566  47.8197954 110.8678361  60.8275659  47.7865497 110.7063492
  66.3578812  50.6965730 115.4208154  66.4115834  51.2656666 116.1885870
  65.4893593  50.8667615 115.0562191  57.8466731  42.4590716 107.1455539
  56.9164319  42.3975172 107.3625501  57.9424203  41.9366669 106.3492180
  57.7652280  38.9845529 109.7333781  58.0259097  39.8990862 109.6242941
  58.5869452  38.5169971 109.8830393  59.2377205  40.3983286 116.9032605
  59.9100258  40.1900648 116.2545254  58.4106991  40.2005372 116.4637837
  73.4866466  47.1387336 116.4207939  73.6802356  48.0433147 116.6667214
  73.3867084  46.6794755 117.2546524  65.1402777  37.0245227 118.9198266
  64.4930692  37.7235177 118.8262742  65.9103792  37.4581371 119.2874514
  68.5481575  47.2894079 121.9948819  68.3967081  47.0604631 121.0778903
  68.5386254  48.2464681 122.0080164  65.3166911  44.8625992 116.9795086
  66.2458971  45.0137152 116.8064053  64.8957941  44.9510013 116.1243732
  64.1155243  48.8876656 114.7493623  63.9766329  48.5195441 115.6219561
  63.3269839  49.4024296 114.5777581  64.7103395  53.9885753 106.0919160
  64.8855151  53.5173796 106.9064783  64.0236183  54.6151519 106.3200421
  65.6660458  48.2658259 112.1382461  65.3310291  48.2259029 113.0340111
  65.1664404  47.6002975 111.6652871  59.6404702  43.6725889 117.6635042
  59.5024500  42.9406128 118.2646581  60.5509626  43.5834789 117.3819230
  68.6019650  45.6114293 102.4119521  67.9848820  44.8861122 102.3152573
  68.1336138  46.3723654 102.0686595  62.2687003  43.3845848 117.1518722
  62.9786621  42.7439041 117.1105340  62.2256311  43.6358743 118.0744903
  70.2573782  50.3213202 120.0725301  70.1986328  49.6372422 119.4055884
  70.6593300  51.0632192 119.6205927  60.9815937  40.3711066 118.9714361
  60.4453294  39.9201805 119.6235958  60.3932645  40.5056975 118.2284826
  59.2764480  57.1375116 112.8659020  59.5161079  57.7693640 113.5438039
  58.4333677  56.7863156 113.1524379  60.3918196  39.8299718 101.5340825
  59.5147662  39.7088518 101.1703072  60.8675949  39.0385796 101.2819714
  70.2591189  48.2852786 118.3039281  69.3717968  47.9478707 118.4265680
  70.8289740  47.5535817 118.5408046  51.9120336  44.6176877 111.6282332
  52.5991376  44.3038607 111.0403348  51.7568465  45.5218242 111.3549584
  56.7155058  39.5067074 116.0567356  56.6313247  38.8992744 115.3217766
  55.8937764  39.9976092 116.0576852  63.7892342  52.9454238 115.2700524
  63.7162514  53.7509210 115.7819829  63.3469735  53.1446204 114.4448545
  63.5782122  52.1826008 108.7803346  62.7949644  52.7247688 108.8741570
  64.2774867  52.6999988 109.1797587  66.8878772  37.9920637 111.4237551
  67.3847471  37.2390600 111.1038621  66.1165753  38.0284954 110.8580760
  74.7408529  43.6961003 113.0655842  74.7298406  44.5785718 112.6949776
  73.8725909  43.3432554 112.8710380  66.2491026  52.8441072 117.4258683
  66.9618998  53.4788537 117.3534584  65.7581054  52.9404938 116.6098685
  67.9708553  46.7492325 108.9975974  67.0364831  46.8693787 108.8280679
  68.1485221  45.8464791 108.7335984  63.4713741  40.1338020 111.1509236
  63.1011528  39.5809061 111.8390141  63.9672833  39.5296154 110.5984236
  71.3581104  42.5909644 109.5326009  71.8241556  43.4237636 109.4586311
  71.8088604  42.1254626 110.2371267  61.3002939  50.5935516 118.2464254
  62.0012399  51.2271998 118.3993648  60.8298054  50.9350247 117.4859893
  69.4257335  48.9353465 106.5312161  69.7017179  48.8210060 107.4406035
  68.5561834  48.5370950 106.4924334  69.3297767  34.9590231 113.5716910
  68.4160846  35.1894458 113.7399117  69.7590868  35.0428675 114.4230942
  69.1004225  43.1480123 116.0716804  68.4475675  43.3956030 115.4169257
  69.4784605  42.3344261 115.7379281  66.0611399  53.1839816 110.1744974
  66.2433794  52.3661472 110.6372727  66.8844385  53.4007508 109.7369864
  66.3953565  52.1108001 107.4360023  66.9241331  51.6000456 106.8230185
  66.6581784  51.7950531 108.3005556  65.1491798  43.8899934 122.5582841
  64.4732435  43.7894063 123.2285216  65.9719432  43.7339148 123.0218838
  56.8970657  50.1271871 115.1795356  57.4824094  49.3815558 115.3123260
  56.6995496  50.4375827 116.0632020  59.7509313  53.1623118 110.1957799
  59.0819688  53.6469246 109.7121839  59.6122182  53.4092338 111.1101177
  51.4888312  42.6977471 113.8999799  51.5272412  42.1641061 114.6936917
  50.9828605  42.1712676 113.2810777  63.8914581  55.1966861 116.7940457
  64.4432889  55.3598483 117.5589542  64.2320775  55.7871299 116.1220482
  58.8679074  37.5442011 117.3962342  58.9320401  38.4056842 116.9839739
  58.8046195  36.9316013 116.6634700  68.7425455  50.0228119 122.6489111
  69.2865359  50.6358077 122.1544066  68.1612300  50.5807697 123.1656124
  55.1196890  41.4241573 106.9753731  55.4150331  40.5152251 106.9220784
  54.2184925  41.4029312 106.6534733  67.0282968  53.1448837 113.7804139
  66.9034108  52.3438577 113.2715085  67.6862059  53.6395030 113.2918109
  58.6491137  39.4997569 112.9581279  57.9277722  40.1133537 112.8188753
  59.4384392  40.0355334 112.8797925  69.0917877  50.9457857 115.4083689
  68.1448212  50.8263208 115.3362016  69.4400650  50.0580355 115.4909951
  56.8484731  39.1055671 107.0993056  56.5197437  38.2253049 106.9168162
  57.2024102  39.0503339 107.9869445  66.0964310  50.7410573 111.6088041
  65.9489272  49.8127281 111.7895611  66.9217804  50.7630664 111.1245117
  59.9626554  39.3928640 107.4668534  60.3022627  39.9214562 106.7447142
  60.4098675  39.7309046 108.2427100  69.6998432  51.5639132 112.6952914
  70.6244979  51.3581993 112.5577365  69.5313735  51.3155533 113.6042256
  62.6569995  37.7765691 116.9171602  62.3166816  36.9773504 117.3192282
  61.9509001  38.0767402 116.3448435  63.3086467  34.8615004 115.3698925
  64.1312536  34.3875482 115.2477815  63.5524531  35.6405487 115.8697611
  61.9494701  37.8903262 105.6661826  62.6703064  38.2684515 105.1625543
  61.3260006  38.6092139 105.7696804  66.0925824  38.5948411 106.6020159
  66.3089439  39.4773049 106.3008987  65.6119892  38.2034624 105.8725801
  60.8325046  41.5534124 113.1790903  60.6869626  41.8674427 114.0715185
  60.3550249  42.1719024 112.6261802  62.6921429  38.5436672 113.2271793
  62.6782997  37.6477765 112.8904091  63.4093857  38.5507336 113.8610079
  64.5447559  38.9774012 115.2724920  64.2865337  39.8991083 115.2709251
  64.0132600  38.5804447 115.9625384  69.4893748  52.0824799 108.0515006
  69.6630626  51.5171222 107.2988858  69.9822639  52.8825694 107.8694496
  55.3070708  44.0939469 116.1178564  54.7624176  44.8699277 116.2498839
  56.1850058  44.4410273 115.9597686  62.0958325  37.4251052 108.4959363
  62.2174236  36.4967699 108.6950250  61.8060367  37.4389738 107.5837678
  64.9649515  35.1105963 111.6326083  64.9871212  35.1745296 110.6778062
  65.3817574  34.2710471 111.8266589  75.3433139  44.8461222 109.6705305
  75.7864285  44.0968548 109.2724429  74.4659650  44.8371359 109.2879037
  70.4768921  51.3991564 105.1511904  71.1719825  52.0198257 105.3699219
  70.8192071  50.5486915 105.4264282  56.0936730  43.2209365 119.0108721
  55.3518466  43.3692000 119.5973352  55.7729474  43.4817630 118.1475471
  72.3760344  48.8491269 106.6799235  72.9011668  49.1878542 105.9548555
  72.2882696  47.9138285 106.4962369  64.0380392  52.7625343 118.8089111
  64.3467519  52.5174490 119.6811811  64.8355874  52.9671982 118.3207982
  64.0601004  54.9163253 111.0394488  63.6205995  54.4239631 111.7327345
  64.8109121  54.3736220 110.7986563  56.5393343  51.1074794 111.0419116
  57.3651363  50.8078565 110.6617759  56.1887395  50.3382416 111.4908905
  61.5074877  50.4601262 113.1116790  60.8854886  49.7971967 112.8119017
  62.1779744  50.4862394 112.4290437  54.7401948  49.0261120 112.0008050
  53.9033857  48.5983294 111.8192051  54.7125594  49.2193563 112.9378841
  72.0654250  49.4824173 121.9850433  71.2749793  49.4648312 121.4454932
  71.8287604  50.0212467 122.7399469  72.1852125  46.3316639 119.2983161
  72.2350130  46.1666647 120.2398684  72.0766048  45.4643898 118.9081042
  61.0688384  49.0105185 106.5875250  61.2176504  49.6940649 105.9341923
  61.8754827  48.9910275 107.1024706  69.4755887  42.3147567 120.6142468
  70.3765750  42.1754032 120.3226466  69.5503862  42.4802022 121.5540645
  63.8098693  39.6914422 119.4595654  62.9402002  39.9847988 119.1878243
  64.0458173  40.2754867 120.1802918  73.6870322  48.7513581 119.5425183
  73.3955130  49.1143561 120.3788644  73.0742453  48.0380589 119.3638515
  74.8866004  46.3166461 112.0627753  75.7212895  46.7556265 112.2265313
  75.0225133  45.8405114 111.2435999  71.9357510  43.8746196 118.0105241
  72.4111631  44.0673842 117.2024092  71.0123075  43.9305381 117.7648624
  58.8241017  45.0370363 107.5936319  58.5787058  44.1332693 107.7916529
  58.9936931  45.0387513 106.6515797  66.5137726  35.9094039 116.9761075
  67.0319670  36.6455066 116.6507563  66.1592859  36.2158032 117.8107834
  58.0936664  40.7698720 105.0922480  57.4005909  40.8443075 104.4362516
  57.8488416  40.0059064 105.6143997  66.7650321  32.3294322 112.4961971
  67.0452074  31.6617511 113.1222398  67.5500927  32.5223417 111.9836635
  64.5683789  51.5053316 104.0586998  63.9957756  52.1243503 103.6057469
  65.1416583  52.0552677 104.5926919  70.6359179  40.7511956 116.2433546
  71.5876602  40.8510053 116.2645770  70.4662629  39.9590224 116.7531631
  68.6573558  37.8367539 116.4292947  68.0623490  38.1172552 115.7339436
  68.3723255  38.3261440 117.2009688  67.7881049  51.7890466 105.1895580
  68.7211722  51.7236027 105.3928455  67.7004262  52.6246733 104.7310112
  70.4169066  51.1056336 102.1499527  70.3382697  50.7716200 103.0435285
  71.2378732  51.5978104 102.1491000  73.1147257  43.9718075 115.3575846
  73.0823577  43.0334076 115.5435530  73.7247880  44.0502112 114.6241671
  64.9530588  42.8414128 101.4003050  65.8989692  42.7120336 101.4691468
  64.5744833  42.1028790 101.8772478  73.2641745  40.7629119 115.4034129
  72.7480794  39.9787575 115.2164058  74.1481694  40.4347835 115.5680649
  70.9252472  34.5070134 111.3629942  70.7277293  34.1985223 112.2473274
  71.5352178  35.2331773 111.4927872  78.9323807  45.0334082 114.4981883
  79.6627195  44.7719370 115.0589586  78.3230752  44.2962804 114.5383951
  77.0139104  43.1741945 115.0956334  76.2872267  43.0397910 114.4872826
  76.5986391  43.4818773 115.9013052  64.8369280  46.8931874 122.8603707
  65.7572290  47.0710473 123.0543754  64.8018863  45.9487920 122.7083406
  63.1373505  40.7664105 101.3357935  62.2304960  40.4697217 101.4120649
  63.4149486  40.4693923 100.4692221  54.0551445  42.0870468 111.7856982
  53.7354229  41.2335776 111.4931356  53.5084873  42.3019046 112.5414949
  57.8331353  44.8032909 115.5026488  58.0517362  45.7350017 115.5214522
  58.2457126  44.4440884 116.2881292  64.7535570  35.3100994 107.4902177
  63.9436299  34.9648079 107.8657423  65.4419987  35.0008538 108.0789788
  66.6826119  34.3879041 109.1126473  67.2357157  34.8074495 109.7716496
  66.9196205  33.4614789 109.1549429  61.9072289  37.6251040 101.4769914
  62.7691453  37.9505938 101.7365732  62.0922633  36.8382536 100.9642980
  53.9239705  45.7073380 113.7550103  53.2303177  45.2927332 113.2420058
  54.6712696  45.7493916 113.1583522  70.0604926  36.4979566 108.6205137
  69.4803595  37.1564370 108.2383190  69.7940858  35.6756911 108.2092555
  68.5108492  35.8984624 110.8226458  69.0108271  36.0101159 110.0140777
  69.1544100  35.5945677 111.4627266  62.5690488  43.8063254 123.7094299
  62.0857570  44.6063614 123.9158188  62.6551427  43.8171199 122.7561743
  55.8376448  45.6391633 111.6316118  55.8147136  45.7379321 110.6798001
  56.1477084  46.4856784 111.9533284  58.4963825  47.6967788 115.7462733
  59.4507079  47.6651731 115.6792664  58.2976349  47.2358412 116.5612958
  59.0863208  46.2668904 118.3133530  59.9056097  46.7612983 118.3368367
  59.3600015  45.3500873 118.2851098  68.8429804  38.6579657 107.6761486
  67.9555659  38.9429307 107.4581680  69.2583793  38.4973420 106.8288763
  72.1944340  38.6826178 111.3915825  72.9704730  39.1722630 111.6640442
  71.4692474  39.1084232 111.8487694  74.6316899  39.3953797 112.4489766
  75.2261389  39.1549533 111.7383074  74.7043482  38.6760928 113.0763302
  56.8514054  53.2387408 112.7632930  56.7168522  52.4787809 112.1970928
  56.4346117  53.9628308 112.2961719  67.9873017  48.4224331 101.7709506
  68.6908867  48.6274334 102.3867161  67.2635666  48.9901093 102.0358589
  68.8170828  44.1734193 107.8911776  68.7606029  44.6302744 107.0519408
  69.3699170  43.4124877 107.7134619  72.6275633  39.9623925 108.7161895
  72.3712568  39.5620560 109.5470103  72.0028502  40.6767718 108.5912035
  76.9387971  42.7019998 111.2233187  76.3787529  42.7713187 111.9964749
  76.3331475  42.5260982 110.5032683  60.0083180  54.1356725 112.9751373
  59.8915564  55.0802157 112.8730063  59.1875626  53.8330286 113.3637172
  69.8959715  48.8606861 103.8207966  70.7305319  48.4288059 103.6385441
  69.7344058  48.6888874 104.7484860  69.5505607  45.3638974 105.1864305
  69.4954411  45.1983245 104.2452749  68.9251662  46.0715007 105.3426495
  66.8651514  47.6687886 124.5117868  67.7342674  47.8428538 124.1504503
  66.3858266  48.4882303 124.3893597  62.8601732  34.8647083 104.7649623
  62.8480402  35.8088923 104.9217894  63.7525154  34.6817228 104.4709085
  61.0337694  54.7884987 116.1907301  61.9364941  54.8208597 116.5073796
  60.8075064  53.8585438 116.2053637  62.7891296  53.5415973 112.8517380
  61.8386927  53.5417835 112.7381752  63.0923782  52.7948708 112.3353415
  66.6753852  31.4589860 109.0195560  65.9086248  30.9048346 109.1652243
  67.0864557  31.5311728 109.8809712  78.5243990  59.3776512 113.9163142
  79.1622400  59.2583259 113.2126483  78.4064833  60.3257356 113.9751095
  75.3333696  59.3303940 113.8524667  74.9952208  59.2145005 112.9645202
  76.2023464  58.9295105 113.8325673  71.1920512  61.1839416 109.8421558
  70.6285377  61.0929353 109.0737846  71.0772907  60.3639321 110.3224051
  75.8153479  60.4838792 119.8110873  75.8042120  60.0891590 118.9391376
  75.9774119  59.7504864 120.4044644  68.7384944  62.6790608 112.6805779
  69.5306236  62.3381433 112.2652078  68.9781594  62.7885583 113.6007932
  76.7720070  64.8510384 105.1536023  76.1208050  65.4364464 104.7670037
  77.5664433  65.3816579 105.2131060  70.6975698  61.9399521 105.5523157
  71.4706574  61.3928508 105.4136033  71.0501097  62.8043770 105.7637619
  72.5360740  63.2675903 118.7590057  72.2450606  64.1721534 118.6436723
  73.1717725  63.3092431 119.4734126  73.4616947  60.6452752 115.3491416
  74.0580519  60.4208774 114.6348379  73.5191919  59.9037497 115.9516864
  73.0341975  58.0992187 103.1841607  73.2867496  57.5773709 102.4225070
  72.0966535  57.9358333 103.2868291  78.0785258  57.1027966 110.9916351
  78.8648348  56.6847389 110.6406768  78.3423963  58.0074058 111.1597999
  78.2495336  62.5400816 105.6905007  77.6141169  62.6135442 106.4025912
  77.9192742  63.1294415 105.0124087  83.4793685  57.0403199 111.8949329
  84.2118857  56.4702416 112.1287159  82.7233041  56.6524799 112.3355835
  72.7538264  60.0020293 105.3865982  72.6374522  59.3265197 106.0547067
  72.8640524  59.5152667 104.5698135  75.0969805  59.4630440 109.0912671
  74.7328012  58.9361061 109.8025593  75.9536921  59.0728909 108.9179157
  81.0019106  50.7524773 116.3543938  80.6702431  51.6220184 116.1305153
  80.4064719  50.4361057 117.0337968  74.7375292  54.4920340 104.0874020
  74.9049694  55.3600576 104.4544491  74.5472461  54.6547622 103.1635309
  77.4950625  62.9537319 115.7539850  77.1951348  63.8562358 115.6455658
  77.1501685  62.6869502 116.6061003  70.9463107  59.4051116 111.7876555
  70.0213603  59.2727330 111.9954247  71.1947520  60.1845335 112.2846497
  80.8947769  55.4719859 113.4337288  79.9864646  55.4035268 113.1396049
  80.8435365  55.9491804 114.2619113  74.7164513  56.9477997 105.0720687
  74.5964138  57.3935048 105.9106167  74.0217101  57.2963315 104.5134225
  68.3071918  59.0484389 112.6220344  68.4364299  59.3018868 113.5359756
  67.6269369  59.6412097 112.3024999  72.4771405  69.7181639 108.7210818
  72.3995435  70.6689464 108.7999299  71.8733049  69.3727512 109.3785744
  74.9688635  56.8909505 121.3772185  74.1921969  57.4503425 121.3675050
  75.6079198  57.3766288 121.8987055  82.7609415  53.6736297 115.2115162
  82.1183796  53.9668831 114.5654956  82.2564344  53.5589218 116.0168358
  80.4149579  57.4199471 105.9001021  81.3267435  57.6526857 105.7248718
  79.9059226  58.0036515 105.3376099  73.2235007  59.6994958 120.9390152
  73.9649692  60.2380002 120.6624976  72.5171993  60.3261247 121.0961704
  78.6990347  61.8424098 119.5362313  79.1073703  61.4006509 118.7916946
  77.9767608  61.2676726 119.7896506  75.0521417  56.7796705 116.9095870
  75.8982612  57.2036119 117.0530519  74.9920055  56.1230330 117.6034434
  79.0219161  62.4025289 113.2914602  78.3928024  62.5671003 112.5890670
  78.6344824  62.8166899 114.0625566  82.9008393  63.3379727 110.6458966
  82.2159431  63.7178628 110.0955999  82.9852243  63.9475054 111.3790914
  78.2020862  54.4401074 118.5677044  77.9581794  55.1943134 118.0311320
  78.4780793  54.8186421 119.4024291  80.1559325  60.9839686 117.2454310
  80.3676220  61.6271446 116.5688691  80.1089073  60.1502003 116.7776240
  77.7585554  53.5957507 114.1490882  76.8970033  53.8938760 114.4407619
  77.7847989  53.8127906 113.2171914  74.5747123  62.1399697 110.5564687
  75.0385469  62.4187400 109.7669310  74.3103921  61.2383142 110.3737778
  71.4671204  61.6871179 113.4944451  72.0372561  62.1158447 112.8561935
  72.0579316  61.4053763 114.1928636  73.5116009  58.2622850 107.3654253
  74.2140053  58.7143893 107.8328179  73.1796638  57.6206668 107.9934146
  71.9596371  56.8534606 121.7405462  71.3295031  57.5350887 121.9740859
  71.8532459  56.7417688 120.7958600  67.2541343  56.5206402 112.6671386
  66.4640397  56.7763931 112.1911497  67.7452591  57.3354740 112.7723427
  81.2705153  63.8611641 115.4176667  82.0922597  63.4591829 115.1359349
  81.2667556  63.7579876 116.3692783  69.2056089  56.8850981 109.6254863
  68.4087252  56.9969676 110.1438359  68.9781681  57.2237634 108.7595753
  75.0361756  63.4095685 117.5737377  75.1006189  63.8716092 118.4095549
  74.3272680  62.7793050 117.7019687  65.5379046  56.7736893 115.0986377
  65.7887085  57.6583903 115.3643953  66.0738595  56.5941494 114.3261469
  89.3611146  60.2050390 111.7661638  88.6074854  59.6357788 111.6105643
  89.4958687  60.1713054 112.7132273  74.7509774  65.0763792 107.4416358
  74.6155449  65.9215328 107.8701206  75.2919587  65.2783070 106.6782292
  71.2377114  51.1555372 124.1030713  70.8444059  50.6021571 124.7778357
  72.0543254  51.4665951 124.4937231  68.2039171  62.5939230 108.0144283
  68.7163692  63.3882480 108.1649848  68.8561884  61.8965521 107.9477884
  70.0134056  65.7104987 110.0967036  70.1900684  66.6322951 109.9088020
  70.8090890  65.3963406 110.5261416  74.1545075  52.5713251 121.6950970
  74.8954788  53.1720404 121.6155432  74.3862997  51.8290889 121.1369012
  69.2986413  57.7569618 119.9729199  69.1839928  56.8554876 120.2736298
  68.4430930  58.0033315 119.6214016  71.1365372  67.2283160 116.0977378
  71.6872797  67.1000224 115.3254372  70.2976847  67.5278049 115.7472271
  78.4759488  65.9790159 119.5998101  78.4577964  66.7999040 119.1078370
  79.3979408  65.8544234 119.8248242  74.9332543  63.4934288 120.4421610
  75.4660879  62.7322576 120.2120917  74.4046624  63.2007940 121.1845764
  78.1002238  48.5994354 115.9715251  77.7566507  49.4895996 115.8954362
  78.4681200  48.4096012 115.1084836  66.1688088  60.9227885 108.7903853
  67.0063310  61.3324893 108.5737561  66.3466356  59.9827327 108.7604047
  78.0652520  58.5902965 104.4787686  77.5499144  59.3607570 104.7176074
  77.7929829  57.9168101 105.1020748  75.6499631  53.4352666 109.5372925
  74.7941228  53.0459516 109.3578563  76.0626583  53.5144627 108.6772710
  77.1798778  50.9699009 113.9364484  76.6763574  50.9329144 113.1232290
  77.4729385  51.8791752 113.9961141  73.4241664  51.0537739 112.9430666
  74.2894661  50.8580548 112.5836556  73.4919173  50.8248091 113.8700023
  83.0386794  61.3435320 106.4140860  82.2616237  61.0046479 105.9696022
  83.7178275  61.3487943 105.7395825  77.8538823  56.4630057 106.3047468
  77.5488959  56.7776206 107.1557611  78.8069266  56.5411477 106.3474801
  76.2985255  62.6220281 107.9540422  75.7706617  61.8873040 107.6413659
  75.7972758  63.3994957 107.7080390  81.2778101  60.8169301 113.0707468
  80.6201776  61.5068562 113.1587596  82.0818501  61.2065733 113.4141454
  71.0303983  53.2839947 110.3147033  71.6047735  53.0615128 109.5820226
  71.6174965  53.3528641 111.0675634  80.0883560  59.1713674 111.1211410
  80.6015442  59.8043666 111.6233119  80.7384784  58.5714869 110.7554770
  71.3573570  55.3144408 104.3342918  70.5210882  55.6519094 104.6552193
  71.2178340  55.1793388 103.3970055  73.3326651  50.1581196 109.0422102
  72.6791063  49.8430213 108.4178717  73.2907125  49.5356936 109.7681925
  74.4437855  60.4400491 100.9575395  73.5364917  60.2089744 101.1566544
  74.9408887  59.6438110 101.1449376  77.3505934  69.1497998 103.8772081
  76.6767633  69.4529695 104.4857039  77.7371756  69.9527078 103.5277538
  76.5664391  56.6463129 113.3669750  75.6486952  56.8678076 113.2091438
  76.9824535  56.7209440 112.5081457  77.3499439  58.0454545 108.4972430
  78.0971258  58.5575942 108.1879552  77.6191028  57.7238598 109.3576824
  75.6226089  60.5413086 105.4799385  74.7137308  60.2572119 105.5771854
  75.6521173  60.9612164 104.6202692  80.8545356  64.1519675 109.2490552
  80.4007683  63.3110585 109.3055743  80.2239323  64.7881074 109.5865332
  79.7978276  55.0811661 110.4791220  79.0601033  54.5689047 110.8101462
  80.0505049  54.6412043 109.6674497  79.2978296  65.9896172 110.1840370
  79.5901270  66.5501229 109.4652736  79.8076916  66.2824733 110.9393529
  79.8989903  47.8587913 111.0732989  80.2048780  46.9985277 110.7858904
  80.6242508  48.4505533 110.8731983  66.1914259  58.2618600 109.4614587
  65.9938659  57.6687961 108.7365653  65.6360923  57.9570810 110.1790526
  74.1710983  58.1541706 111.5809180  74.2259593  57.2015543 111.5051657
  73.3602185  58.3101145 112.0650478  75.3202177  62.0821829 102.8187463
  74.8821607  61.3657688 102.3593101  76.0612618  62.3097944 102.2572555
  72.1103343  56.7718766 109.3399559  71.2971208  57.0712937 109.7464751
  72.6062337  56.3774455 110.0574041  74.2611921  66.7676523 111.2733824
  74.2188100  66.9937369 110.3442356  75.1774620  66.5339898 111.4219625
  77.7077555  57.2360591 118.1714453  78.0626942  57.4632064 119.0308919
  78.3549686  57.5678967 117.5491708  83.4375292  60.3579026 108.8763782
  83.2993190  60.5480622 107.9484971  83.0811510  61.1198409 109.3331833
  71.6017418  54.3437122 114.9560794  72.2416797  54.2025881 114.2583757
  70.7694948  54.0571635 114.5799396  83.4644671  62.4255553 113.8875053
  83.8981178  62.3330843 114.7358107  84.1776252  62.4013054 113.2495069
  72.3777722  63.6439552 111.0695786  73.1718320  63.1489872 110.8678361
  71.6669414  63.1157415 110.7063492  77.1972566  66.0257648 115.4208154
  77.2509588  66.5948584 116.1885870  76.3287347  66.1959533 115.0562191
  68.6860485  57.7882634 107.1455539  67.7558073  57.7267089 107.3625501
  68.7817957  57.2658587 106.3492180  68.6046034  54.3137447 109.7333781
  68.8652851  55.2282780 109.6242941  69.4263206  53.8461889 109.8830393
  70.0770959  55.7275204 116.9032605  70.7494013  55.5192566 116.2545254
  69.2500746  55.5297290 116.4637837  84.3260221  62.4679254 116.4207939
  84.5196111  63.3725065 116.6667214  84.2260839  62.0086673 117.2546524
  75.9796531  52.3537145 118.9198266  75.3324446  53.0527094 118.8262742
  76.7497547  52.7873289 119.2874514  76.1560666  60.1917910 116.9795086
  77.0852726  60.3429069 116.8064053  75.7351696  60.2801930 116.1243732
  74.9548998  64.2168574 114.7493623  74.8160083  63.8487358 115.6219561
  74.1663594  64.7316213 114.5777581  75.5497150  69.3177670 106.0919160
  75.7248905  68.8465714 106.9064783  74.8629938  69.9443437 106.3200421
  76.5054213  63.5950177 112.1382461  76.1704045  63.5550947 113.0340111
  76.0058158  62.9294893 111.6652871  70.4798457  59.0017807 117.6635042
  70.3418255  58.2698046 118.2646581  71.3903380  58.9126707 117.3819230
  79.4413404  60.9406211 102.4119521  78.8242575  60.2153039 102.3152573
  78.9729893  61.7015571 102.0686595  73.1080757  58.7137766 117.1518722
  73.8180376  58.0730958 117.1105340  73.0650065  58.9650661 118.0744903
  71.8209691  55.7002984 118.9714361  71.2847048  55.2493722 119.6235958
  71.2326400  55.8348893 118.2284826  70.1158235  72.4667033 112.8659020
  70.3554833  73.0985557 113.5438039  69.2727431  72.1155073 113.1524379
  71.2311950  55.1591635 101.5340825  70.3541417  55.0380436 101.1703072
  71.7069703  54.3677714 101.2819714  81.0984943  63.6144703 118.3039281
  80.2111722  63.2770625 118.4265680  81.6683494  62.8827735 118.5408046
  62.7514090  59.9468795 111.6282332  63.4385130  59.6330525 111.0403348
  62.5962219  60.8510160 111.3549584  67.5548813  54.8358992 116.0567356
  67.4707001  54.2284661 115.3217766  66.7331519  55.3268010 116.0576852
  74.6286097  68.2746156 115.2700524  74.5556268  69.0801127 115.7819829
  74.1863490  68.4738122 114.4448545  74.4175876  67.5117926 108.7803346
  73.6343398  68.0539606 108.8741570  75.1168621  68.0291905 109.1797587
  77.7272526  53.3212555 111.4237551  78.2241226  52.5682517 111.1038621
  76.9559508  53.3576872 110.8580760  85.5802284  59.0252921 113.0655842
  85.5692160  59.9077636 112.6949776  84.7119663  58.6724472 112.8710380
  77.0884780  68.1732990 117.4258683  77.8012752  68.8080455 117.3534584
  76.5974809  68.2696856 116.6098685  78.8102307  62.0784242 108.9975974
  77.8758586  62.1985705 108.8280679  78.9878976  61.1756709 108.7335984
  74.3107495  55.4629938 111.1509236  73.9405283  54.9100979 111.8390141
  74.8066588  54.8588072 110.5984236  82.1974858  57.9201562 109.5326009
  82.6635311  58.7529553 109.4586311  82.6482359  57.4546543 110.2371267
  72.1396694  65.9227433 118.2464254  72.8406153  66.5563916 118.3993648
  71.6691809  66.2642165 117.4859893  80.2651090  64.2645383 106.5312161
  80.5410933  64.1501978 107.4406035  79.3955588  63.8662868 106.4924334
  80.1691521  50.2882149 113.5716910  79.2554601  50.5186376 113.7399117
  80.5984623  50.3720593 114.4230942  79.9397980  58.4772041 116.0716804
  79.2869430  58.7247948 115.4169257  80.3178360  57.6636179 115.7379281
  76.9005154  68.5131734 110.1744974  77.0827548  67.6953390 110.6372727
  77.7238140  68.7299426 109.7369864  77.2347319  67.4399919 107.4360023
  77.7635085  66.9292374 106.8230185  77.4975539  67.1242449 108.3005556
  75.9885553  59.2191852 122.5582841  75.3126190  59.1185981 123.2285216
  76.8113187  59.0631065 123.0218838  67.7364412  65.4563788 115.1795356
  68.3217849  64.7107476 115.3123260  67.5389250  65.7667745 116.0632020
  70.5903067  68.4915036 110.1957799  69.9213442  68.9761163 109.7121839
  70.4515937  68.7384256 111.1101177  62.3282067  58.0269388 113.8999799
  62.3666166  57.4932979 114.6936917  61.8222359  57.5004594 113.2810777
  74.7308336  70.5258779 116.7940457  75.2826644  70.6890401 117.5589542
  75.0714529  71.1163217 116.1220482  69.7072829  52.8733929 117.3962342
  69.7714155  53.7348760 116.9839739  69.6439949  52.2607931 116.6634700
  69.1825101  54.9457061 121.0435376  69.8097140  54.5634139 121.6572900
  68.3253020  54.7271263 121.4091068  65.9590644  56.7533491 106.9753731
  66.2544085  55.8444169 106.9220784  65.0578680  56.7321230 106.6534733
  77.8676723  68.4740755 113.7804139  77.7427862  67.6730495 113.2715085
  78.5255814  68.9686948 113.2918109  69.4884891  54.8289487 112.9581279
  68.7671477  55.4425455 112.8188753  70.2778147  55.3647252 112.8797925
  79.9311631  66.2749775 115.4083689  78.9841967  66.1555126 115.3362016
  80.2794404  65.3872273 115.4909951  72.2911205  52.1643914 119.2321931
  72.8145606  52.4106210 119.9948240  72.0723538  52.9963948 118.8125068
  67.6878486  54.4347588 107.0993056  67.3591192  53.5544967 106.9168162
  68.0417856  54.3795257 107.9869445  76.9358065  66.0702491 111.6088041
  76.7883027  65.1419198 111.7895611  77.7611558  66.0922582 111.1245117
  70.8020309  54.7220558 107.4668534  71.1416381  55.2506479 106.7447142
  71.2492429  55.0600964 108.2427100  80.5392186  66.8931050 112.6952914
  81.4638734  66.6873911 112.5577365  80.3707490  66.6447451 113.6042256
  73.4963750  53.1057609 116.9171602  73.1560570  52.3065422 117.3192282
  72.7902756  53.4059320 116.3448435  74.1480221  50.1906921 115.3698925
  74.9706291  49.7167399 115.2477815  74.3918285  50.9697405 115.8697611
  72.7888456  53.2195180 105.6661826  73.5096818  53.5976432 105.1625543
  72.1653760  53.9384056 105.7696804  76.9319579  53.9240329 106.6020159
  77.1483193  54.8064966 106.3008987  76.4513646  53.5326542 105.8725801
  71.6718800  56.8826042 113.1790903  71.5263381  57.1966345 114.0715185
  71.1944004  57.5010942 112.6261802  73.5315183  53.8728590 113.2271793
  73.5176752  52.9769683 112.8904091  74.2487611  53.8799254 113.8610079
  75.3841314  54.3065930 115.2724920  75.1259092  55.2283001 115.2709251
  74.8526354  53.9096365 115.9625384  80.3287503  67.4116717 108.0515006
  80.5024380  66.8463140 107.2988858  80.8216394  68.2117612 107.8694496
  66.1464462  59.4231386 116.1178564  65.6017930  60.1991194 116.2498839
  67.0243812  59.7702191 115.9597686  72.9352079  52.7542970 108.4959363
  73.0567990  51.8259616 108.6950250  72.6454121  52.7681656 107.5837678
  75.8043269  50.4397881 111.6326083  75.8264966  50.5037214 110.6778062
  76.2211328  49.6002389 111.8266589  86.1826894  60.1753140 109.6705305
  86.6258040  59.4260465 109.2724429  85.3053404  60.1663276 109.2879037
  81.3162675  66.7283482 105.1511904  82.0113580  67.3490174 105.3699219
  81.6585825  65.8778833 105.4264282  66.9330484  58.5501282 119.0108721
  66.1912220  58.6983918 119.5973352  66.6123229  58.8109548 118.1475471
  83.2154098  64.1783187 106.6799235  83.7405422  64.5170460 105.9548555
  83.1276451  63.2430202 106.4962369  74.8774147  68.0917261 118.8089111
  75.1861273  67.8466407 119.6811811  75.6749629  68.2963899 118.3207982
  74.8994759  70.2455170 111.0394488  74.4599749  69.7531549 111.7327345
  75.6502876  69.7028138 110.7986563  67.3787098  66.4366711 111.0419116
  68.2045118  66.1370483 110.6617759  67.0281150  65.6674334 111.4908905
  72.3468631  65.7893179 113.1116790  71.7248640  65.1263884 112.8119017
  73.0173498  65.8154311 112.4290437  65.5795703  64.3553038 112.0008050
  64.7427611  63.9275212 111.8192051  65.5519348  64.5485481 112.9378841
  72.4193159  54.2674967 122.7049296  72.4681314  55.1437090 122.3227065
  72.9615673  53.7252361 122.1320939  83.0245879  61.6608557 119.2983161
  83.0743884  61.4958565 120.2398684  82.9159803  60.7935816 118.9081042
  71.9082138  64.3397103 106.5875250  72.0570258  65.0232567 105.9341923
  72.7148581  64.3202193 107.1024706  80.3149642  57.6439485 120.6142468
  81.2159504  57.5045950 120.3226466  80.3897616  57.8093940 121.5540645
  74.6492447  55.0206340 119.4595654  73.7795756  55.3139906 119.1878243
  74.8851927  55.6046785 120.1802918  85.7259758  61.6458378 112.0627753
  86.5606650  62.0848182 112.2265313  85.8618887  61.1697032 111.2435999
  82.7751264  59.2038113 118.0105241  83.2505386  59.3965760 117.2024092
  81.8516830  59.2597299 117.7648624  69.6634771  60.3662280 107.5936319
  69.4180813  59.4624610 107.7916529  69.8330686  60.3679431 106.6515797
  77.3531481  51.2385957 116.9761075  77.8713425  51.9746984 116.6507563
  76.9986614  51.5449950 117.8107834  68.9330419  56.0990638 105.0922480
  68.2399663  56.1734993 104.4362516  68.6882170  55.3350982 105.6143997
  77.6044075  47.6586239 112.4961971  77.8845829  46.9909428 113.1222398
  78.3894682  47.8515335 111.9836635  75.4077544  66.8345233 104.0586998
  74.8351511  67.4535420 103.6057469  75.9810337  67.3844595 104.5926919
  81.4752933  56.0803873 116.2433546  82.4270356  56.1801971 116.2645770
  81.3056384  55.2882142 116.7531631  79.4967313  53.1659457 116.4292947
  78.9017245  53.4464469 115.7339436  79.2117010  53.6553357 117.2009688
  78.6274803  67.1182383 105.1895580  79.5605476  67.0527945 105.3928455
  78.5398016  67.9538650 104.7310112  81.2562820  66.4348254 102.1499527
  81.1776452  66.1008117 103.0435285  82.0772487  66.9270022 102.1491000
  83.9541011  59.3009993 115.3575846  83.9217331  58.3625994 115.5435530
  84.5641635  59.3794030 114.6241671  75.7924342  58.1706046 101.4003050
  76.7383447  58.0412254 101.4691468  75.4138587  57.4320708 101.8772478
  84.1035500  56.0921036 115.4034129  83.5874548  55.3079493 115.2164058
  84.9875448  55.7639753 115.5680649  81.7646227  49.8362052 111.3629942
  81.5671048  49.5277140 112.2473274  82.3745932  50.5623691 111.4927872
  89.7717561  60.3626000 114.4981883  90.5020950  60.1011288 115.0589586
  89.1624507  59.6254722 114.5383951  87.8532858  58.5033862 115.0956334
  87.1266022  58.3689827 114.4872826  87.4380145  58.8110691 115.9013052
  73.9767259  56.0956022 101.3357935  73.0698715  55.7989135 101.4120649
  74.2543240  55.7985840 100.4692221  64.8945200  57.4162386 111.7856982
  64.5747984  56.5627694 111.4931356  64.3478628  57.6310964 112.5414949
  68.6725107  60.1324827 115.5026488  68.8911117  61.0641935 115.5214522
  69.0850881  59.7732801 116.2881292  75.5929325  50.6392912 107.4902177
  74.7830053  50.2939997 107.8657423  76.2813742  50.3300456 108.0789788
  77.5219873  49.7170959 109.1126473  78.0750912  50.1366412 109.7716496
  77.7589960  48.7906707 109.1549429  73.5452972  55.7058033 124.8929237
  73.4449699  56.6552389 124.8241328  73.3274514  55.3776271 124.0205307
  72.7466044  52.9542958 101.4769914  73.6085208  53.2797856 101.7365732
  72.9316388  52.1674453 100.9642980  64.7633460  61.0365297 113.7550103
  64.0696931  60.6219250 113.2420058  65.5106451  61.0785834 113.1583522
  80.8998680  51.8271484 108.6205137  80.3197349  52.4856288 108.2383190
  80.6334613  51.0048829 108.2092555  79.3502247  51.2276542 110.8226458
  79.8502025  51.3393076 110.0140777  79.9937855  50.9237595 111.4627266
  73.4084242  59.1355171 123.7094299  72.9251324  59.9355531 123.9158188
  73.4945182  59.1463116 122.7561743  66.6770202  60.9683551 111.6316118
  66.6540890  61.0671238 110.6798001  66.9870839  61.8148702 111.9533284
  69.3357580  63.0259706 115.7462733  70.2900834  62.9943648 115.6792664
  69.1370104  62.5650330 116.5612958  69.9256962  61.5960822 118.3133530
  70.7449851  62.0904901 118.3368367  70.1993770  60.6792790 118.2851098
  79.6823558  53.9871574 107.6761486  78.7949413  54.2721225 107.4581680
  80.0977547  53.8265338 106.8288763  83.0338094  54.0118095 111.3915825
  83.8098485  54.5014548 111.6640442  82.3086229  54.4376150 111.8487694
  85.4710653  54.7245715 112.4489766  86.0655144  54.4841451 111.7383074
  85.5437237  54.0052845 113.0763302  67.6907809  68.5679326 112.7632930
  67.5562277  67.8079726 112.1970928  67.2739871  69.2920225 112.2961719
  78.8266772  63.7516249 101.7709506  79.5302622  63.9566252 102.3867161
  78.1029421  64.3193011 102.0358589  79.6564582  59.5026110 107.8911776
  79.5999783  59.9594662 107.0519408  80.2092925  58.7416795 107.7134619
  83.4669388  55.2915842 108.7161895  83.2106322  54.8912478 109.5470103
  82.8422256  56.0059636 108.5912035  87.7781726  58.0311915 111.2233187
  87.2181284  58.1005105 111.9964749  87.1725229  57.8552900 110.5032683
  70.8476935  69.4648643 112.9751373  70.7309319  70.4094075 112.8730063
  70.0269381  69.1622204 113.3637172  80.7353469  64.1898778 103.8207966
  81.5699073  63.7579977 103.6385441  80.5737812  64.0180792 104.7484860
  80.3899361  60.6930892 105.1864305  80.3348165  60.5275163 104.2452749
  79.7645417  61.4006925 105.3426495  65.1791876  55.9298956 119.0125727
  65.8250740  55.4197910 119.5012952  64.9709027  56.6667638 119.5869153
  73.6995487  50.1939001 104.7649623  73.6874157  51.1380841 104.9217894
  74.5918909  50.0109146 104.4709085  71.8731449  70.1176904 116.1907301
  72.7758695  70.1500515 116.5073796  71.6468819  69.1877355 116.2053637
  73.6285051  68.8707891 112.8517380  72.6780682  68.8709753 112.7381752
  73.9317537  68.1240626 112.3353415  77.5147606  46.7881777 109.0195560
  76.7480002  46.2340264 109.1652243  77.9258311  46.8603646 109.8809712
  69.5189367  53.0766573 123.1100741  70.3820829  52.7203378 123.3204066
  68.9454778  52.7380468 123.7976146  82.0314266  76.5131334 109.8421558
  81.4679131  76.4221271 109.0737846  81.9166661  75.6931238 110.3224051
  87.6113825  80.1802302 105.1536023  86.9601805  80.7656382 104.7670037
  88.4058188  80.7108497 105.2131060  81.5369452  77.2691439 105.5523157
  82.3100328  76.7220426 105.4136033  81.8894851  78.1335688 105.7637619
  83.8735730  73.4284105 103.1841607  84.1261251  72.9065626 102.4225070
  82.9360289  73.2650250 103.2868291  88.9179013  72.4319883 110.9916351
  89.7042102  72.0139306 110.6406768  89.1817717  73.3365975 111.1597999
  89.0889090  77.8692734 105.6905007  88.4534923  77.9427360 106.4025912
  88.7586497  78.4586332 105.0124087  83.5932019  75.3312211 105.3865982
  83.4768277  74.6557114 106.0547067  83.7034279  74.8444585 104.5698135
  85.9363560  74.7922358 109.0912671  85.5721767  74.2652979 109.8025593
  86.7930676  74.4020827 108.9179157  85.5769047  69.8212258 104.0874020
  85.7443449  70.6892494 104.4544491  85.3866216  69.9839539 103.1635309
  81.7856861  74.7343033 111.7876555  80.8607358  74.6019248 111.9954247
  82.0341274  75.5137253 112.2846497  85.5558267  72.2769915 105.0720687
  85.4357893  72.7226966 105.9106167  84.8610856  72.6255233 104.5134225
  79.1465672  74.3776307 112.6220344  79.2758053  74.6310786 113.5359756
  78.4663124  74.9704015 112.3024999  91.2543334  72.7491388 105.9001021
  92.1661190  72.9818775 105.7248718  90.7452981  73.3328433 105.3376099
  88.5979308  68.9249424 114.1490882  87.7363787  69.2230678 114.4407619
  88.6241743  69.1419823 113.2171914  85.4140878  77.4691615 110.5564687
  85.8779223  77.7479318 109.7669310  85.1497676  76.5675059 110.3737778
  84.3509764  73.5914767 107.3654253  85.0533807  74.0435811 107.8328179
  84.0190392  72.9498586 107.9934146  78.0935098  71.8498320 112.6671386
  77.3034152  72.1055848 112.1911497  78.5846345  72.6646658 112.7723427
  80.0449843  72.2142899 109.6254863  79.2481006  72.3261593 110.1438359
  79.8175435  72.5529551 108.7595753  76.3772801  72.1028810 115.0986377
  76.6280839  72.9875820 115.3643953  76.9132349  71.9233412 114.3261469
  85.5903528  80.4055710 107.4416358  85.4549203  81.2507246 107.8701206
  86.1313341  80.6074988 106.6782292  79.0432926  77.9231148 108.0144283
  79.5557446  78.7174398 108.1649848  79.6955639  77.2257438 107.9477884
  88.9395992  63.9286272 115.9715251  88.5960261  64.8187913 115.8954362
  89.3074955  63.7387929 115.1084836  77.0081843  76.2519802 108.7903853
  77.8457065  76.6616811 108.5737561  77.1860110  75.3119244 108.7604047
  88.9046275  73.9194883 104.4787686  88.3892898  74.6899487 104.7176074
  88.6323583  73.2460019 105.1020748  86.4893386  68.7644584 109.5372925
  85.6334982  68.3751434 109.3578563  86.9020338  68.8436544 108.6772710
  88.0192532  66.2990927 113.9364484  87.5157328  66.2621062 113.1232290
  88.3123139  67.2083670 113.9961141  84.2635418  66.3829657 112.9430666
  85.1288415  66.1872465 112.5836556  84.3312927  66.1540008 113.8700023
  93.8780549  76.6727238 106.4140860  93.1009992  76.3338397 105.9696022
  94.5572030  76.6779861 105.7395825  88.6932578  71.7921975 106.3047468
  88.3882714  72.1068124 107.1557611  89.6463020  71.8703395 106.3474801
  87.1379010  77.9512198 107.9540422  86.6100371  77.2164958 107.6413659
  86.6366513  78.7286875 107.7080390  81.8697737  68.6131865 110.3147033
  82.4441489  68.3907046 109.5820226  82.4568720  68.6820559 111.0675634
  82.1967325  70.6436326 104.3342918  81.3604637  70.9811012 104.6552193
  82.0572094  70.5085305 103.3970055  84.1720405  65.4873113 109.0422102
  83.5184817  65.1722131 108.4178717  84.1300879  64.8648854 109.7681925
  85.2831610  75.7692409 100.9575395  84.3758672  75.5381662 101.1566544
  85.7802642  74.9730028 101.1449376  88.1899689  84.4789916 103.8772081
  87.5161388  84.7821612 104.4857039  88.5765511  85.2818996 103.5277538
  88.1893193  73.3746463 108.4972430  88.9365012  73.8867860 108.1879552
  88.4584783  73.0530515 109.3576824  86.4619843  75.8705003 105.4799385
  85.5531063  75.5864036 105.5771854  86.4914927  76.2904082 104.6202692
  90.6372030  70.4103579 110.4791220  89.8994787  69.8980965 110.8101462
  90.8898804  69.9703961 109.6674497  90.7383658  63.1879831 111.0732989
  91.0442535  62.3277194 110.7858904  91.4636263  63.7797451 110.8731983
  77.0308014  73.5910518 109.4614587  76.8332414  72.9979878 108.7365653
  76.4754678  73.2862728 110.1790526  85.0104737  73.4833624 111.5809180
  85.0653347  72.5307460 111.5051657  84.1995939  73.6393063 112.0650478
  86.1595931  77.4113747 102.8187463  85.7215361  76.6949606 102.3593101
  86.9006372  77.6389862 102.2572555  82.9497097  72.1010684 109.3399559
  82.1364963  72.4004854 109.7464751  83.4456092  71.7066373 110.0574041
  82.4411172  69.6729039 114.9560794  83.0810551  69.5317798 114.2583757
  81.6088703  69.3863553 114.5799396  79.5254240  73.1174551 107.1455539
  78.5951828  73.0559007 107.3625501  79.6211711  72.5950504 106.3492180
  79.4439789  69.6429364 109.7333781  79.7046606  70.5574698 109.6242941
  80.2656961  69.1753807 109.8830393  90.2807159  76.2698129 102.4119521
  89.6636329  75.5444957 102.3152573  89.8123647  77.0307489 102.0686595
  82.0705705  70.4883553 101.5340825  81.1935171  70.3672354 101.1703072
  82.5463458  69.6969631 101.2819714  73.5907845  75.2760713 111.6282332
  74.2778885  74.9622443 111.0403348  73.4355974  76.1802077 111.3549584
  78.3942567  70.1650909 116.0567356  78.3100756  69.5576579 115.3217766
  77.5725273  70.6559928 116.0576852  88.5666281  68.6504473 111.4237551
  89.0634980  67.8974435 111.1038621  87.7953262  68.6868790 110.8580760
  85.1501250  70.7921856 111.1509236  84.7799037  70.2392896 111.8390141
  85.6460342  70.1879989 110.5984236  91.0085276  65.6174066 113.5716910
  90.0948355  65.8478293 113.7399117  91.4378377  65.7012510 114.4230942
  73.1675821  73.3561306 113.8999799  73.2059921  72.8224897 114.6936917
  72.6616114  72.8296512 113.2810777  80.5466583  68.2025847 117.3962342
  80.6107910  69.0640678 116.9839739  80.4833704  67.5899848 116.6634700
  76.7984399  72.0825408 106.9753731  77.0937840  71.1736087 106.9220784
  75.8972434  72.0613148 106.6534733  80.3278646  70.1581405 112.9581279
  79.6065231  70.7717373 112.8188753  81.1171901  70.6939170 112.8797925
  78.5272240  69.7639506 107.0993056  78.1984946  68.8836885 106.9168162
  78.8811611  69.7087175 107.9869445  81.6414063  70.0512476 107.4668534
  81.9810136  70.5798397 106.7447142  82.0886184  70.3892882 108.2427100
  84.9873976  65.5198839 115.3698925  85.8100045  65.0459317 115.2477815
  85.2312040  66.2989323 115.8697611  83.6282210  68.5487097 105.6661826
  84.3490573  68.9268350 105.1625543  83.0047515  69.2675974 105.7696804
  87.7713333  69.2532246 106.6020159  87.9876948  70.1356884 106.3008987
  87.2907400  68.8618460 105.8725801  82.5112555  72.2117960 113.1790903
  82.3657135  72.5258263 114.0715185  82.0337758  72.8302860 112.6261802
  84.3708938  69.2020507 113.2271793  84.3570506  68.3061601 112.8904091
  85.0881366  69.2091171 113.8610079  83.7745834  68.0834888 108.4959363
  83.8961745  67.1551534 108.6950250  83.4847876  68.0973574 107.5837678
  86.6437024  65.7689798 111.6326083  86.6658721  65.8329131 110.6778062
  87.0605083  64.9294307 111.8266589  78.2180852  81.7658629 111.0419116
  79.0438872  81.4662401 110.6617759  77.8674904  80.9966251 111.4908905
  76.4189457  79.6844955 112.0008050  75.5821366  79.2567130 111.8192051
  76.3913103  79.8777399 112.9378841  82.7475893  79.6689020 106.5875250
  82.8964013  80.3524485 105.9341923  83.5542336  79.6494111 107.1024706
  80.5028525  75.6954198 107.5936319  80.2574567  74.7916528 107.7916529
  80.6724440  75.6971349 106.6515797  79.7724173  71.4282556 105.0922480
  79.0793418  71.5026911 104.4362516  79.5275925  70.6642899 105.6143997
  88.4437830  62.9878157 112.4961971  88.7239583  62.3201346 113.1222398
  89.2288436  63.1807253 111.9836635  86.2471298  82.1637151 104.0586998
  85.6745265  82.7827338 103.6057469  86.8204092  82.7136513 104.5926919
  89.4668558  82.4474301 105.1895580  90.3999231  82.3819863 105.3928455
  89.3791771  83.2830568 104.7310112  92.0956574  81.7640171 102.1499527
  92.0170206  81.4300035 103.0435285  92.9166241  82.2561939 102.1491000
  86.6318097  73.4997964 101.4003050  87.5777201  73.3704172 101.4691468
  86.2532341  72.7612626 101.8772478  92.6039981  65.1653970 111.3629942
  92.4064802  64.8569058 112.2473274  93.2139687  65.8915609 111.4927872
  84.8161014  71.4247940 101.3357935  83.9092469  71.1281053 101.4120649
  85.0936995  71.1277758 100.4692221  75.7338954  72.7454303 111.7856982
  75.4141738  71.8919612 111.4931356  75.1872382  72.9602882 112.5414949
  86.4323079  65.9684830 107.4902177  85.6223808  65.6231915 107.8657423
  87.1207496  65.6592373 108.0789788  88.3613628  65.0462877 109.1126473
  88.9144666  65.4658330 109.7716496  88.5983714  64.1198625 109.1549429
  83.5859798  68.2834875 101.4769914  84.4478962  68.6089774 101.7365732
  83.7710142  67.4966371 100.9642980  75.6027214  76.3657215 113.7550103
  74.9090685  75.9511168 113.2420058  76.3500205  76.4077751 113.1583522
  91.7392435  67.1563402 108.6205137  91.1591104  67.8148206 108.2383190
  91.4728367  66.3340746 108.2092555  90.1896001  66.5568459 110.8226458
  90.6895780  66.6684994 110.0140777  90.8331609  66.2529512 111.4627266
  77.5163957  76.2975469 111.6316118  77.4934645  76.3963156 110.6798001
  77.8264593  77.1440620 111.9533284  90.5217313  69.3163492 107.6761486
  89.6343168  69.6013143 107.4581680  90.9371302  69.1557255 106.8288763
  89.6660526  79.0808167 101.7709506  90.3696376  79.2858169 102.3867161
  88.9423175  79.6484929 102.0358589  90.4958337  74.8318028 107.8911776
  90.4393538  75.2886579 107.0519408  91.0486679  74.0708713 107.7134619
  94.3063142  70.6207760 108.7161895  94.0500077  70.2204396 109.5470103
  93.6816010  71.3351554 108.5912035  91.5747224  79.5190696 103.8207966
  92.4092828  79.0871894 103.6385441  91.4131567  79.3472710 104.7484860
  91.2293116  76.0222809 105.1864305  91.1741920  75.8567081 104.2452749
  90.6039171  76.7298842 105.3426495  84.5389241  65.5230918 104.7649623
  84.5267911  66.4672758 104.9217894  85.4312663  65.3401064 104.4709085
  88.3541361  62.1173695 109.0195560  87.5873757  61.5632182 109.1652243
  88.7652066  62.1895564 109.8809712  92.9099459  85.8175471 101.5340825
  92.0328926  85.6964271 101.1703072  93.3857212  85.0261549 101.2819714
  94.4253553  83.6126793 101.4769914  95.2872717  83.9381691 101.7365732
  94.6103897  82.8258289 100.9642980  44.8324672   0.1684368  90.6017387
  44.1586371   0.4716064  91.2102345  45.2190494   0.9713448  90.2522844
  48.7381558  -2.5465377  88.8744834  48.6595189  -2.8805513  89.7680592
  49.5591225  -2.0543609  88.8736306  46.3085510  -5.2297381  88.4954812
  47.0121360  -5.0247379  89.1112468  45.5848158  -4.6620619  88.7603896
  49.5133004   7.5317704  96.5666865  48.9497869   7.4407640  95.7983153
  49.3985399   6.7117608  97.0469357  55.0932563  11.1988671  91.8781330
  54.4420543  11.7842752  91.4915343  55.8876926  11.7294866  91.9376367
  49.0188190   8.2877808  92.2768464  49.7919066   7.7406795  92.1381340
  49.3713589   9.1522058  92.4882925  51.3554468   4.4470474  89.9086914
  51.6079988   3.9251996  89.1470377  50.4179027   4.2836620  90.0113598
  56.3997751   3.4506253  97.7161657  57.1860840   3.0325676  97.3652074
  56.6636455   4.3552345  97.8843306  56.5707828   8.8879103  92.4150314
  55.9353661   8.9613730  93.1271219  56.2405234   9.4772702  91.7369393
  61.8006178   3.3881486  98.6194636  62.5331350   2.8180703  98.8532465
  61.0445533   3.0003086  99.0601141  51.0750756   6.3498580  92.1111289
  50.9587015   5.6743484  92.7792373  51.1853016   5.8630954  91.2943442
  53.4182297   5.8108728  95.8157978  53.0540505   5.2839349  96.5270900
  54.2749413   5.4207197  95.6424464  53.0587784   0.8398627  90.8119327
  53.2262187   1.7078864  91.1789798  52.8684953   1.0025909  89.8880616
  53.0377005   3.2956285  91.7965993  52.9176630   3.7413335  92.6351474
  52.3429594   3.6441602  91.2379532  50.7983897  16.0659926  95.4456125
  50.7207927  17.0167752  95.5244605  50.1945541  15.7205799  96.1031051
  58.7362071   3.7677758  92.6246328  59.6479928   4.0005145  92.4494025
  58.2271718   4.3514802  92.0621406  57.3431654   8.7503576 100.0159909
  56.7140516   8.9149290  99.3135977  56.9557316   9.1645186 100.7870873
  61.2220886   9.6858014  97.3704273  60.5371924  10.0656916  96.8201306
  61.3064735  10.2953341  98.1036220  52.8959616   8.4877984  97.2809994
  53.3597961   8.7665687  96.4914617  52.6316414   7.5861429  97.0983085
  51.8328502   4.6101137  94.0899559  52.5352545   5.0622180  94.5573486
  51.5009130   3.9684956  94.7179452  59.5917645  10.2089929 102.1421974
  60.4135089   9.8070116 101.8604655  59.5880048  10.1058163 103.0938089
  67.6823638   6.5528677  98.4906945  66.9287347   5.9836075  98.3350949
  67.8171179   6.5191342  99.4377580  53.0722266  11.4242079  94.1661664
  52.9367941  12.2693615  94.5946512  53.6132079  11.6261357  93.4027598
  46.5251664   8.9417517  94.7389590  47.0376184   9.7360768  94.8895154
  47.1774376   8.2443808  94.6723191  48.3346548  12.0583274  96.8212343
  48.5113177  12.9801238  96.6333327  49.1303382  11.7441693  97.2506722
  56.3865013   4.9381252  91.2032993  55.8711636   5.7085857  91.4421380
  56.1142321   4.2646389  91.8266054  61.3599287   7.6913607  93.1386166
  60.5828729   7.3524767  92.6941329  62.0390768   7.6966230  92.4641132
  56.1751316   2.8108345  93.0292774  55.8701451   3.1254494  93.8802917
  57.1281758   2.8889764  93.0720107  54.6197748   8.9698568  94.6785728
  54.0919109   8.2351327  94.3658966  54.1185250   9.7473244  94.4325696
  59.5990594   7.1647588  99.7952774  58.9414268   7.8546850  99.8832903
  60.4030993   7.5544020 100.1386761  58.4096052   5.5191961  97.8456716
  58.9227934   6.1521953  98.3478426  59.0597276   4.9193157  97.4800076
  49.6786062   1.6622695  91.0588225  48.8423375   1.9997382  91.3797500
  49.5390832   1.5271675  90.1215362  52.7650348   6.7878778  87.6820701
  51.8577410   6.5568032  87.8811850  53.2621380   5.9916397  87.8694683
  55.6718427  15.4976285  90.6017387  54.9980125  15.8007982  91.2102345
  56.0584249  16.3005366  90.2522844  55.6711931   4.3932832  95.2217737
  56.4183750   4.9054229  94.9124859  55.9403521   4.0716885  96.0822131
  53.9438581   6.8891373  92.2044691  53.0349800   6.6050406  92.3017161
  53.9733665   7.3090452  91.3447998  59.1757849  10.4997962  95.9735859
  58.7220176   9.6588872  96.0301049  58.5451815  11.1359361  96.3110639
  57.6190788  12.3374459  96.9085677  57.9113762  12.8979516  96.1898043
  58.1289408  12.6303020  97.6638836  53.6414669   8.4300117  89.5432770
  53.2034099   7.7135976  89.0838407  54.3825110   8.6576231  88.9817861
  52.5824413  13.1154810  97.9979130  52.5400592  13.3415657  97.0687662
  53.4987112  12.8818185  98.1464931  61.7587784   6.7057314  95.6009088
  61.6205682   6.8958910  94.6730278  61.4024003   7.4676696  96.0577140
  61.7857163   8.7733841 100.6120360  62.2193670   8.6809130 101.4603414
  62.4988744   8.7491341  99.9740376  50.6990214   9.9917839  97.7941093
  51.4930812   9.4968159  97.5923668  49.9881906   9.4635702  97.4308798
  55.5185058  12.3735935 102.1453461  55.5722081  12.9426871 102.9131176
  54.6499840  12.5437820 101.7807498  47.0072977   4.1360921  93.8700846
  46.0770565   4.0745376  94.0870808  47.1030449   3.6136874  93.0737487
  53.8709642  15.6655958  92.8164467  54.0461397  15.1944001  93.6310089
  53.1842430  16.2921724  93.0445727  54.8266705   9.9428464  98.8627768
  54.4916538   9.9029234  99.7585418  54.3270651   9.2773180  98.3898178
  57.7625897   7.2884498  89.1364827  57.1455067   6.5631326  89.0397880
  57.2942385   8.0493859  88.7931902  48.4370727  18.8145320  99.5904327
  48.6767325  19.4463845 100.2683345  47.5939924  18.4633361  99.8769686
  49.5524443   1.5069923  88.2586132  48.6753909   1.3858723  87.8948378
  50.0282196   0.7156001  88.0065020  52.9498589  14.6224443 101.9945831
  52.8768760  15.4279414 102.5065135  52.5075982  14.8216409 101.1693852
  52.7388369  13.8596213  95.5048652  51.9555890  14.4017893  95.5986877
  53.4381114  14.3770193  95.9042893  63.9014776   5.3731208  99.7901149
  63.8904652   6.2555923  99.4195082  63.0332156   5.0202759  99.5955686
  57.1314799   8.4262530  95.7221281  56.1971078   8.5463992  95.5525985
  57.3091468   7.5234996  95.4581291  60.5187351   4.2679849  96.2571315
  60.9847803   5.1007841  96.1831618  60.9694851   3.8024830  96.9616574
  58.5863582  10.6123670  93.2557467  58.8623426  10.4980265  94.1651341
  57.7168081  10.2141155  93.2169640  55.2217646  14.8610021  96.8990281
  55.4040040  14.0431677  97.3618033  56.0450632  15.0777713  96.4615171
  55.5559811  13.7878206  94.1605329  56.0847578  13.2770661  93.5475491
  55.8188031  13.4720736  95.0250862  48.9115559  14.8393323  96.9203105
  48.2425935  15.3239450  96.4367145  48.7728429  15.0862543  97.8346484
  53.0520828  16.8737066 103.5185764  53.6039136  17.0368688 104.2834849
  53.3927021  17.4641504 102.8465788  56.1889215  14.8219042 100.5049446
  56.0640355  14.0208782  99.9960391  56.8468306  15.3165235 100.0163416
  58.2524124  12.6228062 102.1328996  57.3054459  12.5033413 102.0607323
  58.6006897  11.7350560 102.2155257  55.2570557  12.4180778  98.3333348
  55.1095519  11.4897486  98.5140918  56.0824050  12.4400869  97.8490423
  58.8604679  13.2409337  99.4198221  59.7851226  13.0352198  99.2822672
  58.6919982  12.9925738 100.3287562  51.1100948  -0.4326533  92.3907133
  51.8309311  -0.0545280  91.8870850  50.4866252   0.2862344  92.4942111
  55.2532071   0.2718616  93.3265465  55.4695686   1.1543254  93.0254293
  54.7726138  -0.1195171  92.5971107  58.6499995  13.7595004  94.7760312
  58.8236872  13.1941427  94.0234165  59.1428886  14.5595899  94.5939802
  64.5039386   6.5231427  96.3950612  64.9470532   5.7738753  95.9969735
  63.6265896   6.5141564  96.0124344  59.6375167  13.0761769  91.8757211
  60.3326072  13.6968461  92.0944525  59.9798318  12.2257120  92.1509588
  61.5366590  10.5261474  93.4044541  62.0617915  10.8648747  92.6793861
  61.4488943   9.5908490  93.2207676  53.2207251  16.5933458  97.7639795
  52.7812242  16.1009836  98.4572651  53.9715368  16.0506425  97.5231870
  45.6999590  12.7844998  97.7664423  46.5257610  12.4848770  97.3863066
  45.3493642  12.0152621  98.2154211  50.6681123  12.1371467  99.8362096
  50.0461133  11.4742172  99.5364324  51.3385990  12.1632599  99.1535744
  50.2294630  10.6875390  93.3120557  50.3782751  11.3710854  92.6587229
  51.0361074  10.6680480  93.8270012  64.0472251   7.9936666  98.7873060
  64.8819142   8.4326470  98.9510620  64.1831380   7.5175319  97.9681305
  47.9847263   6.7140568  94.3181626  47.7393305   5.8102898  94.5161836
  48.1543178   6.7157718  93.3761104  47.2542911   2.4468925  91.8167787
  46.5612156   2.5213280  91.1607823  47.0094663   1.6829269  92.3389304
  53.7290036  13.1823520  90.7832304  53.1564003  13.8013708  90.3302776
  54.3022829  13.7322882  91.3172226  56.9487296  13.4660671  91.9140886
  57.8817969  13.4006232  92.1173762  56.8610508  14.3016937  91.4555419
  59.5775312  12.7826541  88.8744834  59.4988944  12.4486405  89.7680592
  60.3984979  13.2748309  88.8736306  54.1136834   4.5184333  88.1248357
  55.0595939   4.3890541  88.1936775  53.7351079   3.7798995  88.6017785
  68.0930053   6.7104287 101.2227189  68.8233442   6.4489575 101.7834893
  67.4836999   5.9733009 101.2629257  66.1745350   4.8512150 101.8201641
  65.4478514   4.7168115 101.2118132  65.7592637   5.1588978 102.6258359
  52.2979751   2.4434310  88.0603242  51.3911207   2.1467422  88.1365955
  52.5755732   2.1464128  87.1937528  51.0678536  -0.6978755  88.2015221
  51.9297700  -0.3723857  88.4611038  51.2528880  -1.4847259  87.6888287
  59.2211173  -1.8250229  95.3450444  58.6409842  -1.1665425  94.9628496
  58.9547105  -2.6472884  94.9337862  58.0036051   0.3349862  94.4006792
  57.1161906   0.6199512  94.1826987  58.4190040   0.1743625  93.5534069
  46.0120301  14.9157613  99.4878237  45.8774769  14.1558014  98.9216235
  45.5952363  15.6398513  99.0207026  57.1479264  10.0994536  88.4954812
  57.8515114  10.3044539  89.1112468  56.4241913  10.6671298  88.7603896
  57.9777074   5.8504398  94.6157082  57.9212276   6.3072949  93.7764715
  58.5305417   5.0895082  94.4379925  61.7881880   1.6394129  95.4407202
  61.5318814   1.2390765  96.2715410  61.1634748   2.3537923  95.3157341
  66.0994218   4.3790203  97.9478493  65.5393776   4.4483392  98.7210055
  65.4937721   4.2031187  97.2277990  49.1689427  15.8126930  99.6996680
  49.0521811  16.7572362  99.5975370  48.3481873  15.5100491 100.0882479
  59.0565961  10.5377066  90.5453272  59.8911565  10.1058264  90.3630747
  58.8950304  10.3659079  91.4730167  58.7111854   7.0409179  91.9109612
  58.6560657   6.8753450  90.9698056  58.0857909   7.7485212  92.0671801
  52.0207979  -3.4582712  91.4894930  52.0086649  -2.5140872  91.6463201
  52.9131401  -3.6412567  91.1954391  51.9497543  15.2186178  99.5762687
  50.9993174  15.2188040  99.4627059  52.2530029  14.4718913  99.0598721
  67.6850237  21.0546717 100.6408449  68.3228647  20.9353464  99.9371789
  67.5671079  22.0027561 100.6996401  64.4939943  21.0074145 100.5769974
  64.1558454  20.8915209  99.6890509  65.3629711  20.6065310 100.5570980
  60.3526759  22.8609621  96.5666865  59.7891624  22.7699558  95.7983153
  60.2379154  22.0409526  97.0469357  64.9759726  22.1608996 106.5356179
  64.9648367  21.7661795 105.6636683  65.1380365  21.4275069 107.1289951
  57.8991190  24.3560813  99.4051085  58.6912482  24.0151637  98.9897385
  58.1387841  24.4655788 100.3253239  65.9326317  26.5280589  91.8781330
  65.2814297  27.1134669  91.4915343  66.7270680  27.0586784  91.9376367
  59.8581944  23.6169726  92.2768464  60.6312820  23.0698713  92.1381340
  60.2107343  24.4813975  92.4882925  61.6966987  24.9446108 105.4835363
  61.4056853  25.8491739 105.3682030  62.3323971  24.9862636 106.1979433
  62.6223194  22.3222957 102.0736723  63.2186766  22.0978979 101.3593686
  62.6798165  21.5807702 102.6762171  62.1948222  19.7762392  89.9086914
  62.4473743  19.2543913  89.1470377  61.2572781  19.6128538  90.0113598
  67.2391505  18.7798171  97.7161657  68.0254594  18.3617594  97.3652074
  67.5030209  19.6844263  97.8843306  67.4101582  24.2171021  92.4150314
  66.7747415  24.2905647  93.1271219  67.0798989  24.8064620  91.7369393
  72.6399932  18.7173404  98.6194636  73.3725104  18.1472621  98.8532465
  71.8839288  18.3295004  99.0601141  61.9144511  21.6790498  92.1111289
  61.7980769  21.0035401  92.7792373  62.0246771  21.1922872  91.2943442
  64.2576052  21.1400645  95.8157978  63.8934259  20.6131266  96.5270900
  65.1143168  20.7499114  95.6424464  70.1625353  12.4294978 103.0789244
  69.8308677  13.2990389 102.8550459  69.5670966  12.1131262 103.7583275
  63.8981539  16.1690545  90.8119327  64.0655941  17.0370781  91.1789798
  63.7078708  16.3317827  89.8880616  66.6556872  24.6307524 102.4785157
  66.3557595  25.5332563 102.3700964  66.3107932  24.3639707 103.3306310
  60.1069354  21.0821321  98.5121861  59.1819850  20.9497535  98.7199553
  60.3553767  21.8615540  99.0091804  70.0554016  17.1490064 100.1582594
  69.1470893  17.0805472  99.8641355  70.0041612  17.6262009 100.9864420
  63.8770760  18.6248202  91.7965993  63.7570385  19.0705253  92.6351474
  63.1823348  18.9733520  91.2379532  57.4678165  20.7254594  99.3465651
  57.5970546  20.9789073 100.2605062  56.7875616  21.3182302  99.0270306
  61.6377652  31.3951844  95.4456125  61.5601682  32.3459669  95.5244605
  61.0339295  31.0497717  96.1031051  64.1294882  18.5679710 108.1017492
  63.3528216  19.1273630 108.0920356  64.7685445  19.0536493 108.6232362
  71.9215662  15.3506502 101.9360468  71.2790042  15.6439036 101.2900263
  71.4170591  15.2359423 102.7413665  69.5755826  19.0969676  92.6246328
  70.4873682  19.3297062  92.4494025  69.0665473  19.6806720  92.0621406
  62.3841254  21.3765163 107.6635459  63.1255938  21.9150207 107.3870282
  61.6778239  22.0031452 107.8207010  67.8596594  23.5194303 106.2607620
  68.2679950  23.0776714 105.5162252  67.1373855  22.9446931 106.5141813
  64.2127664  18.4566910 103.6341177  65.0588859  18.8806324 103.7775826
  64.1526301  17.8000534 104.3279740  68.1825408  24.0795494 100.0159909
  67.5534271  24.2441208  99.3135977  67.7951070  24.4937104 100.7870873
  72.0614640  25.0149932  97.3704273  71.3765678  25.3948833  96.8201306
  72.1458489  25.6245259  98.1036220  67.3627109  16.1171279 105.2922351
  67.1188041  16.8713339 104.7556626  67.6387039  16.4956626 106.1269598
  69.3165572  22.6609891 103.9699616  69.5282467  23.3041651 103.2933997
  69.2695320  21.8272207 103.5021546  66.9191801  15.2727712 100.8736188
  66.0576280  15.5708965 101.1652926  66.9454235  15.4898110  99.9417221
  63.7353370  23.8169902  97.2809994  64.1991716  24.0957605  96.4914617
  63.4710168  22.9153347  97.0983085  60.6277451  23.3641384 100.2189757
  61.1978808  23.7928652  99.5807242  61.2185563  23.0823968 100.9173943
  62.6722256  19.9393054  94.0899559  63.3746299  20.3914098  94.5573486
  62.3402885  19.2976873  94.7179452  61.1202618  18.5304811 108.4650769
  60.4901278  19.2121092 108.6986165  61.0138706  18.4187893 107.5203907
  56.4147590  18.1976607  99.3916693  55.6246644  18.4534136  98.9156803
  56.9058837  19.0124945  99.4968733  70.4311400  25.5381846 102.1421974
  71.2528843  25.1362034 101.8604655  70.4273803  25.4350080 103.0938089
  58.3662335  18.5621186  96.3500169  57.5693499  18.6739881  96.8683665
  58.1387928  18.9007839  95.4841060  64.1968003  25.0865890 104.2982684
  64.2612436  25.5486297 105.1340856  63.4878927  24.4563255 104.4264994
  54.6985293  18.4507098 101.8231684  54.9493332  19.3354108 102.0889260
  55.2344841  18.2711699 101.0506775  78.5217393  21.8820595  98.4906945
  77.7681101  21.3127993  98.3350949  78.6564934  21.8483259  99.4377580
  63.9116021  26.7533997  94.1661664  63.7761696  27.5985533  94.5946512
  64.4525833  26.9553275  93.4027598  57.3645418  24.2709435  94.7389590
  57.8769939  25.0652685  94.8895154  58.0168131  23.5735726  94.6723191
  59.1740303  27.3875191  96.8212343  59.3506931  28.3093156  96.6333327
  59.9697136  27.0733611  97.2506722  58.4592659  19.4339823 106.6974506
  58.3446175  18.5325081 106.9981605  57.6037177  19.6803520 106.3459322
  65.5384497  27.3757564 108.2962007  65.0948351  26.5893942 107.9782911
  66.2001711  27.5636714 107.6305897  60.2971618  28.9053365 102.8222685
  60.8479043  28.7770429 102.0499679  59.4583094  29.2048254 102.4717578
  67.6365735  27.6560364 106.3243408  67.6184211  28.4769245 105.8323677
  68.5585655  27.5314439 106.5493549  64.0938789  25.1704493 107.1666916
  64.6267126  24.4092781 106.9366224  63.5652870  24.8778145 107.9091071
  67.2608484  10.2764559 102.6960558  66.9172754  11.1666201 102.6199668
  67.6287447  10.0866217 101.8330143  55.3294335  22.5998089  95.5149160
  56.1669557  23.0095098  95.2982868  55.5072603  21.6597532  95.4849354
  67.2258767  20.2673170  91.2032993  66.7105390  21.0377775  91.4421380
  66.9536076  19.5938306  91.8266054  64.8105878  15.1122871  96.2618231
  63.9547474  14.7229721  96.0823870  65.2232830  15.1914832  95.4018017
  66.3405025  12.6469214 100.6609791  65.8369820  12.6099349  99.8477596
  66.6335632  13.5561957 100.7206448  62.5847911  12.7307944  99.6675973
  63.4500907  12.5350753  99.3081862  62.6525420  12.5018296 100.5945330
  72.1993041  23.0205525  93.1386166  71.4222484  22.6816684  92.6941329
  72.8784522  23.0258148  92.4641132  67.0145070  18.1400262  93.0292774
  66.7095206  18.4546411  93.8802917  67.9675512  18.2181682  93.0720107
  65.4591502  24.2990486  94.6785728  64.9312864  23.5643245  94.3658966
  64.9579005  25.0765162  94.4325696  70.4384348  22.4939506  99.7952774
  69.7808023  23.1838767  99.8832903  71.2424747  22.8835938 100.1386761
  60.1910230  14.9610152  97.0392340  60.7653982  14.7385333  96.3065533
  60.7781212  15.0298846  97.7920941  69.2489807  20.8483879  97.8456716
  69.7621689  21.4813871  98.3478426  69.8991031  20.2485074  97.4800076
  60.5179817  16.9914613  91.0588225  59.6817129  17.3289299  91.3797500
  60.3784586  16.8563593  90.1215362  62.4932897  11.8351401  95.7667409
  61.8397310  11.5200418  95.1424024  62.4513372  11.2127141  96.4927232
  63.6044102  22.1170696  87.6820701  62.6971164  21.8859949  87.8811850
  64.1015134  21.3208315  87.8694683  66.5112181  30.8268203  90.6017387
  65.8373880  31.1299900  91.2102345  66.8978003  31.6297283  90.2522844
  65.7270638  18.3233334 100.0915057  64.8093199  18.5448281  99.9336745
  66.1430781  18.3979645  99.2326764  66.5105686  19.7224750  95.2217737
  67.2577504  20.2346147  94.9124859  66.7797275  19.4008803  96.0822131
  64.7832336  22.2183291  92.2044691  63.8743555  21.9342323  92.3017161
  64.8127419  22.6382369  91.3447998  70.0151603  25.8289880  95.9735859
  69.5613930  24.9880790  96.0301049  69.3845570  26.4651279  96.3110639
  68.9584523  16.7581866  97.2036526  68.2207279  16.2459252  97.5346769
  69.2111296  16.3182248  96.3919803  68.4584542  27.6666377  96.9085677
  68.7507517  28.2271434  96.1898043  68.9683163  27.9594938  97.6638836
  69.0596150   9.5358118  97.7978296  69.3655027   8.6755482  97.5104211
  69.7848755  10.1275738  97.5977289  55.3520506  19.9388805  96.1859893
  55.1544906  19.3458165  95.4610960  54.7967170  19.6341015  96.9035832
  63.3317230  19.8311911  98.3054487  63.3865840  18.8785748  98.2296963
  62.5208432  19.9871350  98.7895785  64.4808423  23.7592034  89.5432770
  64.0427853  23.0427893  89.0838407  65.2218864  23.9868149  88.9817861
  61.2709590  18.4488971  96.0644866  60.4577455  18.7483142  96.4710058
  61.7668584  18.0544660  96.7819348  63.4218168  28.4446728  97.9979130
  63.3794346  28.6707574  97.0687662  64.3380866  28.2110103  98.1464931
  66.8683801  18.9130795 104.8959759  67.2233189  19.1402269 105.7554225
  67.5155933  19.2449172 104.2737015  72.5981538  22.0349231  95.6009088
  72.4599437  22.2250827  94.6730278  72.2417757  22.7968614  96.0577140
  60.7623664  16.0207327 101.6806100  61.4023044  15.8796086 100.9829064
  59.9301195  15.7341840 101.3044702  72.6250918  24.1025758 100.6120360
  73.0587425  24.0101047 101.4603414  73.3382499  24.0783259  99.9740376
  61.5383968  25.3209757  97.7941093  62.3324567  24.8260077  97.5923668
  60.8275661  24.7927620  97.4308798  66.3578813  27.7027852 102.1453461
  66.4115835  28.2718789 102.9131176  65.4893594  27.8729738 101.7807498
  57.8466732  19.4652839  93.8700846  56.9164320  19.4037294  94.0870808
  57.9424204  18.9428791  93.0737487  57.7652281  15.9907652  96.4579087
  58.0259098  16.9052985  96.3488248  58.5869453  15.5232094  96.6075700
  59.2377206  17.4045409 103.6277912  59.9100260  17.1962771 102.9790561
  58.4106993  17.2067495 103.1883144  73.4866467  24.1449459 103.1453245
  73.6802358  25.0495270 103.3912520  73.3867086  23.6856878 103.9791830
  65.1402778  14.0307350 105.6443573  64.4930693  14.7297299 105.5508049
  65.9103794  14.4643494 106.0119821  68.5481576  24.2956202 108.7194126
  68.3967083  24.0666753 107.8024210  68.5386256  25.2526803 108.7325471
  65.3166913  21.8688115 103.7040392  66.2458973  22.0199274 103.5309360
  64.8957943  21.9572135 102.8489039  64.1155244  25.8938779 101.4738930
  63.9766330  25.5257563 102.3464868  63.3269841  26.4086418 101.3022888
  64.7103396  30.9947875  92.8164467  64.8855152  30.5235919  93.6310089
  64.0236184  31.6213642  93.0445727  65.6660459  25.2720382  98.8627768
  65.3310292  25.2321152  99.7585418  65.1664405  24.6065098  98.3898178
  59.6404703  20.6788012 104.3880349  59.5024501  19.9468250 104.9891888
  60.5509627  20.5896912 104.1064537  68.6019651  22.6176416  89.1364827
  67.9848822  21.8923244  89.0397880  68.1336140  23.3785776  88.7931902
  62.2687004  20.3907971 103.8764029  62.9786623  19.7501163 103.8350647
  62.2256312  20.6420866 104.7990209  70.2573783  27.3275324 106.7970608
  70.1986329  26.6434544 106.1301191  70.6593301  28.0694314 106.3451234
  60.9815938  17.3773189 105.6959668  60.4453295  16.9263927 106.3481264
  60.3932647  17.5119098 104.9530132  59.2764482  34.1437238  99.5904327
  59.5161080  34.7755762 100.2683345  58.4333678  33.7925278  99.8769686
  60.3918197  16.8361840  88.2586132  59.5147663  16.7150641  87.8948378
  60.8675950  16.0447919  88.0065020  70.2591190  25.2914908 105.0284587
  69.3717969  24.9540830 105.1510986  70.8289741  24.5597939 105.2653353
  51.9120337  21.6239000  98.3527639  52.5991377  21.3100730  97.7648654
  51.7568466  22.5280365  98.0794890  56.7155059  16.5129197 102.7812663
  56.6313248  15.9054866 102.0463073  55.8937766  17.0038215 102.7822159
  63.7892343  29.9516361 101.9945831  63.7162515  30.7571332 102.5065135
  63.3469737  30.1508326 101.1693852  63.5782123  29.1888131  95.5048652
  62.7949645  29.7309811  95.5986877  64.2774868  29.7062110  95.9042893
  66.8878773  14.9982760  98.1482858  67.3847473  14.2452722  97.8283928
  66.1165755  15.0347077  97.5826067  74.7408531  20.7023126  99.7901149
  74.7298407  21.5847841  99.4195082  73.8725910  20.3494676  99.5955686
  66.2491027  29.8503195 104.1503989  66.9618999  30.4850659 104.0779891
  65.7581056  29.9467061 103.3343991  67.9708554  23.7554447  95.7221281
  67.0364833  23.8755910  95.5525985  68.1485222  22.8526914  95.4581291
  63.4713742  17.1400143  97.8754542  63.1011529  16.5871183  98.5635448
  63.9672834  16.5358277  97.3229542  71.3581105  19.5971767  96.2571315
  71.8241557  20.4299758  96.1831618  71.8088606  19.1316748  96.9616574
  61.3002940  27.5997638 104.9709560  62.0012400  28.2334121 105.1238954
  60.8298055  27.9412370 104.2105199  69.4257336  25.9415588  93.2557467
  69.7017180  25.8272182  94.1651341  68.5561835  25.5433073  93.2169640
  69.3297768  11.9652354 100.2962216  68.4160848  12.1956580 100.4644423
  69.7590869  12.0490798 101.1476249  69.1004226  20.1542246 102.7962111
  68.4475677  20.4018153 102.1414563  69.4784606  19.3406384 102.4624588
  66.0611400  30.1901939  96.8990281  66.2433795  29.3723595  97.3618033
  66.8844386  30.4069631  96.4615171  66.3953566  29.1170124  94.1605329
  66.9241332  28.6062578  93.5475491  66.6581785  28.8012654  95.0250862
  65.1491799  20.8962057 109.2828148  64.4732436  20.7956186 109.9530523
  65.9719433  20.7401270 109.7464145  56.8970659  27.1333993 101.9040663
  57.4824095  26.3877681 102.0368567  56.6995497  27.4437950 102.7877327
  59.7509314  30.1685241  96.9203105  59.0819689  30.6531368  96.4367145
  59.6122183  30.4154461  97.8346484  51.4888313  19.7039593 100.6245106
  51.5272413  19.1703184 101.4182224  50.9828606  19.1774799 100.0056083
  63.8914582  32.2028984 103.5185764  64.4432890  32.3660606 104.2834849
  64.2320776  32.7933422 102.8465788  58.8679076  14.5504134 104.1207648
  58.9320402  15.4118965 103.7085046  58.8046196  13.9378136 103.3880007
  68.7425457  27.0290242 109.3734418  69.2865361  27.6420200 108.8789373
  68.1612302  27.5869820 109.8901431  55.1196891  18.4303696  93.6999037
  55.4150332  17.5214374  93.6466091  54.2184927  18.4091435  93.3780040
  67.0282970  30.1510960 100.5049446  66.9034109  29.3500699  99.9960391
  67.6862061  30.6457153 100.0163416  58.6491138  16.5059692  99.6826586
  57.9277724  17.1195660  99.5434059  59.4384394  17.0417457  99.6043232
  69.0917878  27.9519980 102.1328996  68.1448214  27.8325331 102.0607323
  69.4400651  27.0642478 102.2155257  56.8484732  16.1117793  93.8238363
  56.5197439  15.2315172  93.6413468  57.2024103  16.0565462  94.7114752
  66.0964311  27.7472696  98.3333348  65.9489274  26.8189403  98.5140918
  66.9217805  27.7692787  97.8490423  59.9626556  16.3990763  94.1913840
  60.3022628  16.9276684  93.4692449  60.4098676  16.7371169  94.9672407
  69.6998433  28.5701255  99.4198221  70.6244981  28.3644116  99.2822672
  69.5313737  28.3217656 100.3287562  62.6569996  14.7827814 103.6416908
  62.3166817  13.9835627 104.0437588  61.9509003  15.0829525 103.0693741
  63.3086468  11.8677126 102.0944231  64.1312538  11.3937604 101.9723122
  63.5524532  12.6467610 102.5942918  61.9494703  14.8965385  92.3907133
  62.6703065  15.2746637  91.8870850  61.3260007  15.6154261  92.4942111
  66.0925826  15.6010534  93.3265465  66.3089440  16.4835171  93.0254293
  65.6119893  15.2096747  92.5971107  60.8325047  18.5596247  99.9036210
  60.6869628  18.8736550 100.7960491  60.3550251  19.1781147  99.3507109
  62.6921430  15.5498795  99.9517099  62.6782999  14.6539888  99.6149397
  63.4093858  15.5569458 100.5855386  64.5447561  15.9836135 101.9970227
  64.2865338  16.9053206 101.9954557  64.0132601  15.5866569 102.6870691
  69.4893749  29.0886922  94.7760312  69.6630627  28.5233345  94.0234165
  69.9822641  29.8887817  94.5939802  55.3070709  21.1001591 102.8423871
  54.7624177  21.8761399 102.9744145  56.1850059  21.4472396 102.6842993
  62.0958326  14.4313175  95.2204670  62.2174237  13.5029821  95.4195557
  61.8060368  14.4451861  94.3082985  64.9649516  12.1168085  98.3571389
  64.9871213  12.1807419  97.4023369  65.3817575  11.2772594  98.5511896
  75.3433141  21.8523345  96.3950612  75.7864287  21.1030670  95.9969735
  74.4659651  21.8433481  96.0124344  70.4768922  28.4053686  91.8757211
  71.1719826  29.0260379  92.0944525  70.8192072  27.5549038  92.1509588
  56.0936731  20.2271487 105.7354028  55.3518467  20.3754123 106.3218658
  55.7729475  20.4879753 104.8720777  72.3760345  25.8553392  93.4044541
  72.9011669  26.1940665  92.6793861  72.2882698  24.9200407  93.2207676
  64.0380394  29.7687466 105.5334418  64.3467520  29.5236612 106.4057118
  64.8355876  29.9734104 105.0453288  64.0601006  31.9225375  97.7639795
  63.6205996  31.4301754  98.4572651  64.8109123  31.3798343  97.5231870
  56.5393345  28.1136916  97.7664423  57.3651365  27.8140688  97.3863066
  56.1887397  27.3444539  98.2154211  61.5074878  27.4663384  99.8362096
  60.8854887  26.8034089  99.5364324  62.1779745  27.4924516  99.1535744
  54.7401950  26.0323243  98.7253356  53.9033858  25.6045417  98.5437357
  54.7125595  26.2255686  99.6624147  72.0654251  26.4886296 108.7095739
  71.2749795  26.4710434 108.1700239  71.8287606  27.0274589 109.4644776
  72.1852126  23.3378762 106.0228468  72.2350131  23.1728769 106.9643991
  72.0766049  22.4706021 105.6326349  61.0688385  26.0167308  93.3120557
  61.2176505  26.7002772  92.6587229  61.8754828  25.9972398  93.8270012
  69.4755888  19.3209690 107.3387775  70.3765751  19.1816155 107.0471772
  69.5503863  19.4864145 108.2785952  63.8098694  16.6976545 106.1840961
  62.9402003  16.9910111 105.9123549  64.0458174  17.2816990 106.9048224
  73.6870323  25.7575704 106.2670489  73.3955131  26.1205684 107.1033950
  73.0742454  25.0442712 106.0883821  74.8866005  23.3228583  98.7873060
  75.7212897  23.7618387  98.9510620  75.0225134  22.8467237  97.9681305
  71.9357511  20.8808318 104.7350547  72.4111633  21.0735964 103.9269399
  71.0123077  20.9367504 104.4893931  58.8241018  22.0432485  94.3181626
  58.5787060  21.1394815  94.5161836  58.9936932  22.0449636  93.3761104
  66.5137728  12.9156162 103.7006381  67.0319672  13.6517189 103.3752870
  66.1592860  13.2220155 104.5353140  58.0936665  17.7760843  91.8167787
  57.4005910  17.8505198  91.1607823  57.8488417  17.0121187  92.3389304
  66.7650322   9.3356444  99.2207278  67.0452076   8.6679633  99.8467704
  67.5500929   9.5285540  98.7081942  64.5683790  28.5115438  90.7832304
  63.9957757  29.1305625  90.3302776  65.1416584  29.0614800  91.3172226
  70.6359180  17.7574078 102.9678853  71.5876603  17.8572176 102.9891077
  70.4662631  16.9652347 103.4776937  68.6573560  14.8429661 103.1538254
  68.0623492  15.1234674 102.4584742  68.3723256  15.3323562 103.9254995
  67.7881050  28.7952588  91.9140886  68.7211723  28.7298150  92.1173762
  67.7004263  29.6308855  91.4555419  70.4169067  28.1118459  88.8744834
  70.3382698  27.7778322  89.7680592  71.2378734  28.6040227  88.8736306
  73.1147258  20.9780198 102.0821153  73.0823578  20.0396199 102.2680836
  73.7247882  21.0564235 101.3486977  64.9530589  19.8476251  88.1248357
  65.8989694  19.7182459  88.1936775  64.5744834  19.1090913  88.6017785
  73.2641746  17.7691241 102.1279436  72.7480795  16.9849698 101.9409365
  74.1481695  17.4409958 102.2925955  70.9252473  11.5132257  98.0875248
  70.7277294  11.2047345  98.9718580  71.5352179  12.2393896  98.2173178
  78.9323808  22.0396205 101.2227189  79.6627196  21.7781493 101.7834893
  78.3230753  21.3024927 101.2629257  77.0139105  20.1804067 101.8201641
  76.2872269  20.0460032 101.2118132  76.5986392  20.4880896 102.6258359
  64.8369281  23.8993997 109.5849014  65.7572291  24.0772596 109.7789060
  64.8018864  22.9550042 109.4328713  63.1373506  17.7726227  88.0603242
  62.2304961  17.4759340  88.1365955  63.4149487  17.4756045  87.1937528
  54.0551446  19.0932591  98.5102288  53.7354231  18.2397899  98.2176662
  53.5084875  19.3081169  99.2660256  57.8331354  21.8095032 102.2271795
  58.0517364  22.7412140 102.2459829  58.2457128  21.4503006 103.0126599
  64.7535572  12.3163117  94.2147483  63.9436300  11.9710202  94.5902729
  65.4419989  12.0070661  94.8035095  66.6826120  11.3941164  95.8371780
  67.2357159  11.8136617  96.4961803  66.9196206  10.4676912  95.8794736
  61.9072291  14.6313163  88.2015221  62.7691455  14.9568061  88.4611038
  62.0922635  13.8444658  87.6888287  53.9239706  22.7135502 100.4795410
  53.2303178  22.2989455  99.9665364  54.6712697  22.7556039  99.8828829
  70.0604927  13.5041689  95.3450444  69.4803596  14.1626493  94.9628496
  69.7940860  12.6819034  94.9337862  68.5108493  12.9046747  97.5471764
  69.0108272  13.0163281  96.7386083  69.1544101  12.6007800  98.1872573
  62.5690489  20.8125376 110.4339605  62.0857571  21.6125736 110.6403494
  62.6551428  20.8233321 109.4807049  55.8376449  22.6453756  98.3561425
  55.8147137  22.7441443  97.4043308  56.1477085  23.4918907  98.6778591
  58.4963827  24.7029911 102.4708039  59.4507080  24.6713853 102.4037971
  58.2976350  24.2420535 103.2858265  59.0863209  23.2731027 105.0378837
  59.9056098  23.7675106 105.0613674  59.3600017  22.3562995 105.0096404
  68.8429805  15.6641779  94.4006792  67.9555660  15.9491430  94.1826987
  69.2583794  15.5035543  93.5534069  72.1944341  15.6888300  98.1161132
  72.9704731  16.1784753  98.3885748  71.4692475  16.1146355  98.5733001
  74.6316900  16.4015920  99.1735072  75.2261391  16.1611656  98.4628380
  74.7043484  15.6823050  99.8008608  56.8514056  30.2449530  99.4878237
  56.7168523  29.4849931  98.9216235  56.4346118  30.9690430  99.0207026
  67.9873019  25.4286454  88.4954812  68.6908869  25.6336457  89.1112468
  67.2635667  25.9963216  88.7603896  68.8170829  21.1796315  94.6157082
  68.7606030  21.6364867  93.7764715  69.3699171  20.4187000  94.4379925
  72.6275635  16.9686047  95.4407202  72.3712569  16.5682683  96.2715410
  72.0028503  17.6829841  95.3157341  76.9387973  19.7082120  97.9478493
  76.3787531  19.7775310  98.7210055  76.3331476  19.5323105  97.2277990
  60.0083181  31.1418848  99.6996680  59.8915566  32.0864280  99.5975370
  59.1875628  30.8392409 100.0882479  69.8959716  25.8668983  90.5453272
  70.7305320  25.4350182  90.3630747  69.7344059  25.6950997  91.4730167
  69.5505608  22.3701097  91.9109612  69.4954412  22.2045368  90.9698056
  68.9251663  23.0777129  92.0671801  66.8651515  24.6750008 111.2363174
  67.7342675  24.8490661 110.8749809  66.3858267  25.4944425 111.1138904
  62.8601734  11.8709206  91.4894930  62.8480403  12.8151045  91.6463201
  63.7525155  11.6879351  91.1954391  61.0337696  31.7947109 102.9152608
  61.9364942  31.8270720 103.2319103  60.8075066  30.8647560 102.9298944
  62.7891298  30.5478096  99.5762687  61.8386929  30.5479958  99.4627059
  63.0923784  29.8010831  99.0598721  66.6753853   8.4651982  95.7440867
  65.9086249   7.9110469  95.8897549  67.0864558   8.5373851  96.6055018
  78.5243991  36.3838634 100.6408449  79.1622401  36.2645382  99.9371789
  78.4064834  37.3319478 100.6996401  75.3333697  36.3366062 100.5769974
  74.9952209  36.2207127  99.6890509  76.2023466  35.9357228 100.5570980
  71.1920513  38.1901539  96.5666865  70.6285378  38.0991476  95.7983153
  71.0772908  37.3701443  97.0469357  75.8153480  37.4900914 106.5356179
  75.8042121  37.0953712 105.6636683  75.9774120  36.7566987 107.1289951
  68.7384945  39.6852730  99.4051085  69.5306237  39.3443555  98.9897385
  68.9781595  39.7947706 100.3253239  76.7720072  41.8572507  91.8781330
  76.1208051  42.4426587  91.4915343  77.5664435  42.3878701  91.9376367
  70.6975699  38.9461644  92.2768464  71.4706575  38.3990631  92.1381340
  71.0501098  39.8105893  92.4882925  72.5360741  40.2738026 105.4835363
  72.2450607  41.1783657 105.3682030  73.1717726  40.3154554 106.1979433
  73.4616948  37.6514874 102.0736723  74.0580521  37.4270897 101.3593686
  73.5191920  36.9099620 102.6762171  73.0341977  35.1054310  89.9086914
  73.2867497  34.5835831  89.1470377  72.0966536  34.9420455  90.0113598
  78.0785260  34.1090088  97.7161657  78.8648349  33.6909511  97.3652074
  78.3423964  35.0136180  97.8843306  78.2495337  39.5462938  92.4150314
  77.6141170  39.6197565  93.1271219  77.9192743  40.1356537  91.7369393
  83.4793687  34.0465321  98.6194636  84.2118859  33.4764538  98.8532465
  82.7233042  33.6586922  99.0601141  72.7538265  37.0082416  92.1111289
  72.6374524  36.3327319  92.7792373  72.8640525  36.5214790  91.2943442
  75.0969806  36.4692563  95.8157978  74.7328014  35.9423184  96.5270900
  75.9536922  36.0791032  95.6424464  81.0019107  27.7586895 103.0789244
  80.6702432  28.6282306 102.8550459  80.4064720  27.4423179 103.7583275
  74.7375293  31.4982463  90.8119327  74.9049696  32.3662699  91.1789798
  74.5472462  31.6609744  89.8880616  77.4950627  39.9599441 102.4785157
  77.1951350  40.8624480 102.3700964  77.1501686  39.6931625 103.3306310
  70.9463108  36.4113238  98.5121861  70.0213604  36.2789452  98.7199553
  71.1947521  37.1907458  99.0091804  80.8947770  32.4781982 100.1582594
  79.9864648  32.4097390  99.8641355  80.8435366  32.9553927 100.9864420
  74.7164514  33.9540120  91.7965993  74.5964139  34.3997171  92.6351474
  74.0217103  34.3025438  91.2379532  68.3071919  36.0546512  99.3465651
  68.4364300  36.3080991 100.2605062  67.6269370  36.6474220  99.0270306
  72.4771406  46.7243762  95.4456125  72.3995436  47.6751587  95.5244605
  71.8733050  46.3789634  96.1031051  74.9688636  33.8971627 108.1017492
  74.1921970  34.4565547 108.0920356  75.6079199  34.3828410 108.6232362
  82.7609417  30.6798420 101.9360468  82.1183797  30.9730953 101.2900263
  82.2564345  30.5651340 102.7413665  80.4149580  34.4261593  92.6246328
  81.3267437  34.6588980  92.4494025  79.9059227  35.0098637  92.0621406
  73.2235008  36.7057081 107.6635459  73.9649693  37.2442125 107.3870282
  72.5171994  37.3323369 107.8207010  78.6990348  38.8486221 106.2607620
  79.1073704  38.4068632 105.5162252  77.9767610  38.2738849 106.5141813
  75.0521418  33.7858828 103.6341177  75.8982613  34.2098241 103.7775826
  74.9920056  33.1292452 104.3279740  79.0219163  39.4087412 100.0159909
  78.3928025  39.5733126  99.3135977  78.6344825  39.8229021 100.7870873
  82.9008395  40.3441850  97.3704273  82.2159433  40.7240751  96.8201306
  82.9852244  40.9537176  98.1036220  78.2020863  31.4463196 105.2922351
  77.9581795  32.2005257 104.7556626  78.4780794  31.8248544 106.1269598
  80.1559326  37.9901809 103.9699616  80.3676221  38.6333568 103.2933997
  80.1089074  37.1564125 103.5021546  77.7585555  30.6019629 100.8736188
  76.8970034  30.9000883 101.1652926  77.7847990  30.8190028  99.9417221
  74.5747125  39.1461820  97.2809994  75.0385470  39.4249523  96.4914617
  74.3103923  38.2445264  97.0983085  71.4671206  38.6933301 100.2189757
  72.0372563  39.1220570  99.5807242  72.0579317  38.4115886 100.9173943
  73.5116011  35.2684972  94.0899559  74.2140054  35.7206016  94.5573486
  73.1796639  34.6268791  94.7179452  71.9596372  33.8596729 108.4650769
  71.3295033  34.5413010 108.6986165  71.8532460  33.7479810 107.5203907
  67.2541345  33.5268525  99.3916693  66.4640399  33.7826053  98.9156803
  67.7452592  34.3416863  99.4968733  81.2705154  40.8673764 102.1421974
  82.0922598  40.4653951 101.8604655  81.2667557  40.7641998 103.0938089
  69.2056090  33.8913104  96.3500169  68.4087253  34.0031798  96.8683665
  68.9781682  34.2299756  95.4841060  75.0361758  40.4157807 104.2982684
  75.1006190  40.8778215 105.1340856  74.3272681  39.7855172 104.4264994
  65.5379048  33.7799015 101.8231684  65.7887086  34.6646025 102.0889260
  66.0738596  33.6003617 101.0506775  89.3611147  37.2112512  98.4906945
  88.6074856  36.6419911  98.3350949  89.4958688  37.1775177  99.4377580
  74.7509775  42.0825915  94.1661664  74.6155450  42.9277451  94.5946512
  75.2919588  42.2845192  93.4027598  71.2377115  28.1617495 110.8276020
  70.8444060  27.6083693 111.5023664  72.0543255  28.4728073 111.2182537
  68.2039173  39.6001353  94.7389590  68.7163693  40.3944603  94.8895154
  68.8561885  38.9027643  94.6723191  70.0134057  42.7167109  96.8212343
  70.1900686  43.6385074  96.6333327  70.8090891  42.4025528  97.2506722
  74.1545076  29.5775374 108.4196276  74.8954789  30.1782527 108.3400739
  74.3862999  28.8353012 107.8614319  69.2986414  34.7631741 106.6974506
  69.1839929  33.8616998 106.9981605  68.4430932  35.0095438 106.3459322
  76.3778252  42.7049481 108.2962007  75.9342106  41.9185860 107.9782911
  77.0395465  42.8928632 107.6305897  71.1365373  44.2345283 102.8222685
  71.6872798  44.1062346 102.0499679  70.2976849  44.5340172 102.4717578
  78.4759490  42.9852281 106.3243408  78.4577965  43.8061162 105.8323677
  79.3979410  42.8606356 106.5493549  74.9332544  40.4996411 107.1666916
  75.4660881  39.7384699 106.9366224  74.4046625  40.2070063 107.9091071
  78.1002239  25.6056477 102.6960558  77.7566508  26.4958118 102.6199668
  78.4681201  25.4158134 101.8330143  66.1688089  37.9290007  95.5149160
  67.0063311  38.3387015  95.2982868  66.3466357  36.9889449  95.4849354
  78.0652522  35.5965088  91.2032993  77.5499145  36.3669692  91.4421380
  77.7929830  34.9230224  91.8266054  75.6499633  30.4414789  96.2618231
  74.7941229  30.0521639  96.0823870  76.0626584  30.5206749  95.4018017
  77.1798779  27.9761132 100.6609791  76.6763575  27.9391267  99.8477596
  77.4729386  28.8853875 100.7206448  73.4241665  28.0599862  99.6675973
  74.2894662  27.8642670  99.3081862  73.4919174  27.8310213 100.5945330
  83.0386796  38.3497442  93.1386166  82.2616238  38.0108602  92.6941329
  83.7178277  38.3550066  92.4641132  77.8538825  33.4692180  93.0292774
  77.5488960  33.7838329  93.8802917  78.8069267  33.5473600  93.0720107
  76.2985257  39.6282403  94.6785728  75.7706618  38.8935163  94.3658966
  75.7972759  40.4057080  94.4325696  81.2778103  37.8231424  99.7952774
  80.6201777  38.5130685  99.8832903  82.0818502  38.2127856 100.1386761
  71.0303984  30.2902069  97.0392340  71.6047736  30.0677251  96.3065533
  71.6174967  30.3590764  97.7920941  80.0883561  36.1775796  97.8456716
  80.6015443  36.8105788  98.3478426  80.7384785  35.5776992  97.4800076
  71.3573571  32.3206531  91.0588225  70.5210884  32.6581217  91.3797500
  71.2178341  32.1855510  90.1215362  73.3326652  27.1643318  95.7667409
  72.6791064  26.8492336  95.1424024  73.2907126  26.5419059  96.4927232
  74.4437857  37.4462613  87.6820701  73.5364918  37.2151867  87.8811850
  74.9408889  36.6500233  87.8694683  77.3505936  46.1560121  90.6017387
  76.6767634  46.4591817  91.2102345  77.7371758  46.9589201  90.2522844
  76.5664392  33.6525252 100.0915057  75.6486954  33.8740199  99.9336745
  76.9824536  33.7271562  99.2326764  77.3499440  35.0516668  95.2217737
  78.0971259  35.5638065  94.9124859  77.6191030  34.7300720  96.0822131
  75.6226090  37.5475208  92.2044691  74.7137309  37.2634241  92.3017161
  75.6521174  37.9674287  91.3447998  80.8545358  41.1581798  95.9735859
  80.4007685  40.3172708  96.0301049  80.2239324  41.7943196  96.3110639
  79.7978277  32.0873784  97.2036526  79.0601034  31.5751170  97.5346769
  80.0505051  31.6474165  96.3919803  79.2978297  42.9958295  96.9085677
  79.5901271  43.5563352  96.1898043  79.8076917  43.2886856  97.6638836
  79.8989904  24.8650036  97.7978296  80.2048781  24.0047399  97.5104211
  80.6242509  25.4567656  97.5977289  66.1914261  35.2680722  96.1859893
  65.9938660  34.6750083  95.4610960  65.6360925  34.9632933  96.9035832
  74.1710984  35.1603829  98.3054487  74.2259594  34.2077665  98.2296963
  73.3602186  35.3163268  98.7895785  75.3202178  39.0883952  89.5432770
  74.8821608  38.3719811  89.0838407  76.0612619  39.3160067  88.9817861
  72.1103344  33.7780889  96.0644866  71.2971210  34.0775059  96.4710058
  72.6062338  33.3836577  96.7819348  74.2611922  43.7738646  97.9979130
  74.2188101  43.9999492  97.0687662  75.1774621  43.5402020  98.1464931
  77.7077556  34.2422713 104.8959759  78.0626944  34.4694186 105.7554225
  78.3549687  34.5741090 104.2737015  83.4375293  37.3641149  95.6009088
  83.2993191  37.5542745  94.6730278  83.0811512  38.1260532  96.0577140
  71.6017419  31.3499244 101.6806100  72.2416798  31.2088003 100.9829064
  70.7694949  31.0633758 101.3044702  83.4644672  39.4317676 100.6120360
  83.8981179  39.3392965 101.4603414  84.1776253  39.4075177  99.9740376
  72.3777723  40.6501675  97.7941093  73.1718321  40.1551995  97.5923668
  71.6669415  40.1219538  97.4308798  77.1972567  43.0319770 102.1453461
  77.2509590  43.6010706 102.9131176  76.3287349  43.2021655 101.7807498
  68.6860486  34.7944756  93.8700846  67.7558074  34.7329212  94.0870808
  68.7817958  34.2720709  93.0737487  68.6046035  31.3199569  96.4579087
  68.8652853  32.2344902  96.3488248  69.4263208  30.8524012  96.6075700
  70.0770961  32.7337326 103.6277912  70.7494014  32.5254688 102.9790561
  69.2500747  32.5359412 103.1883144  84.3260222  39.4741377 103.1453245
  84.5196112  40.3787187 103.3912520  84.2260840  39.0148796 103.9791830
  75.9796533  29.3599267 105.6443573  75.3324448  30.0589217 105.5508049
  76.7497548  29.7935411 106.0119821  79.3875331  39.6248119 108.7194126
  79.2360837  39.3958671 107.8024210  79.3780010  40.5818721 108.7325471
  76.1560667  37.1980032 103.7040392  77.0852727  37.3491192 103.5309360
  75.7351697  37.2864053 102.8489039  74.9548999  41.2230697 101.4738930
  74.8160084  40.8549481 102.3464868  74.1663595  41.7378336 101.3022888
  75.5497151  46.3239793  92.8164467  75.7248906  45.8527836  93.6310089
  74.8629939  46.9505559  93.0445727  76.5054214  40.6012299  98.8627768
  76.1704047  40.5613069  99.7585418  76.0058160  39.9357015  98.3898178
  70.4798458  36.0079929 104.3880349  70.3418256  35.2760168 104.9891888
  71.3903381  35.9188829 104.1064537  79.4413406  37.9468334  89.1364827
  78.8242576  37.2215162  89.0397880  78.9729894  38.7077694  88.7931902
  73.1080759  35.7199889 103.8764029  73.8180377  35.0793081 103.8350647
  73.0650067  35.9712783 104.7990209  81.0967537  42.6567242 106.7970608
  81.0380083  41.9726462 106.1301191  81.4987056  43.3986232 106.3451234
  71.8209693  32.7065107 105.6959668  71.2847050  32.2555845 106.3481264
  71.2326401  32.8411015 104.9530132  70.1158236  49.4729156  99.5904327
  70.3554834  50.1047680 100.2683345  69.2727433  49.1217196  99.8769686
  71.2311952  32.1653758  88.2586132  70.3541418  32.0442559  87.8948378
  71.7069705  31.3739836  88.0065020  81.0984945  40.6206826 105.0284587
  80.2111723  40.2832748 105.1510986  81.6683496  39.8889857 105.2653353
  62.7514092  36.9530918  98.3527639  63.4385131  36.6392648  97.7648654
  62.5962220  37.8572282  98.0794890  67.5548814  31.8421114 102.7812663
  67.4707003  31.2346784 102.0463073  66.7331520  32.3330133 102.7822159
  74.6286098  45.2808278 101.9945831  74.5556269  46.0863250 102.5065135
  74.1863491  45.4800244 101.1693852  74.4175878  44.5180048  95.5048652
  73.6343399  45.0601728  95.5986877  75.1168623  45.0354028  95.9042893
  77.7272528  30.3274678  98.1482858  78.2241227  29.5744640  97.8283928
  76.9559509  30.3638994  97.5826067  85.5802285  36.0315043  99.7901149
  85.5692161  36.9139759  99.4195082  84.7119664  35.6786594  99.5955686
  77.0884781  45.1795112 104.1503989  77.8012754  45.8142577 104.0779891
  76.5974810  45.2758978 103.3343991  78.8102308  39.0846365  95.7221281
  77.8758587  39.2047827  95.5525985  78.9878977  38.1818832  95.4581291
  74.3107496  32.4692061  97.8754542  73.9405284  31.9163101  98.5635448
  74.8066589  31.8650194  97.3229542  82.1974860  34.9263684  96.2571315
  82.6635312  35.7591676  96.1831618  82.6482360  34.4608666  96.9616574
  72.1396695  42.9289556 104.9709560  72.8406154  43.5626039 105.1238954
  71.6691810  43.2704287 104.2105199  80.2651091  41.2707506  93.2557467
  80.5410935  41.1564100  94.1651341  79.3955590  40.8724990  93.2169640
  80.1691522  27.2944271 100.2962216  79.2554602  27.5248498 100.4644423
  80.5984624  27.3782715 101.1476249  79.9397981  35.4834163 102.7962111
  79.2869431  35.7310071 102.1414563  80.3178361  34.6698301 102.4624588
  76.9005155  45.5193856  96.8990281  77.0827549  44.7015512  97.3618033
  77.7238141  45.7361549  96.4615171  77.2347320  44.4462042  94.1605329
  77.7635087  43.9354496  93.5475491  77.4975540  44.1304572  95.0250862
  75.9885554  36.2253974 109.2828148  75.3126191  36.1248104 109.9530523
  76.8113188  36.0693188 109.7464145  67.7364413  42.4625911 101.9040663
  68.3217850  41.7169599 102.0368567  67.5389251  42.7729868 102.7877327
  70.5903068  45.4977158  96.9203105  69.9213444  45.9823286  96.4367145
  70.4515938  45.7446379  97.8346484  62.3282068  35.0331511 100.6245106
  62.3666167  34.4995102 101.4182224  61.8222361  34.5066717 100.0056083
  74.7308337  47.5320902 103.5185764  75.2826645  47.6952523 104.2834849
  75.0714530  48.1225340 102.8465788  69.7072830  29.8796052 104.1207648
  69.7714157  30.7410882 103.7085046  69.6439950  29.2670053 103.3880007
  69.1825103  31.9519184 107.7680683  69.8097141  31.5696261 108.3818207
  68.3253021  31.7333386 108.1336375  79.5819211  42.3582159 109.3734418
  80.1259115  42.9712118 108.8789373  79.0006056  42.9161738 109.8901431
  65.9590645  33.7595613  93.6999037  66.2544086  32.8506292  93.6466091
  65.0578681  33.7383353  93.3780040  77.8676724  45.4802877 100.5049446
  77.7427864  44.6792617  99.9960391  78.5255815  45.9749071 100.0163416
  69.4884892  31.8351610  99.6826586  68.7671478  32.4487577  99.5434059
  70.2778148  32.3709375  99.6043232  79.9311633  43.2811897 102.1328996
  78.9841968  43.1617249 102.0607323  80.2794406  42.3934395 102.2155257
  72.2911206  29.1706036 105.9567238  72.8145608  29.4168333 106.7193547
  72.0723539  30.0026071 105.5370375  67.6878487  31.4409711  93.8238363
  67.3591193  30.5607090  93.6413468  68.0417858  31.3857380  94.7114752
  76.9358066  43.0764614  98.3333348  76.7883028  42.1481321  98.5140918
  77.7611559  43.0984704  97.8490423  70.8020310  31.7282681  94.1913840
  71.1416383  32.2568602  93.4692449  71.2492431  32.0663087  94.9672407
  80.5392188  43.8993172  99.4198221  81.4638735  43.6936034  99.2822672
  80.3707491  43.6509573 100.3287562  73.4963751  30.1119731 103.6416908
  73.1560571  29.3127544 104.0437588  72.7902757  30.4121442 103.0693741
  74.1480223  27.1969044 102.0944231  74.9706292  26.7229522 101.9723122
  74.3918286  27.9759528 102.5942918  72.7888457  30.2257302  92.3907133
  73.5096820  30.6038555  91.8870850  72.1653761  30.9446179  92.4942111
  76.9319580  30.9302451  93.3265465  77.1483195  31.8127089  93.0254293
  76.4513647  30.5388665  92.5971107  71.6718802  33.8888164  99.9036210
  71.5263382  34.2028467 100.7960491  71.1944005  34.5073065  99.3507109
  73.5315184  30.8790712  99.9517099  73.5176753  29.9831806  99.6149397
  74.2487612  30.8861376 100.5855386  75.3841315  31.3128053 101.9970227
  75.1259093  32.2345123 101.9954557  74.8526355  30.9158487 102.6870691
  80.3287504  44.4178840  94.7760312  80.5024381  43.8525262  94.0234165
  80.8216395  45.2179735  94.5939802  66.1464464  36.4293509 102.8423871
  65.6017932  37.2053317 102.9744145  67.0243814  36.7764313 102.6842993
  72.9352080  29.7605093  95.2204670  73.0567992  28.8321739  95.4195557
  72.6454123  29.7743779  94.3082985  75.8043271  27.4460003  98.3571389
  75.8264968  27.5099336  97.4023369  76.2211330  26.6064512  98.5511896
  86.1826895  37.1815263  96.3950612  86.6258041  36.4322588  95.9969735
  85.3053405  37.1725399  96.0124344  81.3162676  43.7345604  91.8757211
  82.0113581  44.3552297  92.0944525  81.6585826  42.8840955  92.1509588
  66.9330486  35.5563405 105.7354028  66.1912222  35.7046040 106.3218658
  66.6123230  35.8171671 104.8720777  83.2154099  41.1845310  93.4044541
  83.7405424  41.5232582  92.6793861  83.1276452  40.2492325  93.2207676
  74.8774148  45.0979383 105.5334418  75.1861275  44.8528530 106.4057118
  75.6749630  45.3026022 105.0453288  74.8994760  47.2517293  97.7639795
  74.4599751  46.7593672  98.4572651  75.6502877  46.7090261  97.5231870
  67.3787099  43.4428834  97.7664423  68.2045119  43.1432606  97.3863066
  67.0281151  42.6736456  98.2154211  72.3468632  42.7955302  99.8362096
  71.7248642  42.1326007  99.5364324  73.0173499  42.8216434  99.1535744
  65.5795704  41.3615160  98.7253356  64.7427613  40.9337335  98.5437357
  65.5519350  41.5547604  99.6624147  72.4193160  31.2737090 109.4294602
  72.4681315  32.1499213 109.0472372  72.9615674  30.7314483 108.8566245
  82.9048006  41.8178213 108.7095739  82.1143549  41.8002352 108.1700239
  82.6681360  42.3566507 109.4644776  83.0245881  38.6670680 106.0228468
  83.0743886  38.5020687 106.9643991  82.9159804  37.7997939 105.6326349
  71.9082139  41.3459225  93.3120557  72.0570260  42.0294690  92.6587229
  72.7148583  41.3264315  93.8270012  80.3149643  34.6501608 107.3387775
  81.2159506  34.5108073 107.0471772  80.3897617  34.8156063 108.2785952
  74.6492448  32.0268462 106.1840961  73.7795758  32.3202029 105.9123549
  74.8851929  32.6108907 106.9048224  84.5264077  41.0867621 106.2670489
  84.2348886  41.4497602 107.1033950  83.9136209  40.3734629 106.0883821
  85.7259760  38.6520501  98.7873060  86.5606651  39.0910305  98.9510620
  85.8618889  38.1759154  97.9681305  82.7751266  36.2100236 104.7350547
  83.2505387  36.4027882 103.9269399  81.8516831  36.2659422 104.4893931
  69.6634772  37.3724403  94.3181626  69.4180814  36.4686733  94.5161836
  69.8330687  37.3741553  93.3761104  77.3531482  28.2448079 103.7006381
  77.8713426  28.9809106 103.3752870  76.9986615  28.5512073 104.5353140
  68.9330420  33.1052761  91.8167787  68.2399665  33.1797116  91.1607823
  68.6882172  32.3413104  92.3389304  77.6044076  24.6648362  99.2207278
  77.8845830  23.9971551  99.8467704  78.3894683  24.8577458  98.7081942
  75.4077545  43.8407356  90.7832304  74.8351512  44.4597543  90.3302776
  75.9810338  44.3906718  91.3172226  81.4752935  33.0865996 102.9678853
  82.4270358  33.1864094 102.9891077  81.3056385  32.2944264 103.4776937
  79.4967314  30.1721579 103.1538254  78.9017246  30.4526592 102.4584742
  79.2117011  30.6615480 103.9254995  78.6274805  44.1244506  91.9140886
  79.5605478  44.0590068  92.1173762  78.5398017  44.9600773  91.4555419
  81.2562821  43.4410376  88.8744834  81.1776453  43.1070240  89.7680592
  82.0772488  43.9332144  88.8736306  83.9541012  36.3072116 102.0821153
  83.9217333  35.3688116 102.2680836  84.5641636  36.3856152 101.3486977
  75.7924343  35.1768169  88.1248357  76.7383448  35.0474377  88.1936775
  75.4138588  34.4382830  88.6017785  84.1035501  33.0983159 102.1279436
  83.5874550  32.3141616 101.9409365  84.9875449  32.7701876 102.2925955
  81.7646228  26.8424175  98.0875248  81.5671049  26.5339263  98.9718580
  82.3745933  27.5685814  98.2173178  89.7717562  37.3688122 101.2227189
  90.5020951  37.1073411 101.7834893  89.1624508  36.6316844 101.2629257
  87.8532859  35.5095985 101.8201641  87.1266023  35.3751950 101.2118132
  87.4380146  35.8172814 102.6258359  75.6763036  39.2285915 109.5849014
  76.5966045  39.4064514 109.7789060  75.6412619  38.2841960 109.4328713
  73.9767260  33.1018145  88.0603242  73.0698716  32.8051258  88.1365955
  74.2543241  32.8047963  87.1937528  64.8945201  34.4224508  98.5102288
  64.5747985  33.5689817  98.2176662  64.3478629  34.6373087  99.2660256
  68.6725108  37.1386949 102.2271795  68.8911118  38.0704057 102.2459829
  69.0850882  36.7794924 103.0126599  75.5929326  27.6455035  94.2147483
  74.7830054  27.3002120  94.5902729  76.2813743  27.3362578  94.8035095
  77.5219874  26.7233081  95.8371780  78.0750913  27.1428535  96.4961803
  77.7589961  25.7968830  95.8794736  73.5452974  32.7120155 111.6174544
  73.4449701  33.6614512 111.5486635  73.3274516  32.3838394 110.7450614
  72.7466045  29.9605080  88.2015221  73.6085209  30.2859979  88.4611038
  72.9316389  29.1736576  87.6888287  64.7633461  38.0427420 100.4795410
  64.0696932  37.6281373  99.9665364  65.5106452  38.0847956  99.8828829
  80.8998682  28.8333607  95.3450444  80.3197351  29.4918411  94.9628496
  80.6334614  28.0110951  94.9337862  79.3502248  28.2338664  97.5471764
  79.8502026  28.3455199  96.7386083  79.9937856  27.9299717  98.1872573
  73.4084244  36.1417294 110.4339605  72.9251325  36.9417654 110.6403494
  73.4945183  36.1525239 109.4807049  66.6770203  37.9745674  98.3561425
  66.6540891  38.0733361  97.4043308  66.9870840  38.8210824  98.6778591
  69.3357581  40.0321829 102.4708039  70.2900835  40.0005771 102.4037971
  69.1370105  39.5712452 103.2858265  69.9256963  38.6022945 105.0378837
  70.7449852  39.0967023 105.0613674  70.1993771  37.6854913 105.0096404
  79.6823560  30.9933697  94.4006792  78.7949415  31.2783348  94.1826987
  80.0977549  30.8327460  93.5534069  83.0338096  31.0180218  98.1161132
  83.8098486  31.5076670  98.3885748  82.3086230  31.4438272  98.5733001
  85.4710654  31.7307837  99.1735072  86.0655145  31.4903573  98.4628380
  85.5437238  31.0114968  99.8008608  67.6907810  45.5741448  99.4878237
  67.5562278  44.8141849  98.9216235  67.2739872  46.2982348  99.0207026
  78.8266773  40.7578372  88.4954812  79.5302623  40.9628374  89.1112468
  78.1029422  41.3255134  88.7603896  79.6564583  36.5088233  94.6157082
  79.5999785  36.9656784  93.7764715  80.2092926  35.7478918  94.4379925
  83.4669389  32.2977965  95.4407202  83.2106323  31.8974600  96.2715410
  82.8422257  33.0121759  95.3157341  87.7781727  35.0374038  97.9478493
  87.2181285  35.1067227  98.7210055  87.1725230  34.8615023  97.2277990
  70.8476936  46.4710765  99.6996680  70.7309320  47.4156198  99.5975370
  70.0269382  46.1684327 100.0882479  80.7353470  41.1960901  90.5453272
  81.5699074  40.7642099  90.3630747  80.5737813  41.0242915  91.4730167
  80.3899363  37.6993014  91.9109612  80.3348166  37.5337286  90.9698056
  79.7645418  38.4069047  92.0671801  65.1791878  32.9361079 105.7371034
  65.8250741  32.4260033 106.2258259  64.9709029  33.6729760 106.3114459
  77.7045270  40.0041926 111.2363174  78.5736429  40.1782578 110.8749809
  77.2252021  40.8236343 111.1138904  73.6995488  27.2001123  91.4894930
  73.6874158  28.1442963  91.6463201  74.5918910  27.0171269  91.1954391
  71.8731450  47.1239027 102.9152608  72.7758697  47.1562637 103.2319103
  71.6468820  46.1939478 102.9298944  73.6285052  45.8770014  99.5762687
  72.6780683  45.8771875  99.4627059  73.9317538  45.1302748  99.0598721
  77.5147608  23.7943900  95.7440867  76.7480003  23.2402387  95.8897549
  77.9258313  23.8665769  96.6055018  69.5189369  30.0828696 109.8346048
  70.3820830  29.7265501 110.0449373  68.9454779  29.7442590 110.5221452
  89.3637746  51.7130552 100.6408449  90.0016155  51.5937299  99.9371789
  89.2458588  52.6611396 100.6996401  86.1727452  51.6657980 100.5769974
  85.8345963  51.5499045  99.6890509  87.0417220  51.2649145 100.5570980
  82.0314268  53.5193457  96.5666865  81.4679133  53.4283393  95.7983153
  81.9166663  52.6993361  97.0469357  86.6547235  52.8192832 106.5356179
  86.6435876  52.4245630 105.6636683  86.8167874  52.0858904 107.1289951
  79.5778699  55.0144648  99.4051085  80.3699991  54.6735473  98.9897385
  79.8175350  55.1239623 100.3253239  87.6113826  57.1864424  91.8781330
  86.9601806  57.7718505  91.4915343  88.4058189  57.7170619  91.9376367
  81.5369453  54.2753561  92.2768464  82.3100329  53.7282548  92.1381340
  81.8894852  55.1397811  92.4882925  83.3754496  55.6029944 105.4835363
  83.0844362  56.5075574 105.3682030  84.0111480  55.6446471 106.1979433
  84.3010703  52.9806792 102.0736723  84.8974275  52.7562815 101.3593686
  84.3585674  52.2391538 102.6762171  83.8735731  50.4346228  89.9086914
  84.1261252  49.9127749  89.1470377  82.9360290  50.2712373  90.0113598
  88.9179014  49.4382006  97.7161657  89.7042103  49.0201429  97.3652074
  89.1817718  50.3428098  97.8843306  89.0889091  54.8754856  92.4150314
  88.4534924  54.9489483  93.1271219  88.7586498  55.4648455  91.7369393
  94.3187441  49.3757239  98.6194636  95.0512613  48.8056456  98.8532465
  93.5626797  48.9878840  99.0601141  83.5932020  52.3374333  92.1111289
  83.4768278  51.6619237  92.7792373  83.7034280  51.8506707  91.2943442
  85.9363561  51.7984481  95.8157978  85.5721768  51.2715102  96.5270900
  86.7930677  51.4082950  95.6424464  91.8412861  43.0878813 103.0789244
  91.5096186  43.9574224 102.8550459  91.2458475  42.7715097 103.7583275
  85.5769048  46.8274380  90.8119327  85.7443450  47.6954617  91.1789798
  85.3866217  46.9901662  89.8880616  88.3344381  55.2891359 102.4785157
  88.0345104  56.1916398 102.3700964  87.9895441  55.0223542 103.3306310
  81.7856863  51.7405156  98.5121861  80.8607359  51.6081370  98.7199553
  82.0341276  52.5199375  99.0091804  91.7341525  47.8073899 100.1582594
  90.8258402  47.7389308  99.8641355  91.6829121  48.2845844 100.9864420
  85.5558269  49.2832038  91.7965993  85.4357894  49.7289089  92.6351474
  84.8610857  49.6317355  91.2379532  79.1465674  51.3838430  99.3465651
  79.2758055  51.6372908 100.2605062  78.4663125  51.9766138  99.0270306
  83.3165161  62.0535680  95.4456125  83.2389191  63.0043505  95.5244605
  82.7126804  61.7081552  96.1031051  85.8082391  49.2263545 108.1017492
  85.0315725  49.7857465 108.0920356  86.4472954  49.7120328 108.6232362
  93.6003171  46.0090338 101.9360468  92.9577551  46.3022871 101.2900263
  93.0958100  45.8943258 102.7413665  91.2543335  49.7553511  92.6246328
  92.1661191  49.9880898  92.4494025  90.7452982  50.3390555  92.0621406
  84.0628763  52.0348998 107.6635459  84.8043447  52.5734042 107.3870282
  83.3565748  52.6615287 107.8207010  89.5384103  54.1778139 106.2607620
  89.9467459  53.7360549 105.5162252  88.8161364  53.6030766 106.5141813
  85.8915173  49.1150746 103.6341177  86.7376368  49.5390159 103.7775826
  85.8313810  48.4584370 104.3279740  89.8612917  54.7379329 100.0159909
  89.2321780  54.9025044  99.3135977  89.4738579  55.1520939 100.7870873
  89.0414618  46.7755114 105.2922351  88.7975550  47.5297174 104.7556626
  89.3174548  47.1540461 106.1269598  90.9953081  53.3193726 103.9699616
  91.2069976  53.9625486 103.2933997  90.9482829  52.4856043 103.5021546
  88.5979310  45.9311547 100.8736188  87.7363789  46.2292800 101.1652926
  88.6241744  46.1481946  99.9417221  85.4140879  54.4753737  97.2809994
  85.8779225  54.7541440  96.4914617  85.1497677  53.5737182  97.0983085
  82.3064960  54.0225219 100.2189757  82.8766317  54.4512487  99.5807242
  82.8973072  53.7407804 100.9173943  84.3509765  50.5976890  94.0899559
  85.0533808  51.0497934  94.5573486  84.0190394  49.9560709  94.7179452
  82.7990127  49.1888646 108.4650769  82.1688787  49.8704927 108.6986165
  82.6926215  49.0771728 107.5203907  78.0935099  48.8560443  99.3916693
  77.3034153  49.1117971  98.9156803  78.5846346  49.6708780  99.4968733
  92.1098909  56.1965682 102.1421974  92.9316352  55.7945869 101.8604655
  92.1061312  56.0933916 103.0938089  80.0449844  49.2205022  96.3500169
  79.2481008  49.3323716  96.8683665  79.8175437  49.5591674  95.4841060
  85.8755512  55.7449725 104.2982684  85.9399945  56.2070132 105.1340856
  85.1666436  55.1147090 104.4264994  76.3772802  49.1090933 101.8231684
  76.6280840  49.9937943 102.0889260  76.9132350  48.9295534 101.0506775
 100.2004902  52.5404430  98.4906945  99.4468610  51.9711828  98.3350949
 100.3352443  52.5067095  99.4377580  85.5903530  57.4117832  94.1661664
  85.4549205  58.2569368  94.5946512  86.1313342  57.6137110  93.4027598
  82.0770869  43.4909412 110.8276020  81.6837815  42.9375611 111.5023664
  82.8937010  43.8019991 111.2182537  79.0432927  54.9293271  94.7389590
  79.5557448  55.7236521  94.8895154  79.6955640  54.2319561  94.6723191
  80.8527812  58.0459027  96.8212343  81.0294440  58.9676991  96.6333327
  81.6484645  57.7317446  97.2506722  84.9938830  44.9067291 108.4196276
  85.7348544  45.5074445 108.3400739  85.2256753  44.1644929 107.8614319
  80.1380168  50.0923659 106.6974506  80.0233684  49.1908916 106.9981605
  79.2824686  50.3387355 106.3459322  87.2172006  58.0341399 108.2962007
  86.7735860  57.2477778 107.9782911  87.8789220  58.2220549 107.6305897
  81.9759127  59.5637201 102.8222685  82.5266552  59.4354264 102.0499679
  81.1370603  59.8632090 102.4717578  89.3153244  58.3144199 106.3243408
  89.2971720  59.1353080 105.8323677  90.2373164  58.1898274 106.5493549
  85.7726298  55.8288328 107.1666916  86.3054635  55.0676617 106.9366224
  85.2440379  55.5361980 107.9091071  88.9395993  40.9348394 102.6960558
  88.5960263  41.8250036 102.6199668  89.3074956  40.7450052 101.8330143
  77.0081844  53.2581925  95.5149160  77.8457066  53.6678933  95.2982868
  77.1860112  52.3181367  95.4849354  88.9046276  50.9257005  91.2032993
  88.3892899  51.6961610  91.4421380  88.6323584  50.2522142  91.8266054
  86.4893387  45.7706706  96.2618231  85.6334983  45.3813557  96.0823870
  86.9020339  45.8498667  95.4018017  88.0192534  43.3053050 100.6609791
  87.5157329  43.2683185  99.8477596  88.3123141  44.2145792 100.7206448
  84.2635420  43.3891779  99.6675973  85.1288416  43.1934588  99.3081862
  84.3312928  43.1602131 100.5945330  88.6932579  48.7984098  93.0292774
  88.3882715  49.1130247  93.8802917  89.6463021  48.8765517  93.0720107
  87.1379011  54.9574321  94.6785728  86.6100373  54.2227080  94.3658966
  86.6366514  55.7348997  94.4325696  92.1171857  53.1523341  99.7952774
  91.4595532  53.8422603  99.8832903  92.9212256  53.5419773 100.1386761
  81.8697739  45.6193987  97.0392340  82.4441491  45.3969169  96.3065533
  82.4568721  45.6882682  97.7920941  90.9277316  51.5067714  97.8456716
  91.4409198  52.1397706  98.3478426  91.5778540  50.9068910  97.4800076
  82.1967326  47.6498448  91.0588225  81.3604638  47.9873135  91.3797500
  82.0572095  47.5147428  90.1215362  84.1720406  42.4935236  95.7667409
  83.5184819  42.1784253  95.1424024  84.1300881  41.8710977  96.4927232
  85.2831611  52.7754531  87.6820701  84.3758673  52.5443785  87.8811850
  85.7802643  51.9792150  87.8694683  87.4058147  48.9817170 100.0915057
  86.4880708  49.2032117  99.9336745  87.8218290  49.0563480  99.2326764
  88.1893194  50.3808585  95.2217737  88.9365013  50.8929982  94.9124859
  88.4584784  50.0592638  96.0822131  86.4619845  52.8767126  92.2044691
  85.5531064  52.5926159  92.3017161  86.4914928  53.2966205  91.3447998
  90.6372032  47.4165702  97.2036526  89.8994788  46.9043088  97.5346769
  90.8898805  46.9766083  96.3919803  90.7383659  40.1941954  97.7978296
  91.0442536  39.3339317  97.5104211  91.4636264  40.7859574  97.5977289
  77.0308015  50.5972640  96.1859893  76.8332415  50.0042001  95.4610960
  76.4754679  50.2924850  96.9035832  85.0104739  50.4895747  98.3054487
  85.0653348  49.5369583  98.2296963  84.1995941  50.6455186  98.7895785
  86.1595932  54.4175870  89.5432770  85.7215362  53.7011729  89.0838407
  86.9006373  54.6451984  88.9817861  82.9497099  49.1072806  96.0644866
  82.1364964  49.4066977  96.4710058  83.4456093  48.7128495  96.7819348
  85.1005677  59.1030563  97.9979130  85.0581855  59.3291410  97.0687662
  86.0168375  58.8693938  98.1464931  88.5471310  49.5714631 104.8959759
  88.9020698  49.7986104 105.7554225  89.1943442  49.9033008 104.2737015
  94.2769047  52.6933067  95.6009088  94.1386946  52.8834663  94.6730278
  93.9205266  53.4552450  96.0577140  82.4411173  46.6791162 101.6806100
  83.0810553  46.5379921 100.9829064  81.6088704  46.3925675 101.3044702
  94.3038427  54.7609594 100.6120360  94.7374934  54.6684883 101.4603414
  95.0170008  54.7367094  99.9740376  83.2171477  55.9793592  97.7941093
  84.0112076  55.4843912  97.5923668  82.5063170  55.4511455  97.4308798
  88.0366322  58.3611688 102.1453461  88.0903344  58.9302624 102.9131176
  87.1681103  58.5313573 101.7807498  79.5254241  50.1236674  93.8700846
  78.5951829  50.0621130  94.0870808  79.6211713  49.6012627  93.0737487
  79.4439790  46.6491487  96.4579087  79.7046607  47.5636820  96.3488248
  80.2656962  46.1815929  96.6075700  80.9164715  48.0629244 103.6277912
  81.5887769  47.8546606 102.9790561  80.0894502  47.8651330 103.1883144
  95.1653976  54.8033294 103.1453245  95.3589867  55.7079105 103.3912520
  95.0654595  54.3440713 103.9791830  86.8190287  44.6891185 105.6443573
  86.1718202  45.3881135 105.5508049  87.5891303  45.1227329 106.0119821
  90.2269085  54.9540037 108.7194126  90.0754592  54.7250589 107.8024210
  90.2173765  55.9110639 108.7325471  86.9954422  52.5271950 103.7040392
  87.9246482  52.6783109 103.5309360  86.5745452  52.6155971 102.8489039
  85.7942753  56.5522614 101.4738930  85.6553839  56.1841399 102.3464868
  85.0057350  57.0670254 101.3022888  86.3890905  61.6531711  92.8164467
  86.5642661  61.1819754  93.6310089  85.7023693  62.2797477  93.0445727
  87.3447968  55.9304217  98.8627768  87.0097801  55.8904987  99.7585418
  86.8451914  55.2648933  98.3898178  81.3192212  51.3371847 104.3880349
  81.1812010  50.6052086 104.9891888  82.2297136  51.2480747 104.1064537
  90.2807160  53.2760251  89.1364827  89.6636331  52.5507079  89.0397880
  89.8123649  54.0369612  88.7931902  83.9474513  51.0491806 103.8764029
  84.6574132  50.4084999 103.8350647  83.9043821  51.3004701 104.7990209
  91.9361292  57.9859160 106.7970608  91.8773838  57.3018380 106.1301191
  92.3380810  58.7278150 106.3451234  82.6603447  48.0357024 105.6959668
  82.1240804  47.5847763 106.3481264  82.0720155  48.1702933 104.9530132
  80.9551991  64.8021074  99.5904327  81.1948589  65.4339598 100.2683345
  80.1121187  64.4509114  99.8769686  82.0705706  47.4945676  88.2586132
  81.1935172  47.3734476  87.8948378  82.5463459  46.7031754  88.0065020
  91.9378699  55.9498744 105.0284587  91.0505478  55.6124665 105.1510986
  92.5077250  55.2181775 105.2653353  73.5907846  52.2822835  98.3527639
  74.2778886  51.9684565  97.7648654  73.4355975  53.1864200  98.0794890
  78.3942568  47.1713032 102.7812663  78.3100757  46.5638701 102.0463073
  77.5725275  47.6622050 102.7822159  85.4679852  60.6100196 101.9945831
  85.3950024  61.4155167 102.5065135  85.0257246  60.8092162 101.1693852
  85.2569632  59.8471966  95.5048652  84.4737154  60.3893646  95.5986877
  85.9562377  60.3645946  95.9042893  88.5666282  45.6566595  98.1482858
  89.0634982  44.9036558  97.8283928  87.7953264  45.6930912  97.5826067
  96.4196040  51.3606961  99.7901149  96.4085916  52.2431676  99.4195082
  95.5513419  51.0078512  99.5955686  87.9278536  60.5087030 104.1503989
  88.6406508  61.1434495 104.0779891  87.4368565  60.6050896 103.3343991
  89.6496063  54.4138283  95.7221281  88.7152342  54.5339745  95.5525985
  89.8272731  53.5110749  95.4581291  85.1501251  47.7983978  97.8754542
  84.7799038  47.2455019  98.5635448  85.6460343  47.1942112  97.3229542
  93.0368614  50.2555602  96.2571315  93.5029066  51.0883594  96.1831618
  93.4876115  49.7900584  96.9616574  82.9790449  58.2581473 104.9709560
  83.6799909  58.8917956 105.1238954  82.5085564  58.5996205 104.2105199
  91.0085277  42.6236189 100.2962216  90.0948357  42.8540416 100.4644423
  91.4378378  42.7074633 101.1476249  90.7791735  50.8126081 102.7962111
  90.1263186  51.0601988 102.1414563  91.1572115  49.9990219 102.4624588
  87.7398909  60.8485774  96.8990281  87.9221304  60.0307430  97.3618033
  88.5631895  61.0653466  96.4615171  88.0741075  59.7753959  94.1605329
  88.6028841  59.2646414  93.5475491  88.3369294  59.4596489  95.0250862
  86.8279308  51.5545892 109.2828148  86.1519945  51.4540021 109.9530523
  87.6506942  51.3985106 109.7464145  78.5758168  57.7917828 101.9040663
  79.1611604  57.0461516 102.0368567  78.3783006  58.1021785 102.7877327
  81.4296823  60.8269076  96.9203105  80.7607198  61.3115204  96.4367145
  81.2909692  61.0738296  97.8346484  73.1675822  50.3623429 100.6245106
  73.2059922  49.8287019 101.4182224  72.6616115  49.8358634 100.0056083
  85.5702091  62.8612819 103.5185764  86.1220399  63.0244441 104.2834849
  85.9108285  63.4517257 102.8465788  80.5466585  45.2087969 104.1207648
  80.6107911  46.0702800 103.7085046  80.4833705  44.5961971 103.3880007
  80.0218857  47.2811102 107.7680683  80.6490896  46.8988179 108.3818207
  79.1646776  47.0625304 108.1336375  90.4212966  57.6874077 109.3734418
  90.9652870  58.3004035 108.8789373  89.8399811  58.2453655 109.8901431
  76.7984400  49.0887531  93.6999037  77.0937841  48.1798209  93.6466091
  75.8972436  49.0675270  93.3780040  88.7070479  60.8094795 100.5049446
  88.5821618  60.0084535  99.9960391  89.3649570  61.3040988 100.0163416
  80.3278647  47.1643527  99.6826586  79.6065233  47.7779495  99.5434059
  81.1171903  47.7001292  99.6043232  90.7705387  58.6103815 102.1328996
  89.8235723  58.4909166 102.0607323  91.1188160  57.7226313 102.2155257
  83.1304960  44.4997954 105.9567238  83.6539362  44.7460250 106.7193547
  82.9117294  45.3317989 105.5370375  78.5272241  46.7701629  93.8238363
  78.1984948  45.8899007  93.6413468  78.8811612  46.7149297  94.7114752
  87.7751820  58.4056531  98.3333348  87.6276783  57.4773239  98.5140918
  88.6005314  58.4276622  97.8490423  81.6414065  47.0574598  94.1913840
  81.9810137  47.5860520  93.4692449  82.0886185  47.3955004  94.9672407
  91.3785942  59.2285090  99.4198221  92.3032490  59.0227951  99.2822672
  91.2101246  58.9801491 100.3287562  84.3357505  45.4411649 103.6416908
  83.9954326  44.6419462 104.0437588  83.6296512  45.7413360 103.0693741
  84.9873977  42.5260961 102.0944231  85.8100047  42.0521440 101.9723122
  85.2312041  43.3051445 102.5942918  83.6282212  45.5549220  92.3907133
  84.3490574  45.9330473  91.8870850  83.0047516  46.2738097  92.4942111
  87.7713335  46.2594369  93.3265465  87.9876949  47.1419007  93.0254293
  87.2907402  45.8680582  92.5971107  82.5112556  49.2180082  99.9036210
  82.3657137  49.5320385 100.7960491  82.0337760  49.8364982  99.3507109
  84.3708939  46.2082630  99.9517099  84.3570508  45.3123723  99.6149397
  85.0881367  46.2153294 100.5855386  86.2235070  46.6419970 101.9970227
  85.9652847  47.5637041 101.9954557  85.6920110  46.2450405 102.6870691
  76.9858218  51.7585426 102.8423871  76.4411686  52.5345234 102.9744145
  77.8637568  52.1056231 102.6842993  83.7745835  45.0897010  95.2204670
  83.8961746  44.1613657  95.4195557  83.4847877  45.1035696  94.3082985
  86.6437025  42.7751921  98.3571389  86.6658722  42.8391254  97.4023369
  87.0605084  41.9356429  98.5511896  97.0220650  52.5107180  96.3950612
  97.4651796  51.7614506  95.9969735  96.1447160  52.5017317  96.0124344
  77.7724240  50.8855323 105.7354028  77.0305976  51.0337958 106.3218658
  77.4516984  51.1463588 104.8720777  85.7167903  60.4271301 105.5334418
  86.0255029  60.1820448 106.4057118  86.5143385  60.6317939 105.0453288
  85.7388515  62.5809211  97.7639795  85.2993505  62.0885589  98.4572651
  86.4896632  62.0382178  97.5231870  78.2180854  58.7720751  97.7664423
  79.0438874  58.4724523  97.3863066  77.8674906  58.0028374  98.2154211
  83.1862387  58.1247220  99.8362096  82.5642396  57.4617925  99.5364324
  83.8567254  58.1508352  99.1535744  76.4189459  56.6907078  98.7253356
  75.5821367  56.2629252  98.5437357  76.3913104  56.8839521  99.6624147
  83.2586914  46.6029008 109.4294602  83.3075070  47.4791131 109.0472372
  83.8009429  46.0606401 108.8566245  93.7441760  57.1470131 108.7095739
  92.9537304  57.1294270 108.1700239  93.5075115  57.6858425 109.4644776
  93.8639635  53.9962597 106.0228468  93.9137640  53.8312605 106.9643991
  93.7553558  53.1289856 105.6326349  82.7475894  56.6751143  93.3120557
  82.8964014  57.3586607  92.6587229  83.5542337  56.6556233  93.8270012
  91.1543397  49.9793525 107.3387775  92.0553260  49.8399990 107.0471772
  91.2291372  50.1447980 108.2785952  85.4886203  47.3560380 106.1840961
  84.6189512  47.6493946 105.9123549  85.7245683  47.9400825 106.9048224
  95.3657832  56.4159539 106.2670489  95.0742640  56.7789519 107.1033950
  94.7529963  55.7026547 106.0883821  96.5653514  53.9812419  98.7873060
  97.4000406  54.4202223  98.9510620  96.7012643  53.5051072  97.9681305
  93.6145020  51.5392154 104.7350547  94.0899142  51.7319800 103.9269399
  92.6910586  51.5951339 104.4893931  80.5028527  52.7016321  94.3181626
  80.2574569  51.7978651  94.5161836  80.6724441  52.7033471  93.3761104
  88.1925237  43.5739997 103.7006381  88.7107180  44.3101024 103.3752870
  87.8380369  43.8803990 104.5353140  79.7724174  48.4344678  91.8167787
  79.0793419  48.5089033  91.1607823  79.5275926  47.6705022  92.3389304
  88.4437831  39.9940280  99.2207278  88.7239585  39.3263469  99.8467704
  89.2288438  40.1869375  98.7081942  86.2471299  59.1699273  90.7832304
  85.6745266  59.7889461  90.3302776  86.8204093  59.7198635  91.3172226
  92.3146689  48.4157914 102.9678853  93.2664112  48.5156011 102.9891077
  92.1450140  47.6236182 103.4776937  90.3361069  45.5013497 103.1538254
  89.7411001  45.7818510 102.4584742  90.0510765  45.9907398 103.9254995
  89.4668559  59.4536424  91.9140886  90.3999232  59.3881985  92.1173762
  89.3791772  60.2892690  91.4555419  94.7934767  51.6364033 102.0821153
  94.7611087  50.6980034 102.2680836  95.4035391  51.7148070 101.3486977
  86.6318098  50.5060086  88.1248357  87.5777203  50.3766294  88.1936775
  86.2532343  49.7674748  88.6017785  94.9429255  48.4275077 102.1279436
  94.4268304  47.6433533 101.9409365  95.8269204  48.0993793 102.2925955
  92.6039982  42.1716092  98.0875248  92.4064803  41.8631180  98.9718580
  93.2139688  42.8977731  98.2173178 100.6111317  52.6980040 101.2227189
 101.3414705  52.4365328 101.7834893 100.0018262  51.9608762 101.2629257
  98.6926614  50.8387903 101.8201641  97.9659777  50.7043868 101.2118132
  98.2773901  51.1464731 102.6258359  86.5156790  54.5577832 109.5849014
  87.4359800  54.7356431 109.7789060  86.4806373  53.6133878 109.4328713
  84.8161015  48.4310063  88.0603242  83.9092470  48.1343175  88.1365955
  85.0936996  48.1339881  87.1937528  75.7338955  49.7516426  98.5102288
  75.4141740  48.8981734  98.2176662  75.1872384  49.9665004  99.2660256
  79.5118863  52.4678867 102.2271795  79.7304873  53.3995975 102.2459829
  79.9244637  52.1086841 103.0126599  86.4323081  42.9746952  94.2147483
  85.6223809  42.6294037  94.5902729  87.1207498  42.6654496  94.8035095
  88.3613629  42.0524999  95.8371780  88.9144668  42.4720453  96.4961803
  88.5983715  41.1260747  95.8794736  84.3846728  48.0412073 111.6174544
  84.2843455  48.9906430 111.5486635  84.1668270  47.7130312 110.7450614
  83.5859800  45.2896998  88.2015221  84.4478964  45.6151896  88.4611038
  83.7710144  44.5028494  87.6888287  75.6027215  53.3719338 100.4795410
  74.9090687  52.9573290  99.9665364  76.3500206  53.4139874  99.8828829
  91.7392436  44.1625524  95.3450444  91.1591105  44.8210328  94.9628496
  91.4728369  43.3402869  94.9337862  90.1896002  43.5630582  97.5471764
  90.6895781  43.6747117  96.7386083  90.8331610  43.2591635  98.1872573
  84.2477998  51.4709212 110.4339605  83.7645080  52.2709572 110.6403494
  84.3338937  51.4817157 109.4807049  77.5163958  53.3037591  98.3561425
  77.4934646  53.4025279  97.4043308  77.8264594  54.1502742  98.6778591
  80.1751336  55.3613746 102.4708039  81.1294589  55.3297689 102.4037971
  79.9763859  54.9004370 103.2858265  80.7650718  53.9314862 105.0378837
  81.5843607  54.4258941 105.0613674  81.0387526  53.0146831 105.0096404
  90.5217314  46.3225615  94.4006792  89.6343169  46.6075265  94.1826987
  90.9371303  46.1619378  93.5534069  93.8731850  46.3472136  98.1161132
  94.6492240  46.8368588  98.3885748  93.1479984  46.7730190  98.5733001
  96.3104409  47.0599755  99.1735072  96.9048900  46.8195491  98.4628380
  96.3830993  46.3406885  99.8008608  78.5301565  60.9033366  99.4878237
  78.3956032  60.1433767  98.9216235  78.1133627  61.6274266  99.0207026
  89.6660528  56.0870289  88.4954812  90.3696378  56.2920292  89.1112468
  88.9423176  56.6547051  88.7603896  90.4958338  51.8380151  94.6157082
  90.4393539  52.2948702  93.7764715  91.0486680  51.0770835  94.4379925
  94.3063144  47.6269883  95.4407202  94.0500078  47.2266518  96.2715410
  93.6816012  48.3413676  95.3157341  98.6175482  50.3665956  97.9478493
  98.0575040  50.4359145  98.7210055  98.0118985  50.1906940  97.2277990
  81.6870690  61.8002683  99.6996680  81.5703075  62.7448115  99.5975370
  80.8663137  61.4976244 100.0882479  91.2293117  53.0284932  91.9109612
  91.1741921  52.8629203  90.9698056  90.6039172  53.7360965  92.0671801
  76.0185632  48.2652996 105.7371034  76.6644496  47.7551950 106.2258259
  75.8102783  49.0021678 106.3114459  88.5439024  55.3333844 111.2363174
  89.4130184  55.5074496 110.8749809  88.0645776  56.1528261 111.1138904
  84.5389243  42.5293041  91.4894930  84.5267912  43.4734881  91.6463201
  85.4312664  42.3463186  91.1954391  82.7125205  62.4530945 102.9152608
  83.6152451  62.4854555 103.2319103  82.4862575  61.5231396 102.9298944
  84.4678807  61.2061931  99.5762687  83.5174438  61.2063793  99.4627059
  84.7711293  60.4594666  99.0598721  88.3541362  39.1235818  95.7440867
  87.5873758  38.5694304  95.8897549  88.7652067  39.1957686  96.6055018
  80.3583123  45.4120613 109.8346048  81.2214585  45.0557418 110.0449373
  79.7848534  45.0734508 110.5221452 100.2031500  67.0422470 100.6408449
 100.8409910  66.9229217  99.9371789 100.0852343  67.9903314 100.6996401
  97.0121206  66.9949898 100.5769974  96.6739718  66.8790962  99.6890509
  97.8810974  66.5941063 100.5570980  97.4940989  68.1484750 106.5356179
  97.4829630  67.7537548 105.6636683  97.6561629  67.4150822 107.1289951
  90.4172454  70.3436566  99.4051085  91.2093746  70.0027390  98.9897385
  90.6569104  70.4531541 100.3253239  94.2148250  70.9321861 105.4835363
  93.9238116  71.8367492 105.3682030  94.8505235  70.9738389 106.1979433
  95.1404457  68.3098710 102.0736723  95.7368030  68.0854732 101.3593686
  95.1979429  67.5683455 102.6762171 105.1581196  64.7049157  98.6194636
 105.8906368  64.1348374  98.8532465 104.4020551  64.3170757  99.0601141
 102.6806616  58.4170731 103.0789244 102.3489941  59.2866142 102.8550459
 102.0852229  58.1007015 103.7583275  99.1738136  70.6183277 102.4785157
  98.8738859  71.5208316 102.3700964  98.8289195  70.3515460 103.3306310
  89.9859428  66.7130347  99.3465651  90.1151809  66.9664826 100.2605062
  89.3056879  67.3058055  99.0270306  94.1558915  77.3827597  95.4456125
  94.0782945  78.3335422  95.5244605  93.5520559  77.0373470  96.1031051
  96.6476145  64.5555463 108.1017492  95.8709479  65.1149383 108.0920356
  97.2866708  65.0412246 108.6232362 104.4396926  61.3382255 101.9360468
 103.7971306  61.6314789 101.2900263 103.9351854  61.2235176 102.7413665
  94.9022517  67.3640916 107.6635459  95.6437202  67.9025960 107.3870282
  94.1959503  67.9907205 107.8207010 100.3777857  69.5070056 106.2607620
 100.7861213  69.0652467 105.5162252  99.6555119  68.9322684 106.5141813
  96.7308927  64.4442663 103.6341177  97.5770122  64.8682077 103.7775826
  96.6707565  63.7876288 104.3279740 100.7006672  70.0671247 100.0159909
 100.0715534  70.2316961  99.3135977 100.3132334  70.4812857 100.7870873
 104.5795904  71.0025685  97.3704273 103.8946942  71.3824586  96.8201306
 104.6639753  71.6121012  98.1036220  99.8808372  62.1047032 105.2922351
  99.6369304  62.8589092 104.7556626 100.1568303  62.4832379 106.1269598
 101.8346835  68.6485644 103.9699616 102.0463730  69.2917404 103.2933997
 101.7876583  67.8147960 103.5021546  93.1458715  69.3517137 100.2189757
  93.7160072  69.7804405  99.5807242  93.7366826  69.0699721 100.9173943
  93.6383881  64.5180564 108.4650769  93.0082542  65.1996845 108.6986165
  93.5319969  64.4063646 107.5203907  88.9328854  64.1852360  99.3916693
  88.1427908  64.4409889  98.9156803  89.4240101  65.0000698  99.4968733
 102.9492663  71.5257599 102.1421974 103.7710107  71.1237787 101.8604655
 102.9455066  71.4225834 103.0938089  96.7149267  71.0741643 104.2982684
  96.7793699  71.5362050 105.1340856  96.0060190  70.4439008 104.4264994
  87.2166557  64.4382851 101.8231684  87.4674595  65.3229861 102.0889260
  87.7526105  64.2587452 101.0506775 111.0398656  67.8696348  98.4906945
 110.2862365  67.3003746  98.3350949 111.1746197  67.8359012  99.4377580
  92.9164624  58.8201330 110.8276020  92.5231569  58.2667529 111.5023664
  93.7330764  59.1311908 111.2182537  91.6921566  73.3750944  96.8212343
  91.8688195  74.2968909  96.6333327  92.4878400  73.0609364  97.2506722
  95.8332585  60.2359209 108.4196276  96.5742298  60.8366362 108.3400739
  96.0650508  59.4936847 107.8614319  90.9773923  65.4215576 106.6974506
  90.8627438  64.5200834 106.9981605  90.1218441  65.6679273 106.3459322
  92.8152882  74.8929118 102.8222685  93.3660307  74.7646182 102.0499679
  91.9764358  75.1924007 102.4717578 100.1546999  73.6436117 106.3243408
 100.1365474  74.4644998 105.8323677 101.0766919  73.5190192 106.5493549
  96.6120053  71.1580246 107.1666916  97.1448390  70.3968534 106.9366224
  96.0834134  70.8653898 107.9091071  99.7789748  56.2640312 102.6960558
  99.4354017  57.1541954 102.6199668 100.1468710  56.0741970 101.8330143
  87.8475598  68.5873842  95.5149160  88.6850820  68.9970851  95.2982868
  88.0253866  67.6473285  95.4849354  95.1029174  58.7183697  99.6675973
  95.9682171  58.5226506  99.3081862  95.1706683  58.4894049 100.5945330
 104.7174305  69.0081278  93.1386166 103.9403747  68.6692437  92.6941329
 105.3965786  69.0133901  92.4641132 102.9565612  68.4815259  99.7952774
 102.2989286  69.1714520  99.8832903 103.7606011  68.8711691 100.1386761
 101.7671070  66.8359632  97.8456716 102.2802952  67.4689624  98.3478426
 102.4172294  66.2360827  97.4800076  99.0293445  76.8143956  90.6017387
  98.3555143  77.1175653  91.2102345  99.4159267  77.6173036  90.2522844
 102.5332867  71.8165633  95.9735859 102.0795194  70.9756543  96.0301049
 101.9026833  72.4527032  96.3110639 100.9765806  73.6542130  96.9085677
 101.2688780  74.2147187  96.1898043 101.4864426  73.9470691  97.6638836
 101.5777413  55.5233871  97.7978296 101.8836290  54.6631235  97.5104211
 102.3030018  56.1151491  97.5977289  87.8701770  65.9264558  96.1859893
  87.6726169  65.3333919  95.4610960  87.3148434  65.6216768  96.9035832
  95.9399431  74.4322481  97.9979130  95.8975610  74.6583327  97.0687662
  96.8562130  74.1985856  98.1464931  99.3865065  64.9006548 104.8959759
  99.7414453  65.1278022 105.7554225 100.0337196  65.2324925 104.2737015
 105.1162802  68.0224984  95.6009088 104.9780700  68.2126580  94.6730278
 104.7599021  68.7844367  96.0577140  93.2804928  62.0083080 101.6806100
  93.9204307  61.8671839 100.9829064  92.4482458  61.7217593 101.3044702
 105.1432181  70.0901511 100.6120360 105.5768688  69.9976800 101.4603414
 105.8563762  70.0659012  99.9740376  94.0565232  71.3085510  97.7941093
  94.8505830  70.8135830  97.5923668  93.3456924  70.7803373  97.4308798
  98.8760076  73.6903606 102.1453461  98.9297099  74.2594542 102.9131176
  98.0074858  73.8605491 101.7807498  91.7558470  63.3921162 103.6277912
  92.4281523  63.1838524 102.9790561  90.9288256  63.1943248 103.1883144
 106.0047731  70.1325212 103.1453245 106.1983621  71.0371023 103.3912520
 105.9048349  69.6732631 103.9791830  97.6584042  60.0183103 105.6443573
  97.0111957  60.7173052 105.5508049  98.4285057  60.4519247 106.0119821
  97.8348176  67.8563868 103.7040392  98.7640236  68.0075027 103.5309360
  97.4139206  67.9447888 102.8489039  96.6336508  71.8814532 101.4738930
  96.4947593  71.5133316 102.3464868  95.8451104  72.3962171 101.3022888
  97.2284660  76.9823628  92.8164467  97.4036415  76.5111672  93.6310089
  96.5417448  77.6089395  93.0445727  98.1841723  71.2596135  98.8627768
  97.8491556  71.2196905  99.7585418  97.6845669  70.5940851  98.3898178
  92.1585967  66.6663765 104.3880349  92.0205765  65.9344004 104.9891888
  93.0690890  66.5772665 104.1064537  94.7868268  66.3783724 103.8764029
  95.4967886  65.7376916 103.8350647  94.7437576  66.6296619 104.7990209
  93.4997202  63.3648942 105.6959668  92.9634559  62.9139680 106.3481264
  92.9113910  63.4994851 104.9530132  91.7945745  80.1312991  99.5904327
  92.0342343  80.7631515 100.2683345  90.9514942  79.7801031  99.8769686
 102.7772454  71.2790661 105.0284587 101.8899232  70.9416583 105.1510986
 103.3471005  70.5473693 105.2653353  84.4301601  67.6114753  98.3527639
  85.1172640  67.2976483  97.7648654  84.2749729  68.5156118  98.0794890
  89.2336323  62.5004950 102.7812663  89.1494512  61.8930619 102.0463073
  88.4119029  62.9913968 102.7822159  96.3073607  75.9392114 101.9945831
  96.2343778  76.7447085 102.5065135  95.8651000  76.1384079 101.1693852
  96.0963387  75.1763884  95.5048652  95.3130908  75.7185564  95.5986877
  96.7956132  75.6937863  95.9042893 107.2589794  66.6898879  99.7901149
 107.2479670  67.5723594  99.4195082 106.3907173  66.3370429  99.5955686
  98.7672290  75.8378948 104.1503989  99.4800263  76.4726412 104.0779891
  98.2762319  75.9342814 103.3343991 103.8762369  65.5847520  96.2571315
 104.3422821  66.4175511  96.1831618 104.3269869  65.1192501  96.9616574
  93.8184204  73.5873391 104.9709560  94.5193663  74.2209874 105.1238954
  93.3479319  73.9288123 104.2105199 101.9438600  71.9291341  93.2557467
 102.2198444  71.8147935  94.1651341 101.0743099  71.5308826  93.2169640
 101.8479031  57.9528107 100.2962216 100.9342111  58.1832333 100.4644423
 102.2772133  58.0366551 101.1476249 101.6185490  66.1417999 102.7962111
 100.9656940  66.3893906 102.1414563 101.9965870  65.3282137 102.4624588
  98.5792664  76.1777692  96.8990281  98.7615058  75.3599348  97.3618033
  99.4025650  76.3945384  96.4615171  98.9134829  75.1045877  94.1605329
  99.4422596  74.5938331  93.5475491  99.1763049  74.7888407  95.0250862
  97.6673063  66.8837810 109.2828148  96.9913700  66.7831939 109.9530523
  98.4900697  66.7277023 109.7464145  89.4151922  73.1209746 101.9040663
  90.0005359  72.3753434 102.0368567  89.2176760  73.4313703 102.7877327
  92.2690577  76.1560994  96.9203105  91.6000953  76.6407121  96.4367145
  92.1303447  76.4030214  97.8346484  84.0069577  65.6915346 100.6245106
  84.0453676  65.1578937 101.4182224  83.5009870  65.1650552 100.0056083
  96.4095846  78.1904737 103.5185764  96.9614154  78.3536359 104.2834849
  96.7502039  78.7809175 102.8465788  91.3860339  60.5379887 104.1207648
  91.4501666  61.3994718 103.7085046  91.3227459  59.9253889 103.3880007
  90.8612612  62.6103019 107.7680683  91.4884650  62.2280097 108.3818207
  90.0040530  62.3917221 108.1336375  99.5464233  76.1386713 100.5049446
  99.4215373  75.3376452  99.9960391 100.2043324  76.6332906 100.0163416
  91.1672401  62.4935445  99.6826586  90.4458987  63.1071413  99.5434059
  91.9565657  63.0293210  99.6043232 101.6099141  73.9395733 102.1328996
 100.6629477  73.8201084 102.0607323 101.9581915  73.0518231 102.2155257
  93.9698715  59.8289872 105.9567238  94.4933117  60.0752168 106.7193547
  93.7511048  60.6609906 105.5370375  98.6145575  73.7348449  98.3333348
  98.4670537  72.8065156  98.5140918  99.4399068  73.7568540  97.8490423
 102.2179697  74.5577008  99.4198221 103.1426244  74.3519869  99.2822672
 102.0495000  74.3093409 100.3287562  95.1751260  60.7703567 103.6416908
  94.8348080  59.9711380 104.0437588  94.4690266  61.0705278 103.0693741
  95.8267732  57.8552879 102.0944231  96.6493801  57.3813357 101.9723122
  96.0705795  58.6343363 102.5942918  93.3506310  64.5472000  99.9036210
  93.2050891  64.8612303 100.7960491  92.8731514  65.1656900  99.3507109
  95.2102693  61.5374548  99.9517099  95.1964262  60.6415641  99.6149397
  95.9275121  61.5445212 100.5855386  97.0628824  61.9711888 101.9970227
  96.8046602  62.8928959 101.9954557  96.5313864  61.5742323 102.6870691
 102.0075013  75.0762675  94.7760312 102.1811890  74.5109098  94.0234165
 102.5003904  75.8763570  94.5939802  87.8251973  67.0877344 102.8423871
  87.2805441  67.8637152 102.9744145  88.7031323  67.4348149 102.6842993
 107.8614404  67.8399098  96.3950612 108.3045550  67.0906423  95.9969735
 106.9840914  67.8309234  96.0124344 102.9950185  74.3929440  91.8757211
 103.6901090  75.0136132  92.0944525 103.3373335  73.5424791  92.1509588
  88.6117995  66.2147240 105.7354028  87.8699731  66.3629876 106.3218658
  88.2910739  66.4755506 104.8720777 104.8941608  71.8429145  93.4044541
 105.4192933  72.1816418  92.6793861 104.8063961  70.9076160  93.2207676
  96.5561657  75.7563219 105.5334418  96.8648784  75.5112365 106.4057118
  97.3537139  75.9609857 105.0453288  96.5782269  77.9101128  97.7639795
  96.1387259  77.4177507  98.4572651  97.3290386  77.3674096  97.5231870
  89.0574608  74.1012669  97.7664423  89.8832628  73.8016441  97.3863066
  88.7068660  73.3320292  98.2154211  94.0256141  73.4539137  99.8362096
  93.4036151  72.7909842  99.5364324  94.6961008  73.4800269  99.1535744
  87.2583213  72.0198996  98.7253356  86.4215122  71.5921170  98.5437357
  87.2306859  72.2131439  99.6624147  94.0980669  61.9320925 109.4294602
  94.1468824  62.8083048 109.0472372  94.6403183  61.3898318 108.8566245
 104.7033390  69.3254515 106.0228468 104.7531394  69.1604522 106.9643991
 104.5947313  68.4581774 105.6326349  93.5869648  72.0043061  93.3120557
  93.7357769  72.6878525  92.6587229  94.3936092  71.9848151  93.8270012
 101.9937152  65.3085443 107.3387775 102.8947015  65.1691908 107.0471772
 102.0685126  65.4739898 108.2785952  96.3279957  62.6852298 106.1840961
  95.4583267  62.9785864 105.9123549  96.5639438  63.2692743 106.9048224
 107.4047269  69.3104336  98.7873060 108.2394160  69.7494140  98.9510620
 107.5406398  68.8342990  97.9681305 104.4538775  66.8684071 104.7350547
 104.9292896  67.0611717 103.9269399 103.5304340  66.9243257 104.4893931
  99.0318991  58.9031915 103.7006381  99.5500935  59.6392942 103.3752870
  98.6774124  59.2095908 104.5353140  99.2831585  55.3232197  99.2207278
  99.5633339  54.6555386  99.8467704 100.0682192  55.5161293  98.7081942
  97.0865054  74.4991191  90.7832304  96.5139021  75.1181378  90.3302776
  97.6597847  75.0490553  91.3172226 103.1540444  63.7449831 102.9678853
 104.1057867  63.8447929 102.9891077 102.9843894  62.9528100 103.4776937
 101.1754823  60.8305414 103.1538254 100.5804755  61.1110427 102.4584742
 100.8904520  61.3199315 103.9254995 100.3062314  74.7828341  91.9140886
 101.2392987  74.7173903  92.1173762 100.2185526  75.6184608  91.4555419
 102.9350330  74.0994212  88.8744834 102.8563962  73.7654075  89.7680592
 103.7559997  74.5915980  88.8736306 105.6328521  66.9655951 102.0821153
 105.6004842  66.0271952 102.2680836 106.2429145  67.0439988 101.3486977
 105.7823010  63.7566994 102.1279436 105.2662059  62.9725451 101.9409365
 106.6662958  63.4285711 102.2925955 103.4433737  57.5008010  98.0875248
 103.2458558  57.1923098  98.9718580 104.0533442  58.2269649  98.2173178
 111.4505071  68.0271958 101.2227189 112.1808460  67.7657246 101.7834893
 110.8412017  67.2900680 101.2629257 109.5320368  66.1679820 101.8201641
 108.8053532  66.0335785 101.2118132 109.1167655  66.4756649 102.6258359
  86.5732710  65.0808344  98.5102288  86.2535494  64.2273652  98.2176662
  86.0266138  65.2956922  99.2660256  90.3512617  67.7970785 102.2271795
  90.5698627  68.7287893 102.2459829  90.7638391  67.4378759 103.0126599
  99.2007383  57.3816917  95.8371780  99.7538422  57.8012370  96.4961803
  99.4377470  56.4552665  95.8794736  95.2240483  63.3703990 111.6174544
  95.1237210  64.3198347 111.5486635  95.0062025  63.0422229 110.7450614
  86.4420970  68.7011255 100.4795410  85.7484441  68.2865208  99.9665364
  87.1893961  68.7431792  99.8828829  95.0871753  66.8001129 110.4339605
  94.6038834  67.6001489 110.6403494  95.1732692  66.8109074 109.4807049
  88.3557712  68.6329509  98.3561425  88.3328400  68.7317196  97.4043308
  88.6658349  69.4794660  98.6778591  91.0145090  70.6905664 102.4708039
  91.9688344  70.6589606 102.4037971  90.8157614  70.2296288 103.2858265
  91.6044472  69.2606780 105.0378837  92.4237361  69.7550859 105.0613674
  91.8781280  68.3438748 105.0096404 104.7125605  61.6764053  98.1161132
 105.4885995  62.1660506  98.3885748 103.9873739  62.1022108  98.5733001
 107.1498163  62.3891673  99.1735072 107.7442654  62.1487409  98.4628380
 107.2224747  61.6698803  99.8008608  89.3695319  76.2325284  99.4878237
  89.2349787  75.4725684  98.9216235  88.9527381  76.9566183  99.0207026
 100.5054282  71.4162207  88.4954812 101.2090132  71.6212210  89.1112468
  99.7816931  71.9838969  88.7603896 105.1456898  62.9561800  95.4407202
 104.8893832  62.5558436  96.2715410 104.5209766  63.6705594  95.3157341
 109.4569236  65.6957873  97.9478493 108.8968794  65.7651063  98.7210055
 108.8512739  65.5198858  97.2277990  92.5264445  77.1294601  99.6996680
  92.4096829  78.0740033  99.5975370  91.7056891  76.8268162 100.0882479
 102.4140979  71.8544736  90.5453272 103.2486583  71.4225935  90.3630747
 102.2525322  71.6826750  91.4730167  86.8579387  63.5944914 105.7371034
  87.5038250  63.0843868 106.2258259  86.6496538  64.3313596 106.3114459
  93.5518959  77.7822862 102.9152608  94.4546206  77.8146473 103.2319103
  93.3256329  76.8523313 102.9298944  95.3072561  76.5353849  99.5762687
  94.3568192  76.5355711  99.4627059  95.6105047  75.7886584  99.0598721
  99.1935117  54.4527735  95.7440867  98.4267512  53.8986222  95.8897549
  99.6045821  54.5249604  96.6055018  91.1976878  60.7412531 109.8346048
  92.0608339  60.3849336 110.0449373  90.6242288  60.4026426 110.5221452
 103.7101776  84.1777292  96.5666865 103.1466642  84.0867229  95.7983153
 103.5954172  83.3577196  97.0469357 109.2901335  87.8448260  91.8781330
 108.6389315  88.4302340  91.4915343 110.0845698  88.3754454  91.9376367
 103.2156962  84.9337397  92.2768464 103.9887838  84.3866384  92.1381340
 103.5682361  85.7981646  92.4882925 105.5523240  81.0930063  89.9086914
 105.8048761  80.5711584  89.1470377 104.6147799  80.9296208  90.0113598
 110.5966523  80.0965841  97.7161657 111.3829612  79.6785264  97.3652074
 110.8605227  81.0011933  97.8843306 110.7676600  85.5338692  92.4150314
 110.1322433  85.6073318  93.1271219 110.4374007  86.1232290  91.7369393
 105.2719529  82.9958169  92.1111289 105.1555787  82.3203072  92.7792373
 105.3821789  82.5090543  91.2943442 107.6151070  82.4568316  95.8157978
 107.2509277  81.9298937  96.5270900 108.4718186  82.0666785  95.6424464
 107.2556557  77.4858216  90.8119327 107.4230959  78.3538452  91.1789798
 107.0653726  77.6485497  89.8880616 103.4644371  82.3988991  98.5121861
 102.5394868  82.2665205  98.7199553 103.7128785  83.1783211  99.0091804
 107.2345778  79.9415873  91.7965993 107.1145403  80.3872924  92.6351474
 106.5398366  80.2901191  91.2379532 100.8253183  82.0422265  99.3465651
 100.9545564  82.2956744 100.2605062 100.1450634  82.6349973  99.0270306
 112.9330844  80.4137346  92.6246328 113.8448700  80.6464733  92.4494025
 112.4240491  80.9974390  92.0621406 110.2766819  76.5895382 100.8736188
 109.4151298  76.8876636 101.1652926 110.3029253  76.8065781  99.9417221
 107.0928388  85.1337573  97.2809994 107.5566734  85.4125276  96.4914617
 106.8285186  84.2321017  97.0983085 106.0297274  81.2560725  94.0899559
 106.7321317  81.7081769  94.5573486 105.6977903  80.6144544  94.7179452
  99.7722608  79.5144278  99.3916693  98.9821662  79.7701806  98.9156803
 100.2633855  80.3292616  99.4968733 101.7237353  79.8788857  96.3500169
 100.9268517  79.9907551  96.8683665 101.4962946  80.2175509  95.4841060
  98.0560311  79.7674768 101.8231684  98.3068349  80.6521778 102.0889260
  98.5919859  79.5879370 101.0506775 107.2691039  88.0701668  94.1661664
 107.1336714  88.9153204  94.5946512 107.8100851  88.2720945  93.4027598
 100.7220436  85.5877106  94.7389590 101.2344957  86.3820356  94.8895154
 101.3743149  84.8903396  94.6723191 110.6183502  71.5932230 102.6960558
 110.2747772  72.4833871 102.6199668 110.9862465  71.4033887 101.8330143
  98.6869353  83.9165760  95.5149160  99.5244575  84.3262769  95.2982868
  98.8647621  82.9765202  95.4849354 110.5833785  81.5840841  91.2032993
 110.0680408  82.3545445  91.4421380 110.3111093  80.9105977  91.8266054
 108.1680896  76.4290542  96.2618231 107.3122492  76.0397392  96.0823870
 108.5807848  76.5082502  95.4018017 109.6980043  73.9636885 100.6609791
 109.1944838  73.9267020  99.8477596 109.9910650  74.8729628 100.7206448
 105.9422929  74.0475615  99.6675973 106.8075925  73.8518423  99.3081862
 106.0100437  73.8185966 100.5945330 115.5568059  84.3373195  93.1386166
 114.7797502  83.9984355  92.6941329 116.2359540  84.3425819  92.4641132
 110.3720088  79.4567933  93.0292774 110.0670224  79.7714082  93.8802917
 111.3250530  79.5349353  93.0720107 108.8166520  85.6158156  94.6785728
 108.2887882  84.8810916  94.3658966 108.3154023  86.3932833  94.4325696
 103.5485248  76.2777823  97.0392340 104.1229000  76.0553004  96.3065533
 104.1356230  76.3466517  97.7920941 103.8754835  78.3082284  91.0588225
 103.0392147  78.6456970  91.3797500 103.7359604  78.1731263  90.1215362
 105.8507915  73.1519071  95.7667409 105.1972328  72.8368089  95.1424024
 105.8088389  72.5294812  96.4927232 106.9619120  83.4338366  87.6820701
 106.0546182  83.2027620  87.8811850 107.4590152  82.6375986  87.8694683
 109.8687199  92.1435874  90.6017387 109.1948898  92.4467570  91.2102345
 110.2553021  92.9464954  90.2522844 109.8680703  81.0392421  95.2217737
 110.6152522  81.5513818  94.9124859 110.1372293  80.7176473  96.0822131
 108.1407354  83.5350961  92.2044691 107.2318573  83.2509994  92.3017161
 108.1702437  83.9550040  91.3447998 112.3159541  78.0749537  97.2036526
 111.5782297  77.5626923  97.5346769 112.5686314  77.6349918  96.3919803
 112.4171168  70.8525789  97.7978296 112.7230045  69.9923152  97.5104211
 113.1423773  71.4443409  97.5977289  98.7095524  81.2556475  96.1859893
  98.5119924  80.6625836  95.4610960  98.1542188  80.9508686  96.9035832
 106.6892248  81.1479582  98.3054487 106.7440857  80.1953418  98.2296963
 105.8783450  81.3039021  98.7895785 107.8383441  85.0759705  89.5432770
 107.4002871  84.3595564  89.0838407 108.5793882  85.3035820  88.9817861
 104.6284608  79.7656642  96.0644866 103.8152473  80.0650812  96.4710058
 105.1243602  79.3712330  96.7819348 104.1198682  77.3374997 101.6806100
 104.7598062  77.1963756 100.9829064 103.2876213  77.0509511 101.3044702
 101.2041750  80.7820509  93.8700846 100.2739338  80.7204965  94.0870808
 101.2999222  80.2596462  93.0737487 101.1227299  77.3075322  96.4579087
 101.3834116  78.2220655  96.3488248 101.9444471  76.8399765  96.6075700
 111.9594669  83.9344087  89.1364827 111.3423840  83.2090915  89.0397880
 111.4911158  84.6953447  88.7931902 103.7493215  78.1529511  88.2586132
 102.8722681  78.0318312  87.8948378 104.2250968  77.3615589  88.0065020
  95.2695355  82.9406671  98.3527639  95.9566395  82.6268401  97.7648654
  95.1143484  83.8448035  98.0794890 100.0730077  77.8296867 102.7812663
  99.9888266  77.2222537 102.0463073  99.2512784  78.3205886 102.7822159
 110.2453791  76.3150431  98.1482858 110.7422491  75.5620393  97.8283928
 109.4740773  76.3514747  97.5826067 106.8288760  78.4567814  97.8754542
 106.4586547  77.9038854  98.5635448 107.3247852  77.8525947  97.3229542
 112.6872786  73.2820024 100.2962216 111.7735866  73.5124251 100.4644423
 113.1165887  73.3658468 101.1476249  94.8463331  81.0207264 100.6245106
  94.8847431  80.4870855 101.4182224  94.3403624  80.4942470 100.0056083
 102.2254094  75.8671805 104.1207648 102.2895420  76.7286635 103.7085046
 102.1621214  75.2545806 103.3880007  98.4771909  79.7471366  93.6999037
  98.7725350  78.8382045  93.6466091  97.5759945  79.7259106  93.3780040
 102.0066156  77.8227363  99.6826586 101.2852742  78.4363330  99.5434059
 102.7959412  78.3585128  99.6043232 100.2059750  77.4285464  93.8238363
  99.8772457  76.5482843  93.6413468 100.5599121  77.3733133  94.7114752
 103.3201574  77.7158434  94.1913840 103.6597646  78.2444355  93.4692449
 103.7673694  78.0538840  94.9672407 106.6661486  73.1844797 102.0944231
 107.4887556  72.7105275 101.9723122 106.9099550  73.9635281 102.5942918
 105.3069721  76.2133055  92.3907133 106.0278083  76.5914308  91.8870850
 104.6835025  76.9321932  92.4942111 109.4500844  76.9178204  93.3265465
 109.6664458  77.8002842  93.0254293 108.9694911  76.5264418  92.5971107
 104.1900065  79.8763917  99.9036210 104.0444646  80.1904221 100.7960491
 103.7125269  80.4948818  99.3507109 106.0496448  76.8666465  99.9517099
 106.0358017  75.9707559  99.6149397 106.7668876  76.8737129 100.5855386
 105.4533344  75.7480846  95.2204670 105.5749255  74.8197492  95.4195557
 105.1635386  75.7619532  94.3082985 108.3224534  73.4335756  98.3571389
 108.3446231  73.4975089  97.4023369 108.7392593  72.5940265  98.5511896
  99.8968363  89.4304587  97.7664423 100.7226383  89.1308359  97.3863066
  99.5462415  88.6612209  98.2154211  98.0976968  87.3490913  98.7253356
  97.2608876  86.9213088  98.5437357  98.0700613  87.5423357  99.6624147
 104.4263403  87.3334978  93.3120557 104.5751523  88.0170443  92.6587229
 105.2329846  87.3140068  93.8270012 102.1816036  83.3600156  94.3181626
 101.9362078  82.4562486  94.5161836 102.3511950  83.3617306  93.3761104
 101.4511683  79.0928514  91.8167787 100.7580928  79.1672869  91.1607823
 101.2063435  78.3288857  92.3389304 110.1225340  70.6524115  99.2207278
 110.4027094  69.9847304  99.8467704 110.9075947  70.8453211  98.7081942
 107.9258808  89.8283109  90.7832304 107.3532775  90.4473296  90.3302776
 108.4991602  90.3782471  91.3172226 111.1456068  90.1120259  91.9140886
 112.0786741  90.0465821  92.1173762 111.0579281  90.9476526  91.4555419
 113.7744085  89.4286129  88.8744834 113.6957716  89.0945993  89.7680592
 114.5953752  89.9207897  88.8736306 108.3105607  81.1643922  88.1248357
 109.2564711  81.0350130  88.1936775 107.9319852  80.4258584  88.6017785
 114.2827491  72.8299928  98.0875248 114.0852312  72.5215016  98.9718580
 114.8927197  73.5561567  98.2173178 106.4948524  79.0893898  88.0603242
 105.5879979  78.7927011  88.1365955 106.7724505  78.7923716  87.1937528
  97.4126464  80.4100261  98.5102288  97.0929249  79.5565570  98.2176662
  96.8659892  80.6248840  99.2660256 108.1110590  73.6330788  94.2147483
 107.3011318  73.2877873  94.5902729 108.7995007  73.3238331  94.8035095
 110.0401138  72.7108835  95.8371780 110.5932177  73.1304288  96.4961803
 110.2771224  71.7844583  95.8794736 105.2647309  75.9480833  88.2015221
 106.1266473  76.2735732  88.4611038 105.4497653  75.1612329  87.6888287
  97.2814724  84.0303173 100.4795410  96.5878196  83.6157126  99.9665364
  98.0287715  84.0723709  99.8828829 113.4179945  74.8209360  95.3450444
 112.8378614  75.4794164  94.9628496 113.1515878  73.9986704  94.9337862
 111.8683511  74.2214417  97.5471764 112.3683290  74.3330952  96.7386083
 112.5119119  73.9175470  98.1872573  99.1951467  83.9621427  98.3561425
  99.1722155  84.0609114  97.4043308  99.5052103  84.8086577  98.6778591
 112.2004823  76.9809450  94.4006792 111.3130678  77.2659101  94.1826987
 112.6158812  76.8203213  93.5534069 111.3448037  86.7454125  88.4954812
 112.0483887  86.9504127  89.1112468 110.6210685  87.3130887  88.7603896
 112.1745847  82.4963986  94.6157082 112.1181048  82.9532537  93.7764715
 112.7274189  81.7354671  94.4379925 115.9850653  78.2853718  95.4407202
 115.7287587  77.8850354  96.2715410 115.3603521  78.9997512  95.3157341
 113.2534734  87.1836654  90.5453272 114.0880338  86.7517852  90.3630747
 113.0919077  87.0118668  91.4730167 112.9080626  83.6868767  91.9109612
 112.8529430  83.5213039  90.9698056 112.2826681  84.3944800  92.0671801
 106.2176752  73.1876876  91.4894930 106.2055421  74.1318716  91.6463201
 107.1100173  73.0047022  91.1954391 110.0328871  69.7819653  95.7440867
 109.2661267  69.2278140  95.8897549 110.4439576  69.8541522  96.6055018
 114.5886969  93.4821429  88.2586132 113.7116436  93.3610229  87.8948378
 115.0644723  92.6907507  88.0065020 116.1041063  91.2772751  88.2015221
 116.9660227  91.6027649  88.4611038 116.2891407  90.4904247  87.6888287
  48.4370728  -4.1792557  86.3149633  48.6767327  -3.5474033  86.9928652
  47.5939925  -4.5304517  86.6014993  60.3526760  -0.1328256  83.2912171
  59.7891625  -0.2238319  82.5228459  60.2379155  -0.9528352  83.7714664
  57.8991192   1.3622935  86.1296392  58.6912484   1.0213760  85.7142691
  58.1387842   1.4717910  87.0498545  65.9326319   3.5342711  78.6026636
  65.2814298   4.1196792  78.2160650  66.7270681   4.0648906  78.6621674
  59.8581946   0.6231849  79.0013771  60.6312822   0.0760836  78.8626646
  60.2107345   1.4876098  79.2128232  61.6966988   1.9508231  92.2080670
  61.4056854   2.8553862  92.0927336  62.3323973   1.9924759  92.9224740
  62.6223195  -0.6714921  88.7982030  63.2186767  -0.8958898  88.0838993
  62.6798167  -1.4130175  89.4007477  67.4101584   1.2233143  79.1395621
  66.7747417   1.2967770  79.8516525  67.0798990   1.8126742  78.4614700
  61.9144512  -1.3147379  78.8356596  61.7980770  -1.9902476  79.5037680
  62.0246772  -1.8015005  78.0188749  66.6556873   1.6369646  89.2030464
  66.3557596   2.5394685  89.0946271  66.3107933   1.3701830  90.0551617
  60.1069355  -1.9116557  85.2367168  59.1819851  -2.0440343  85.4444860
  60.3553768  -1.1322338  85.7337110  57.4678166  -2.2683283  86.0710957
  57.5970547  -2.0148804  86.9850369  56.7875617  -1.6755575  85.7515612
  61.6377653   8.4013967  82.1701431  61.5601683   9.3521792  82.2489912
  61.0339297   8.0559839  82.8276358  62.3841255  -1.6172714  94.3880765
  63.1255940  -1.0787670  94.1115589  61.6778241  -0.9906426  94.5452317
  68.1825409   1.0857617  86.7405216  67.5534272   1.2503331  86.0381283
  67.7951072   1.4999226  87.5116180  72.0614641   2.0212054  84.0949579
  71.3765680   2.4010956  83.5446613  72.1458491   2.6307381  84.8281527
  63.7353371   0.8232025  84.0055301  64.1991717   1.1019728  83.2159923
  63.4710169  -0.0784531  83.8228391  60.6277452   0.3703506  86.9435064
  61.1978809   0.7990775  86.3052548  61.2185564   0.0886091  87.6419250
  70.4311401   2.5443969  88.8667280  71.2528845   2.1424156  88.5849962
  70.4273804   2.4412203  89.8183396  64.1968004   2.0928012  91.0227991
  64.2612437   2.5548419  91.8586163  63.4878928   1.4625377  91.1510301
  63.9116022   3.7596120  80.8906971  63.7761697   4.6047655  81.3191819
  64.4525835   3.9615397  80.1272905  57.3645419   1.2771558  81.4634896
  57.8769940   2.0714808  81.6140461  58.0168132   0.5797848  81.3968498
  59.1740304   4.3937314  83.5457649  59.3506932   5.3155279  83.3578633
  59.9697138   4.0795733  83.9752029  65.5384498   4.3819686  95.0207313
  65.0948353   3.5956065  94.7028218  66.2001712   4.5698837  94.3551204
  60.2971620   5.9115488  89.5467992  60.8479045   5.7832551  88.7744986
  59.4583095   6.2110377  89.1962884  67.6365736   4.6622486  93.0488714
  67.6184212   5.4831367  92.5568984  68.5585657   4.5376561  93.2738856
  64.0938791   2.1766616  93.8912223  64.6267127   1.4154904  93.6611531
  63.5652872   1.8840267  94.6336377  55.3294336  -0.3939788  82.2394467
  56.1669558   0.0157220  82.0228174  55.5072604  -1.3340346  82.2094661
  65.4591503   1.3052608  81.4031035  64.9312865   0.5705368  81.0904272
  64.9579006   2.0827284  81.1571003  66.5112182   7.8330326  77.3262694
  65.8373881   8.1362022  77.9347652  66.8978004   8.6359406  76.9768151
  64.7832337  -0.7754587  78.9289998  63.8743556  -1.0595554  79.0262468
  64.8127421  -0.3555508  78.0693305  70.0151604   2.8352003  82.6981165
  69.5613931   1.9942913  82.7546356  69.3845571   3.4713401  83.0355946
  68.4584544   4.6728499  83.6330984  68.7507518   5.2333557  82.9143349
  68.9683164   4.9657060  84.3884143  55.3520507  -3.0549073  82.9105200
  55.1544907  -3.6479712  82.1856267  54.7967171  -3.3596862  83.6281139
  64.4808425   0.7654157  76.2678077  64.0427855   0.0490016  75.8083714
  65.2218866   0.9930272  75.7063168  63.4218169   5.4508851  84.7224437
  63.3794348   5.6769697  83.7932969  64.3380868   5.2172225  84.8710238
  61.5383970   2.3271880  84.5186400  62.3324568   1.8322200  84.3168975
  60.8275662   1.7989743  84.1554105  66.3578814   4.7089975  88.8698767
  66.4115836   5.2780911  89.6376483  65.4893595   4.8791860  88.5052804
  68.5481577   1.3018324  95.4439433  68.3967084   1.0728876  94.5269516
  68.5386257   2.2588926  95.4570778  64.1155246   2.9000902  88.1984237
  63.9766331   2.5319686  89.0710175  63.3269842   3.4148541  88.0268194
  64.7103398   8.0009998  79.5409773  64.8855153   7.5298041  80.3555396
  64.0236186   8.6275764  79.7691034  65.6660461   2.2782504  85.5873074
  65.3310293   2.2383274  86.4830724  65.1664406   1.6127220  85.1143485
  70.2573784   4.3337447  93.5215914  70.1986330   3.6496667  92.8546497
  70.6593302   5.0756437  93.0696540  59.2764483  11.1499361  86.3149633
  59.5161081  11.7817885  86.9928652  58.4333679  10.7987401  86.6014993
  70.2591191   2.2977031  91.7529894  69.3717970   1.9602953  91.8756293
  70.8289742   1.5660062  91.9898660  51.9120338  -1.3698877  85.0772946
  52.5991378  -1.6837147  84.4893961  51.7568467  -0.4657513  84.8040197
  63.7892345   6.9578483  88.7191137  63.7162516   7.7633455  89.2310442
  63.3469738   7.1570449  87.8939159  63.5782124   6.1950253  82.2293959
  62.7949646   6.7371933  82.3232183  64.2774869   6.7124233  82.6288200
  66.2491028   6.8565317  90.8749296  66.9619000   7.4912782  90.8025197
  65.7581057   6.9529183  90.0589298  61.3002942   4.6059761  91.6954867
  62.0012401   5.2396244  91.8484261  60.8298057   4.9474492  90.9350506
  69.4257338   2.9477710  79.9802774  69.7017181   2.8334305  80.8896648
  68.5561836   2.5495195  79.9414947  66.0611402   7.1964061  83.6235587
  66.2433796   6.3785717  84.0863340  66.8844388   7.4131754  83.1860477
  66.3953567   6.1232246  80.8850636  66.9241334   5.6124701  80.2720798
  66.6581787   5.8074777  81.7496169  56.8970660   4.1396116  88.6285969
  57.4824097   3.3939804  88.7613874  56.6995498   4.4500072  89.5122633
  59.7509315   7.1747363  83.6448412  59.0819690   7.6593491  83.1612452
  59.6122185   7.4216584  84.5591790  51.4888315  -3.2898284  87.3490413
  51.5272414  -3.8234693  88.1427531  50.9828607  -3.8163079  86.7301390
  63.8914584   9.2091107  90.2431070  64.4432892   9.3722728  91.0080155
  64.2320777   9.7995544  89.5711095  68.7425458   4.0352364  96.0979725
  69.2865362   4.6482322  95.6034679  68.1612303   4.5931943  96.6146738
  67.0282971   7.1573082  87.2294752  66.9034110   6.3562822  86.7205698
  67.6862062   7.6519276  86.7408722  69.0917879   4.9582102  88.8574302
  68.1448215   4.8387453  88.7852629  69.4400652   4.0704600  88.9400564
  66.0964313   4.7534818  85.0578655  65.9489275   3.8251526  85.2386225
  66.9217806   4.7754909  84.5735730  69.6998434   5.5763377  86.1443527
  70.6244982   5.3706239  86.0067979  69.5313738   5.3279778  87.0532869
  69.4893751   6.0949045  81.5005619  69.6630628   5.5295467  80.7479471
  69.9822642   6.8949940  81.3185109  55.3070710  -1.8936286  89.5669178
  54.7624179  -1.1176478  89.6989452  56.1850060  -1.5465482  89.4088299
  70.4768923   5.4115809  78.6002517  71.1719828   6.0322502  78.8189832
  70.8192073   4.5611160  78.8754895  56.0936732  -2.7666390  92.4599335
  55.3518468  -2.6183755  93.0463965  55.7729477  -2.5058124  91.5966084
  72.3760346   2.8615515  80.1289848  72.9011670   3.2002787  79.4039168
  72.2882699   1.9262530  79.9452983  64.0380395   6.7749588  92.2579725
  64.3467521   6.5298735  93.1302424  64.8355877   6.9796227  91.7698595
  64.0601007   8.9287498  84.4885101  63.6205997   8.4363877  85.1817958
  64.8109124   8.3860466  84.2477176  56.5393346   5.1199039  84.4909729
  57.3651366   4.8202811  84.1108373  56.1887398   4.3506661  84.9399518
  61.5074879   4.4725507  86.5607403  60.8854888   3.8096212  86.2609631
  62.1779746   4.4986639  85.8781051  54.7401951   3.0385365  85.4498663
  53.9033859   2.6107540  85.2682664  54.7125596   3.2317809  86.3869454
  72.0654252   3.4948418  95.4341046  71.2749796   3.4772557  94.8945545
  71.8287607   4.0336712  96.1890083  61.0688386   3.0229430  80.0365863
  61.2176506   3.7064895  79.3832536  61.8754829   3.0034520  80.5515319
  73.6870324   2.7637826  92.9915796  73.3955132   3.1267807  93.8279257
  73.0742455   2.0504834  92.8129128  58.8241019  -0.9505392  81.0426932
  58.5787061  -1.8543062  81.2407142  58.9936934  -0.9488242  80.1006410
  64.5683792   5.5177561  77.5077611  63.9957759   6.1367748  77.0548083
  65.1416585   6.0676922  78.0417533  67.7881051   5.8014711  78.6386193
  68.7211725   5.7360273  78.8419069  67.7004264   6.6370978  78.1800726
  70.4169068   5.1180581  75.5990141  70.3382700   4.7840445  76.4925899
  71.2378735   5.6102349  75.5981613  64.8369283   0.9056120  96.3094320
  65.7572292   1.0834719  96.5034367  64.8018866  -0.0387835  96.1574020
  54.0551448  -3.9005287  85.2347595  53.7354232  -4.7539979  84.9421969
  53.5084876  -3.6856709  85.9905562  57.8331355  -1.1842846  88.9517101
  58.0517365  -0.2525738  88.9705135  58.2457129  -1.5434871  89.7371905
  53.9239708  -0.2802375  87.2040716  53.2303179  -0.6948422  86.6910671
  54.6712699  -0.2381839  86.6074135  55.8376450  -0.3484121  85.0806731
  55.8147138  -0.2496434  84.1288614  56.1477087   0.4981029  85.4023897
  58.4963828   1.7092034  89.1953346  59.4507082   1.6775976  89.1283277
  58.2976352   1.2482657  90.0103572  59.0863210   0.2793150  91.7624143
  59.9056099   0.7737228  91.7858981  59.3600018  -0.6374882  91.7341711
  56.8514057   7.2511653  86.2123544  56.7168525   6.4912054  85.6461542
  56.4346119   7.9752553  85.7452333  67.9873020   2.4348577  75.2200119
  68.6908870   2.6398579  75.8357775  67.2635669   3.0025339  75.4849202
  60.0083183   8.1480970  86.4241986  59.8915567   9.0926403  86.3220677
  59.1875629   7.8454532  86.8127786  69.8959717   2.8731106  77.2698579
  70.7305321   2.4412304  77.0876054  69.7344060   2.7013120  78.1975473
  66.8651517   1.6812131  97.9608481  67.7342676   1.8552783  97.5995116
  66.3858268   2.5006548  97.8384210  61.0337697   8.8009232  89.6397915
  61.9364944   8.8332842  89.9564410  60.8075067   7.8709683  89.6544251
  62.7891299   7.5540219  86.3007993  61.8386930   7.5542080  86.1872366
  63.0923785   6.8072953  85.7844028  78.5243992  13.3900757  87.3653756
  79.1622402  13.2707504  86.6617096  78.4064835  14.3381601  87.4241708
  75.3333699  13.3428185  87.3015280  74.9952210  13.2269250  86.4135815
  76.2023467  12.9419350  87.2816287  71.1920514  15.1963661  83.2912171
  70.6285379  15.1053598  82.5228459  71.0772909  14.3763566  83.7714664
  75.8153482  14.4963037  93.2601486  75.8042122  14.1015835  92.3881990
  75.9774121  13.7629109  93.8535257  68.7384946  16.6914853  86.1296392
  69.5306238  16.3505678  85.7142691  68.9781596  16.8009828  87.0498545
  76.7720073  18.8634629  78.6026636  76.1208053  19.4488710  78.2160650
  77.5664436  19.3940824  78.6621674  70.6975700  15.9523766  79.0013771
  71.4706576  15.4052753  78.8626646  71.0501099  16.8168016  79.2128232
  72.5360743  17.2800149  92.2080670  72.2450609  18.1845779  92.0927336
  73.1717727  17.3216676  92.9224740  73.4616950  14.6576997  88.7982030
  74.0580522  14.4333019  88.0838993  73.5191921  13.9161743  89.4007477
  73.0341978  12.1116432  76.6332221  73.2867499  11.5897954  75.8715684
  72.0966537  11.9482578  76.7358904  78.0785261  11.1152211  84.4406964
  78.8648350  10.6971634  84.0897381  78.3423965  12.0198303  84.6088612
  78.2495338  16.5525061  79.1395621  77.6141171  16.6259688  79.8516525
  77.9192745  17.1418660  78.4614700  83.4793688  11.0527444  85.3439942
  84.2118860  10.4826661  85.5777772  82.7233044  10.6649044  85.7846448
  72.7538267  14.0144538  78.8356596  72.6374525  13.3389442  79.5037680
  72.8640527  13.5276912  78.0188749  75.0969808  13.4754685  82.5403285
  74.7328015  12.9485306  83.2516206  75.9536924  13.0853155  82.3669770
  81.0019108   4.7649018  89.8034551  80.6702433   5.6344429  89.5795766
  80.4064722   4.4485302  90.4828581  74.7375295   8.5044585  77.5364633
  74.9049697   9.3724822  77.9035104  74.5472464   8.6671867  76.6125923
  77.4950628  16.9661564  89.2030464  77.1951351  17.8686603  89.0946271
  77.1501687  16.6993747  90.0551617  70.9463109  13.4175361  85.2367168
  70.0213606  13.2851575  85.4444860  71.1947522  14.1969580  85.7337110
  80.8947772   9.4844104  86.8827901  79.9864649   9.4159513  86.5886662
  80.8435367   9.9616049  87.7109726  74.7164515  10.9602243  78.5211300
  74.5964141  11.4059293  79.3596780  74.0217104  11.3087560  77.9624838
  68.3071920  13.0608634  86.0710957  68.4364301  13.3143113  86.9850369
  67.6269372  13.6536342  85.7515612  72.4771408  23.7305884  82.1701431
  72.3995437  24.6813710  82.2489912  71.8733051  23.3851757  82.8276358
  74.9688637  10.9033750  94.8262798  74.1921971  11.4627670  94.8165663
  75.6079200  11.3890533  95.3477668  82.7609418   7.6860543  88.6605775
  82.1183798   7.9793076  88.0145569  82.2564347   7.5713463  89.4658972
  80.4149582  11.4323716  79.3491634  81.3267438  11.6651103  79.1739332
  79.9059229  12.0160760  78.7866713  73.2235010  13.7119203  94.3880765
  73.9649694  14.2504247  94.1115589  72.5171995  14.3385492  94.5452317
  78.6990349  15.8548344  92.9852927  79.1073705  15.4130754  92.2407559
  77.9767611  15.2800971  93.2387120  75.0521419  10.7920950  90.3586484
  75.8982615  11.2160364  90.5021133  74.9920057  10.1354575  91.0525047
  79.0219164  16.4149534  86.7405216  78.3928026  16.5795248  86.0381283
  78.6344826  16.8291144  87.5116180  82.9008396  17.3503972  84.0949579
  82.2159434  17.7302874  83.5446613  82.9852245  17.9599299  84.8281527
  78.2020865   8.4525319  92.0167657  77.9581797   9.2067379  91.4801933
  78.4780795   8.8310666  92.8514904  80.1559327  14.9963931  90.6944923
  80.3676223  15.6395691  90.0179304  80.1089076  14.1626248  90.2266853
  77.7585556   7.6081752  87.5981495  76.8970035   7.9063005  87.8898233
  77.7847991   7.8252151  86.6662528  74.5747126  16.1523942  84.0055301
  75.0385471  16.4311645  83.2159923  74.3103924  15.2507387  83.8228391
  71.4671207  15.6995424  86.9435064  72.0372564  16.1282692  86.3052548
  72.0579319  15.4178009  87.6419250  73.5116012  12.2747095  80.8144866
  74.2140055  12.7268138  81.2818792  73.1796640  11.6330914  81.4424759
  71.9596373  10.8658851  95.1896075  71.3295034  11.5475132  95.4231472
  71.8532461  10.7541933  94.2449213  67.2541346  10.5330647  86.1161999
  66.4640400  10.7888176  85.6402110  67.7452593  11.3478985  86.2214040
  81.2705155  17.8735887  88.8667280  82.0922599  17.4716074  88.5849962
  81.2667558  17.7704121  89.8183396  69.2056091  10.8975227  83.0745476
  68.4087255  11.0093921  83.5928972  68.9781683  11.2361879  82.2086367
  75.0361759  17.4219930  91.0227991  75.1006191  17.8840337  91.8586163
  74.3272683  16.7917295  91.1510301  65.5379049  10.7861138  88.5476990
  65.7887087  11.6708148  88.8134566  66.0738597  10.6065739  87.7752082
  89.3611148  14.2174635  85.2152252  88.6074857  13.6482033  85.0596256
  89.4958690  14.1837300  86.1622886  74.7509777  19.0888037  80.8906971
  74.6155451  19.9339573  81.3191819  75.2919589  19.2907315  80.1272905
  71.2377116   5.1679617  97.5521326  70.8444062   4.6145816  98.2268971
  72.0543256   5.4790196  97.9427844  68.2039174  16.6063475  81.4634896
  68.7163694  17.4006726  81.6140461  68.8561887  15.9089766  81.3968498
  70.0134059  19.7229232  83.5457649  70.1900687  20.6447196  83.3578633
  70.8090892  19.4087651  83.9752029  74.1545077   6.5837496  95.1441583
  74.8954791   7.1844649  95.0646045  74.3863000   5.8415134  94.5859625
  69.2986415  11.7693864  93.4219813  69.1839930  10.8679121  93.7226911
  68.4430933  12.0157560  93.0704629  76.3778253  19.7111604  95.0207313
  75.9342107  18.9247982  94.7028218  77.0395466  19.8990754  94.3551204
  71.1365374  21.2407405  89.5467992  71.6872799  21.1124469  88.7744986
  70.2976850  21.5402295  89.1962884  78.4759491  19.9914404  93.0488714
  78.4577966  20.8123285  92.5568984  79.3979411  19.8668479  93.2738856
  74.9332545  17.5058533  93.8912223  75.4660882  16.7446821  93.6611531
  74.4046626  17.2132185  94.6336377  66.1688091  14.9352130  82.2394467
  67.0063313  15.3449138  82.0228174  66.3466358  13.9951572  82.2094661
  78.0652523  12.6027210  77.9278300  77.5499146  13.3731815  78.1666687
  77.7929831  11.9292347  78.5511361  75.6499634   7.4476911  82.9863538
  74.7941230   7.0583762  82.8069177  76.0626586   7.5268872  82.1263324
  77.1798780   4.9823254  87.3855098  76.6763576   4.9453390  86.5722903
  77.4729387   5.8915997  87.4451754  73.4241666   5.0661984  86.3921280
  74.2894663   4.8704793  86.0327169  73.4919175   4.8372336  87.3190636
  83.0386797  15.3559565  79.8631473  82.2616240  15.0170725  79.4186635
  83.7178278  15.3612188  79.1886438  77.8538826  10.4754302  79.7538081
  77.5488962  10.7900452  80.6048224  78.8069268  10.5535722  79.7965414
  76.2985258  16.6344526  81.4031035  75.7706619  15.8997285  81.0904272
  75.7972761  17.4119202  81.1571003  81.2778104  14.8293546  86.5198081
  80.6201778  15.5192808  86.6078210  82.0818503  15.2189978  86.8632067
  71.0303985   7.2964192  83.7637646  71.6047737   7.0739374  83.0310839
  71.6174968   7.3652887  84.5166248  80.0883563  13.1837919  84.5702023
  80.6015444  13.8167911  85.0723733  80.7384787  12.5839114  84.2045383
  71.3573573   9.3268653  77.7833532  70.5210885   9.6643340  78.1042806
  71.2178342   9.1917633  76.8460669  73.3326653   4.1705441  82.4912716
  72.6791065   3.8554458  81.8669331  73.2907127   3.5481181  83.2172539
  74.4437858  14.4524736  74.4066008  73.5364920  14.2213990  74.6057157
  74.9408890  13.6562355  74.5939989  77.3505937  23.1622243  77.3262694
  76.6767636  23.4653940  77.9347652  77.7371759  23.9651324  76.9768151
  76.5664394  10.6587375  86.8160363  75.6486955  10.8802322  86.6582051
  76.9824537  10.7333685  85.9572071  77.3499441  12.0578790  81.9463044
  78.0971260  12.5700187  81.6370166  77.6191031  11.7362843  82.8067437
  75.6226091  14.5537331  78.9289998  74.7137311  14.2696364  79.0262468
  75.6521175  14.9736409  78.0693305  80.8545359  18.1643920  82.6981165
  80.4007686  17.3234830  82.7546356  80.2239326  18.8005319  83.0355946
  79.7978278   9.0935906  83.9281833  79.0601035   8.5813293  84.2592076
  80.0505052   8.6536288  83.1165110  79.2978298  20.0020417  83.6330984
  79.5901272  20.5625474  82.9143349  79.8076919  20.2948978  84.3884143
  66.1914262  12.2742845  82.9105200  65.9938662  11.6812206  82.1856267
  65.6360926  11.9695055  83.6281139  74.1710985  12.1665952  85.0299793
  74.2259595  11.2139788  84.9542270  73.3602188  12.3225391  85.5141092
  75.3202179  16.0946075  76.2678077  74.8821609  15.3781934  75.8083714
  76.0612620  16.3222189  75.7063168  72.1103345  10.7843011  82.7890172
  71.2971211  11.0837182  83.1955364  72.6062340  10.3898700  83.5064654
  74.2611923  20.7800768  84.7224437  74.2188102  21.0061615  83.7932969
  75.1774622  20.5464143  84.8710238  77.7077557  11.2484836  91.6205066
  78.0626945  11.4756309  92.4799532  78.3549688  11.5803213  90.9982321
  83.4375294  14.3703272  82.3254395  83.2993193  14.5604868  81.3975584
  83.0811513  15.1322654  82.7822446  71.6017420   8.3561367  88.4051407
  72.2416799   8.2150126  87.7074370  70.7694951   8.0695880  88.0290009
  83.4644674  16.4379799  87.3365667  83.8981180  16.3455088  88.1848721
  84.1776254  16.4137299  86.6985683  72.3777724  17.6563797  84.5186400
  73.1718323  17.1614117  84.3168975  71.6669416  17.1281660  84.1554105
  77.1972569  20.0381893  88.8698767  77.2509591  20.6072829  89.6376483
  76.3287350  20.2083778  88.5052804  68.6860488  11.8006879  80.5946152
  67.7558076  11.7391334  80.8116114  68.7817960  11.2782832  79.7982793
  68.6046037   8.3261692  83.1824394  68.8652854   9.2407025  83.0733554
  69.4263209   7.8586134  83.3321007  70.0770962   9.7399449  90.3523218
  70.7494015   9.5316811  89.7035867  69.2500748   9.5421535  89.9128451
  84.3260223  16.4803499  89.8698552  84.5196113  17.3849310  90.1157827
  84.2260841  16.0210918  90.7037137  75.9796534   6.3661390  92.3688879
  75.3324449   7.0651340  92.2753356  76.7497549   6.7997534  92.7365128
  79.3875332  16.6310242  95.4439433  79.2360838  16.4020794  94.5269516
  79.3780011  17.5880843  95.4570778  76.1560668  14.2042155  90.4285699
  77.0852728  14.3553314  90.2554666  75.7351698  14.2926176  89.5734346
  74.9549000  18.2292819  88.1984237  74.8160086  17.8611604  89.0710175
  74.1663596  18.7440459  88.0268194  75.5497152  23.3301916  79.5409773
  75.7248908  22.8589959  80.3555396  74.8629940  23.9567682  79.7691034
  76.5054215  17.6074422  85.5873074  76.1704048  17.5675192  86.4830724
  76.0058161  16.9419138  85.1143485  70.4798459  13.0142052  91.1125656
  70.3418257  12.2822291  91.7137195  71.3903383  12.9250952  90.8309843
  79.4413407  14.9530456  75.8610134  78.8242577  14.2277284  75.7643187
  78.9729895  15.7139817  75.5177208  73.1080760  12.7262011  90.6009335
  73.8180378  12.0855203  90.5595954  73.0650068  12.9774906  91.5235516
  81.0967539  19.6629365  93.5215914  81.0380085  18.9788585  92.8546497
  81.4987057  20.4048355  93.0696540  71.8209694   9.7127229  92.4204975
  71.2847051   9.2617968  93.0726571  71.2326402   9.8473138  91.6775439
  70.1158237  26.4791278  86.3149633  70.3554836  27.1109803  86.9928652
  69.2727434  26.1279318  86.6014993  71.2311953   9.1715881  74.9831438
  70.3541419   9.0504681  74.6193685  71.7069706   8.3801959  74.7310327
  81.0984946  17.6268949  91.7529894  80.2111725  17.2894870  91.8756293
  81.6683497  16.8951980  91.9898660  62.7514093  13.9593040  85.0772946
  63.4385133  13.6454770  84.4893961  62.5962222  14.8634405  84.8040197
  67.5548815   8.8483237  89.5057969  67.4707004   8.2408906  88.7708379
  66.7331521   9.3392255  89.5067466  74.6286099  22.2870401  88.7191137
  74.5556271  23.0925372  89.2310442  74.1863492  22.4862367  87.8939159
  74.4175879  21.5242171  82.2293959  73.6343401  22.0663851  82.3232183
  75.1168624  22.0416151  82.6288200  77.7272529   7.3336800  84.8728164
  78.2241228   6.5806763  84.5529234  76.9559510   7.3701117  84.3071374
  85.5802286  13.0377166  86.5146456  85.5692163  13.9201881  86.1440389
  84.7119666  12.6848717  86.3200993  77.0884783  22.1857235  90.8749296
  77.8012755  22.8204700  90.8025197  76.5974811  22.2821101  90.0589298
  78.8102310  16.0908488  82.4466588  77.8758588  16.2109950  82.2771292
  78.9878978  15.1880954  82.1826597  74.3107498   9.4754183  84.5999849
  73.9405285   8.9225224  85.2880754  74.8066590   8.8712317  84.0474849
  82.1974861  11.9325807  82.9816622  82.6635313  12.7653798  82.9076924
  82.6482361  11.4670788  83.6861880  72.1396696  19.9351678  91.6954867
  72.8406156  20.5688161  91.8484261  71.6691811  20.2766410  90.9350506
  80.2651092  18.2769628  79.9802774  80.5410936  18.1626223  80.8896648
  79.3955591  17.8787113  79.9414947  79.9397982  12.4896286  89.5207417
  79.2869432  12.7372193  88.8659870  80.3178362  11.6760424  89.1869894
  76.9005156  22.5255979  83.6235587  77.0827551  21.7077635  84.0863340
  77.7238142  22.7423671  83.1860477  77.2347322  21.4524164  80.8850636
  77.7635088  20.9416619  80.2720798  77.4975541  21.1366694  81.7496169
  75.9885555  13.2316097  96.0073454  75.3126192  13.1310226  96.6775829
  76.8113189  13.0755311  96.4709451  67.7364414  19.4688033  88.6285969
  68.3217851  18.7231721  88.7613874  67.5389253  19.7791990  89.5122633
  70.5903070  22.5039281  83.6448412  69.9213445  22.9885408  83.1612452
  70.4515939  22.7508501  84.5591790  62.3282069  12.0393634  87.3490413
  62.3666169  11.5057224  88.1427531  61.8222362  11.5128839  86.7301390
  74.7308338  24.5383024  90.2431070  75.2826646  24.7014646  91.0080155
  75.0714532  25.1287462  89.5711095  69.7072831   6.8858174  90.8452955
  69.7714158   7.7473005  90.4330353  69.6439952   6.2732176  90.1125313
  69.1825104   8.9581307  94.4925989  69.8097143   8.5758384  95.1063514
  68.3253023   8.7395509  94.8581682  79.5819212  19.3644282  96.0979725
  80.1259116  19.9774240  95.6034679  79.0006057  19.9223860  96.6146738
  65.9590647  10.7657736  80.4244344  66.2544088   9.8568414  80.3711398
  65.0578682  10.7445475  80.1025346  77.8676725  22.4865000  87.2294752
  77.7427865  21.6854740  86.7205698  78.5255816  22.9811193  86.7408722
  69.4884894   8.8413732  86.4071893  68.7671479   9.4549700  86.2679366
  70.2778149   9.3771497  86.3288539  79.9311634  20.2874020  88.8574302
  78.9841969  20.1679371  88.7852629  80.2794407  19.3996518  88.9400564
  72.2911207   6.1768159  92.6812544  72.8145609   6.4230455  93.4438854
  72.0723540   7.0088194  92.2615682  67.6878488   8.4471833  80.5483669
  67.3591194   7.5669212  80.3658775  68.0417859   8.3919502  81.4360058
  76.9358067  20.0826736  85.0578655  76.7883029  19.1543444  85.2386225
  77.7611561  20.1046827  84.5735730  70.8020311   8.7344803  80.9159147
  71.1416384   9.2630724  80.1937755  71.2492432   9.0725209  81.6917713
  80.5392189  20.9055295  86.1443527  81.4638736  20.6998156  86.0067979
  80.3707492  20.6571696  87.0532869  73.4963752   7.1181854  90.3662215
  73.1560573   6.3189667  90.7682895  72.7902758   7.4183565  89.7939048
  74.1480224   4.2031166  88.8189538  74.9706293   3.7291645  88.6968428
  74.3918288   4.9821650  89.3188224  72.7888458   7.2319425  79.1152440
  73.5096821   7.6100678  78.6116156  72.1653763   7.9508302  79.2187418
  76.9319581   7.9364574  80.0510772  77.1483196   8.8189212  79.7499600
  76.4513649   7.5450787  79.3216414  71.6718803  10.8950287  86.6281517
  71.5263383  11.2090590  87.5205798  71.1944006  11.5135187  86.0752415
  73.5315186   7.8852835  86.6762406  73.5176754   6.9893928  86.3394704
  74.2487614   7.8923499  87.3100692  75.3841316   8.3190175  88.7215534
  75.1259094   9.2407246  88.7199864  74.8526357   7.9220610  89.4115998
  80.3287505  21.4240962  81.5005619  80.5024383  20.8587385  80.7479471
  80.8216396  22.2241857  81.3185109  66.1464465  13.4355631  89.5669178
  65.6017933  14.2115439  89.6989452  67.0243815  13.7826436  89.4088299
  72.9352082   6.7667215  81.9449976  73.0567993   5.8383861  82.1440864
  72.6454124   6.7805901  81.0328292  75.8043272   4.4522126  85.0816696
  75.8264969   4.5161459  84.1268676  76.2211331   3.6126634  85.2757202
  86.1826896  14.1877385  83.1195919  86.6258042  13.4384710  82.7215042
  85.3053407  14.1787522  82.7369651  81.3162678  20.7407727  78.6002517
  82.0113582  21.3614419  78.8189832  81.6585828  19.8903078  78.8754895
  66.9330487  12.5625528  92.4599335  66.1912223  12.7108163  93.0463965
  66.6123231  12.8233793  91.5966084  83.2154101  18.1907432  80.1289848
  83.7405425  18.5294705  79.4039168  83.1276453  17.2554448  79.9452983
  74.8774149  22.1041506  92.2579725  75.1861276  21.8590653  93.1302424
  75.6749631  22.3088144  91.7698595  74.8994761  24.2579416  84.4885101
  74.4599752  23.7655794  85.1817958  75.6502878  23.7152383  84.2477176
  67.3787100  20.4490956  84.4909729  68.2045120  20.1494728  84.1108373
  67.0281152  19.6798579  84.9399518  72.3468634  19.8017425  86.5607403
  71.7248643  19.1388130  86.2609631  73.0173501  19.8278557  85.8781051
  65.5795706  18.3677283  85.4498663  64.7427614  17.9399457  85.2682664
  65.5519351  18.5609726  86.3869454  72.4193161   8.2799213  96.1539909
  72.4681317   9.1561335  95.7717678  72.9615675   7.7376606  95.5811552
  82.9048007  18.8240336  95.4341046  82.1143550  18.8064475  94.8945545
  82.6681361  19.3628630  96.1890083  83.0245882  15.6732802  92.7473774
  83.0743887  15.5082810  93.6889297  82.9159805  14.8060061  92.3571655
  71.9082141  18.3521348  80.0365863  72.0570261  19.0356812  79.3832536
  72.7148584  18.3326438  80.5515319  80.3149644  11.6563730  94.0633081
  81.2159507  11.5170195  93.7717079  80.3897619  11.8218185  95.0031259
  74.6492450   9.0330585  92.9086267  73.7795759   9.3264151  92.6368856
  74.8851930   9.6171030  93.6293531  84.5264079  18.0929744  92.9915796
  84.2348887  18.4559724  93.8279257  83.9136210  17.3796752  92.8129128
  85.7259761  15.6582624  85.5118366  86.5606652  16.0972428  85.6755927
  85.8618890  15.1821277  84.6926612  82.7751267  13.2162358  91.4595854
  83.2505389  13.4090005  90.6514705  81.8516832  13.2721544  91.2139238
  69.6634774  14.3786526  81.0426932  69.4180815  13.4748856  81.2407142
  69.8330688  14.3803676  80.1006410  77.3531483   5.2510202  90.4251688
  77.8713427   5.9871229  90.0998176  76.9986616   5.5574195  91.2598447
  68.9330421  10.1114883  78.5413094  68.2399666  10.1859238  77.8853130
  68.6882173   9.3475227  79.0634611  75.4077546  20.8469478  77.5077611
  74.8351513  21.4659666  77.0548083  75.9810340  21.3968840  78.0417533
  81.4752936  10.0928119  89.6924160  82.4270359  10.1926216  89.7136384
  81.3056386   9.3006387  90.2022244  79.4967315   7.1783702  89.8783561
  78.9017247   7.4588714  89.1830049  79.2117012   7.6677603  90.6500302
  78.6274806  21.1306629  78.6386193  79.5605479  21.0652190  78.8419069
  78.5398019  21.9662895  78.1800726  81.2562823  20.4472499  75.5990141
  81.1776454  20.1132363  76.4925899  82.0772489  20.9394267  75.5981613
  83.9541014  13.3134238  88.8066459  83.9217334  12.3750239  88.9926143
  84.5641637  13.3918275  88.0732284  75.7924345  12.1830291  74.8493663
  76.7383449  12.0536499  74.9182081  75.4138590  11.4444953  75.3263091
  84.1035502  10.1045282  88.8524742  83.5874551   9.3203738  88.6654671
  84.9875451   9.7763998  89.0171262  89.7717564  14.3750245  87.9472496
  90.5020952  14.1135533  88.5080199  89.1624509  13.6378967  87.9874564
  87.8532861  12.5158108  88.5446947  87.1266024  12.3814073  87.9363439
  87.4380148  12.8234936  89.3503665  75.6763037  16.2348037  96.3094320
  76.5966047  16.4126636  96.5034367  75.6412620  15.2904083  96.1574020
  73.9767262  10.1080268  74.7848549  73.0698717   9.8113380  74.8611262
  74.2543243   9.8110086  73.9182835  64.8945202  11.4286631  85.2347595
  64.5747986  10.5751939  84.9421969  64.3478630  11.6435209  85.9905562
  68.6725110  14.1449072  88.9517101  68.8911119  15.0766180  88.9705135
  69.0850883  13.7857046  89.7371905  75.5929327   4.6517157  80.9392790
  74.7830056   4.3064242  81.3148036  76.2813744   4.3424701  81.5280401
  73.5452975   9.7182278  98.3419850  73.4449702  10.6676635  98.2731941
  73.3274517   9.3900517  97.4695920  72.7466046   6.9667203  74.9260528
  73.6085210   7.2922101  75.1856345  72.9316390   6.1798699  74.4133593
  64.7633462  15.0489542  87.2040716  64.0696934  14.6343495  86.6910671
  65.5106453  15.0910079  86.6074135  80.8998683   5.8395729  82.0695751
  80.3197352   6.4980533  81.6873803  80.6334615   5.0173074  81.6583168
  79.3502249   5.2400787  84.2717071  79.8502028   5.3517321  83.4631390
  79.9937857   4.9361840  84.9117879  73.4084245  13.1479417  97.1584912
  72.9251327  13.9479777  97.3648801  73.4945184  13.1587361  96.2052356
  66.6770205  14.9807796  85.0806731  66.6540893  15.0795484  84.1288614
  66.9870841  15.8272947  85.4023897  69.3357582  17.0383951  89.1953346
  70.2900836  17.0067894  89.1283277  69.1370106  16.5774575  90.0103572
  69.9256965  15.6085067  91.7624143  70.7449854  16.1029146  91.7858981
  70.1993772  14.6917035  91.7341711  79.6823561   7.9995820  81.1252099
  78.7949416   8.2845470  80.9072294  80.0977550   7.8389583  80.2779376
  83.0338097   8.0242341  84.8406438  83.8098487   8.5138793  85.1131055
  82.3086231   8.4500395  85.2978308  85.4710656   8.7369960  85.8980379
  86.0655146   8.4965696  85.1873687  85.5437239   8.0177090  86.5253915
  67.6907811  22.5803571  86.2123544  67.5562279  21.8203972  85.6461542
  67.2739874  23.3044471  85.7452333  78.8266774  17.7640494  75.2200119
  79.5302624  17.9690497  75.8357775  78.1029423  18.3317256  75.4849202
  79.6564585  13.5150356  81.3402389  79.5999786  13.9718907  80.5010022
  80.2092927  12.7541040  81.1625232  83.4669390   9.3040087  82.1652509
  83.2106325   8.9036723  82.9960716  82.8422259  10.0183881  82.0402648
  87.7781728  12.0436161  84.6723800  87.2181286  12.1129350  85.4455362
  87.1725232  11.8677145  83.9523296  70.8476937  23.4772888  86.4241986
  70.7309321  24.4218320  86.3220677  70.0269383  23.1746449  86.8127786
  80.7353472  18.2023023  77.2698579  81.5699076  17.7704222  77.0876054
  80.5737815  18.0305037  78.1975473  80.3899364  14.7055137  78.6354918
  80.3348168  14.5399408  77.6943362  79.7645419  15.4131170  78.7917108
  65.1791879   9.9423201  92.4616341  65.8250742   9.4322155  92.9503566
  64.9709030  10.6791883  93.0359766  77.7045271  17.0104049  97.9608481
  78.5736431  17.1844701  97.5995116  77.2252023  17.8298465  97.8384210
  73.6995489   4.2063246  78.2140237  73.6874159   5.1505086  78.3708508
  74.5918911   4.0233391  77.9199698  71.8731451  24.1301150  89.6397915
  72.7758698  24.1624760  89.9564410  71.6468821  23.2001601  89.6544251
  73.6285053  22.8832136  86.3007993  72.6780684  22.8833998  86.1872366
  73.9317539  22.1364871  85.7844028  69.5189370   7.0890818  96.5591355
  70.3820831   6.7327623  96.7694679  68.9454781   6.7504713  97.2466759
  89.3637747  28.7192675  87.3653756  90.0016157  28.5999422  86.6617096
  89.2458590  29.6673519  87.4241708  86.1727453  28.6720103  87.3015280
  85.8345965  28.5561167  86.4135815  87.0417221  28.2711268  87.2816287
  82.0314269  30.5255579  83.2912171  81.4679134  30.4345516  82.5228459
  81.9166664  29.7055484  83.7714664  86.6547236  29.8254954  93.2601486
  86.6435877  29.4307753  92.3881990  86.8167876  29.0921027  93.8535257
  79.5778701  32.0206771  86.1296392  80.3699993  31.6797595  85.7142691
  79.8175351  32.1301746  87.0498545  87.6113827  34.1926547  78.6026636
  86.9601807  34.7780627  78.2160650  88.4058190  34.7232742  78.6621674
  81.5369455  31.2815684  79.0013771  82.3100331  30.7344671  78.8626646
  81.8894854  32.1459933  79.2128232  83.3754497  32.6092066  92.2080670
  83.0844363  33.5137697  92.0927336  84.0111482  32.6508594  92.9224740
  84.3010704  29.9868915  88.7982030  84.8974276  29.7624937  88.0838993
  84.3585676  29.2453660  89.4007477  83.8735732  27.4408350  76.6332221
  84.1261253  26.9189871  75.8715684  82.9360292  27.2774496  76.7358904
  88.9179015  26.4444128  84.4406964  89.7042105  26.0263552  84.0897381
  89.1817720  27.3490221  84.6088612  89.0889093  31.8816979  79.1395621
  88.4534926  31.9551605  79.8516525  88.7586499  32.4710578  78.4614700
  94.3187442  26.3819362  85.3439942  95.0512614  25.8118578  85.5777772
  93.5626798  25.9940962  85.7846448  83.5932021  29.3436456  78.8356596
  83.4768279  28.6681359  79.5037680  83.7034281  28.8568830  78.0188749
  85.9363562  28.8046603  82.5403285  85.5721769  28.2777224  83.2516206
  86.7930678  28.4145072  82.3669770  91.8412863  20.0940936  89.8034551
  91.5096188  20.9636347  89.5795766  91.2458476  19.7777220  90.4828581
  85.5769049  23.8336503  77.5364633  85.7443451  24.7016739  77.9035104
  85.3866218  23.9963785  76.6125923  88.3344382  32.2953482  89.2030464
  88.0345105  33.1978521  89.0946271  87.9895442  32.0285665  90.0551617
  81.7856864  28.7467279  85.2367168  80.8607360  28.6143493  85.4444860
  82.0341277  29.5261498  85.7337110  91.7341526  24.8136022  86.8827901
  90.8258403  24.7451430  86.5886662  91.6829122  25.2907967  87.7109726
  85.5558270  26.2894160  78.5211300  85.4357895  26.7351211  79.3596780
  84.8610858  26.6379478  77.9624838  79.1465675  28.3900552  86.0710957
  79.2758056  28.6435031  86.9850369  78.4663126  28.9828260  85.7515612
  83.3165162  39.0597802  82.1701431  83.2389192  40.0105627  82.2489912
  82.7126806  38.7143675  82.8276358  85.8082392  26.2325668  94.8262798
  85.0315726  26.7919588  94.8165663  86.4472955  26.7182451  95.3477668
  93.6003172  23.0152460  88.6605775  92.9577553  23.3084994  88.0145569
  93.0958101  22.9005381  89.4658972  91.2543336  26.7615634  79.3491634
  92.1661192  26.9943020  79.1739332  90.7452983  27.3452678  78.7866713
  84.0628764  29.0411121  94.3880765  84.8043449  29.5796165  94.1115589
  83.3565750  29.6677410  94.5452317  89.5384104  31.1840261  92.9852927
  89.9467460  30.7422672  92.2407559  88.8161365  30.6092889  93.2387120
  85.8915174  26.1212868  90.3586484  86.7376369  26.5452282  90.5021133
  85.8313812  25.4646492  91.0525047  89.8612918  31.7441452  86.7405216
  89.2321781  31.9087166  86.0381283  89.4738581  32.1583062  87.5116180
  93.7402150  32.6795890  84.0949579  93.0553189  33.0594791  83.5446613
  93.8246000  33.2891216  84.8281527  89.0414619  23.7817236  92.0167657
  88.7975551  24.5359297  91.4801933  89.3174550  24.1602584  92.8514904
  90.9953082  30.3255849  90.6944923  91.2069977  30.9687609  90.0179304
  90.9482830  29.4918165  90.2266853  88.5979311  22.9373670  87.5981495
  87.7363790  23.2354923  87.8898233  88.6241746  23.1544068  86.6662528
  85.4140880  31.4815860  84.0055301  85.8779226  31.7603563  83.2159923
  85.1497678  30.5799305  83.8228391  82.3064961  31.0287342  86.9435064
  82.8766318  31.4574610  86.3052548  82.8973073  30.7469926  87.6419250
  84.3509766  27.6039012  80.8144866  85.0533810  28.0560056  81.2818792
  84.0190395  26.9622831  81.4424759  82.7990128  26.1950769  95.1896075
  82.1688788  26.8767050  95.4231472  82.6926216  26.0833851  94.2449213
  78.0935100  25.8622565  86.1161999  77.3034154  26.1180094  85.6402110
  78.5846348  26.6770903  86.2214040  92.1098910  33.2027804  88.8667280
  92.9316354  32.8007992  88.5849962  92.1061313  33.0996038  89.8183396
  80.0449846  26.2267144  83.0745476  79.2481009  26.3385839  83.5928972
  79.8175438  26.5653797  82.2086367  85.8755513  32.7511848  91.0227991
  85.9399946  33.2132255  91.8586163  85.1666437  32.1209212  91.1510301
  76.3772803  26.1153056  88.5476990  76.6280842  27.0000065  88.8134566
  76.9132352  25.9357657  87.7752082 100.2004903  29.5466553  85.2152252
  99.4468611  28.9773951  85.0596256 100.3352444  29.5129217  86.1622886
  85.5903531  34.4179955  80.8906971  85.4549206  35.2631491  81.3191819
  86.1313344  34.6199233  80.1272905  82.0770871  20.4971535  97.5521326
  81.6837816  19.9437733  98.2268971  82.8937011  20.8082113  97.9427844
  79.0432928  31.9355393  81.4634896  79.5557449  32.7298643  81.6140461
  79.6955641  31.2381684  81.3968498  80.8527813  35.0521149  83.5457649
  81.0294441  35.9739114  83.3578633  81.6484647  34.7379569  83.9752029
  84.9938832  21.9129414  95.1441583  85.7348545  22.5136567  95.0646045
  85.2256754  21.1707052  94.5859625  80.1380170  27.0985781  93.4219813
  80.0233685  26.1971039  93.7226911  79.2824687  27.3449478  93.0704629
  87.2172007  35.0403522  95.0207313  86.7735862  34.2539900  94.7028218
  87.8789221  35.2282672  94.3551204  81.9759129  36.5699323  89.5467992
  82.5266554  36.4416387  88.7744986  81.1370604  36.8694212  89.1962884
  89.3153245  35.3206322  93.0488714  89.2971721  36.1415203  92.5568984
  90.2373166  35.1960397  93.2738856  85.7726300  32.8350451  93.8912223
  86.3054636  32.0738739  93.6611531  85.2440381  32.5424103  94.6336377
  88.9395995  17.9410517  89.4205865  88.5960264  18.8312159  89.3444975
  89.3074957  17.7512175  88.5575450  77.0081845  30.2644047  82.2394467
  77.8457067  30.6741056  82.0228174  77.1860113  29.3243490  82.2094661
  88.9046277  27.9319128  77.9278300  88.3892901  28.7023733  78.1666687
  88.6323586  27.2584264  78.5511361  86.4893388  22.7768829  82.9863538
  85.6334985  22.3875679  82.8069177  86.9020340  22.8560790  82.1263324
  88.0192535  20.3115172  87.3855098  87.5157331  20.2745307  86.5722903
  88.3123142  21.2207915  87.4451754  84.2635421  20.3953902  86.3921280
  85.1288418  20.1996711  86.0327169  84.3312930  20.1664254  87.3190636
  93.8780551  30.6851483  79.8631473  93.1009994  30.3462642  79.4186635
  94.5572032  30.6904106  79.1886438  88.6932580  25.8046220  79.7538081
  88.3882716  26.1192369  80.6048224  89.6463023  25.8827640  79.7965414
  87.1379012  31.9636443  81.4031035  86.6100374  31.2289203  81.0904272
  86.6366515  32.7411120  81.1571003  92.1171858  30.1585464  86.5198081
  91.4595533  30.8484725  86.6078210  92.9212258  30.5481896  86.8632067
  81.8697740  22.6256110  83.7637646  82.4441492  22.4031291  83.0310839
  82.4568722  22.6944804  84.5166248  90.9277317  28.5129837  84.5702023
  91.4409199  29.1459828  85.0723733  91.5778541  27.9131032  84.2045383
  82.1967327  24.6560571  77.7833532  81.3604639  24.9935257  78.1042806
  82.0572097  24.5209551  76.8460669  84.1720408  19.4997359  82.4912716
  83.5184820  19.1846376  81.8669331  84.1300882  18.8773099  83.2172539
  85.2831612  29.7816654  74.4066008  84.3758674  29.5505907  74.6057157
  85.7802644  28.9854273  74.5939989  88.1899691  38.4914161  77.3262694
  87.5161390  38.7945858  77.9347652  88.5765513  39.2943241  76.9768151
  87.4058148  25.9879292  86.8160363  86.4880709  26.2094239  86.6582051
  87.8218292  26.0625603  85.9572071  88.1893196  27.3870708  81.9463044
  88.9365015  27.8992105  81.6370166  88.4584785  27.0654761  82.8067437
  86.4619846  29.8829249  78.9289998  85.5531065  29.5988281  79.0262468
  86.4914930  30.3028327  78.0693305  91.6939113  33.4935838  82.6981165
  91.2401440  32.6526748  82.7546356  91.0633080  34.1297236  83.0355946
  90.6372033  24.4227824  83.9281833  89.8994790  23.9105210  84.2592076
  90.8898806  23.9828206  83.1165110  90.1372053  35.3312335  83.6330984
  90.4295027  35.8917392  82.9143349  90.6470673  35.6240896  84.3884143
  90.7383660  17.2004076  84.5223602  91.0442537  16.3401440  84.2349517
  91.4636265  17.7921696  84.3222596  77.0308016  27.6034763  82.9105200
  76.8332416  27.0104123  82.1856267  76.4754680  27.2986973  83.6281139
  85.0104740  27.4957869  85.0299793  85.0653350  26.5431706  84.9542270
  84.1995942  27.6517308  85.5141092  86.1595934  31.4237992  76.2678077
  85.7215364  30.7073851  75.8083714  86.9006375  31.6514107  75.7063168
  82.9497100  26.1134929  82.7890172  82.1364965  26.4129099  83.1955364
  83.4456094  25.7190618  83.5064654  85.1005678  36.1092686  84.7224437
  85.0581857  36.3353532  83.7932969  86.0168377  35.8756060  84.8710238
  88.5471312  26.5776753  91.6205066  88.9020699  26.8048227  92.4799532
  89.1943443  26.9095130  90.9982321  94.2769049  29.6995189  82.3254395
  94.1386947  29.8896785  81.3975584  93.9205267  30.4614572  82.7822446
  82.4411175  23.6853284  88.4051407  83.0810554  23.5442044  87.7074370
  81.6088705  23.3987798  88.0290009  94.3038428  31.7671716  87.3365667
  94.7374935  31.6747005  88.1848721  95.0170009  31.7429217  86.6985683
  83.2171479  32.9855715  84.5186400  84.0112077  32.4906035  84.3168975
  82.5063171  32.4573578  84.1554105  88.0366323  35.3673810  88.8698767
  88.0903345  35.9364747  89.6376483  87.1681104  35.5375695  88.5052804
  79.5254242  27.1298797  80.5946152  78.5951830  27.0683252  80.8116114
  79.6211714  26.6074749  79.7982793  79.4439791  23.6553609  83.1824394
  79.7046608  24.5698943  83.0733554  80.2656963  23.1878052  83.3321007
  80.9164716  25.0691367  90.3523218  81.5887770  24.8608729  89.7035867
  80.0894503  24.8713453  89.9128451  95.1653978  31.8095417  89.8698552
  95.3589868  32.7141227  90.1157827  95.0654596  31.3502836  90.7037137
  86.8190288  21.6953308  92.3688879  86.1718203  22.3943257  92.2753356
  87.5891304  22.1289451  92.7365128  90.2269086  31.9602160  95.4439433
  90.0754593  31.7312711  94.5269516  90.2173766  32.9172761  95.4570778
  86.9954423  29.5334072  90.4285699  87.9246483  29.6845232  90.2554666
  86.5745453  29.6218093  89.5734346  85.7942755  33.5584737  88.1984237
  85.6553840  33.1903521  89.0710175  85.0057351  34.0732376  88.0268194
  86.3890907  38.6593833  79.5409773  86.5642662  38.1881877  80.3555396
  85.7023695  39.2859600  79.7691034  87.3447970  32.9366340  85.5873074
  87.0097802  32.8967110  86.4830724  86.8451915  32.2711055  85.1143485
  81.3192214  28.3433970  91.1125656  81.1812012  27.6114208  91.7137195
  82.2297137  28.2542870  90.8309843  90.2807161  30.2822374  75.8610134
  89.6636332  29.5569202  75.7643187  89.8123650  31.0431734  75.5177208
  83.9474514  28.0553929  90.6009335  84.6574133  27.4147121  90.5595954
  83.9043822  28.3066824  91.5235516  91.9361293  34.9921282  93.5215914
  91.8773839  34.3080502  92.8546497  92.3380811  35.7340272  93.0696540
  82.6603448  25.0419147  92.4204975  82.1240805  24.5909885  93.0726571
  82.0720157  25.1765056  91.6775439  80.9551992  41.8083196  86.3149633
  81.1948590  42.4401720  86.9928652  80.1121188  41.4571236  86.6014993
  82.0705707  24.5007798  74.9831438  81.1935174  24.3796599  74.6193685
  82.5463460  23.7093877  74.7310327  91.9378700  32.9560866  91.7529894
  91.0505479  32.6186788  91.8756293  92.5077251  32.2243897  91.9898660
  73.5907847  29.2884958  85.0772946  74.2778887  28.9746688  84.4893961
  73.4355976  30.1926323  84.8040197  78.3942570  24.1775155  89.5057969
  78.3100758  23.5700824  88.7708379  77.5725276  24.6684173  89.5067466
  85.4679854  37.6162319  88.7191137  85.3950025  38.4217290  89.2310442
  85.0257247  37.8154284  87.8939159  85.2569633  36.8534089  82.2293959
  84.4737155  37.3955769  82.3232183  85.9562378  37.3708068  82.6288200
  88.5666283  22.6628718  84.8728164  89.0634983  21.9098680  84.5529234
  87.7953265  22.6993035  84.3071374  96.4196041  28.3669084  86.5146456
  96.4085917  29.2493799  86.1440389  95.5513420  28.0140634  86.3200993
  87.9278537  37.5149153  90.8749296  88.6406509  38.1496617  90.8025197
  87.4368566  37.6113019  90.0589298  89.6496064  31.4200405  82.4466588
  88.7152343  31.5401868  82.2771292  89.8272733  30.5172872  82.1826597
  85.1501252  24.8046101  84.5999849  84.7799040  24.2517141  85.2880754
  85.6460345  24.2004235  84.0474849  93.0368615  27.2617725  82.9816622
  93.5029068  28.0945716  82.9076924  93.4876116  26.7962706  83.6861880
  82.9790451  35.2643596  91.6954867  83.6799910  35.8980079  91.8484261
  82.5085566  35.6058328  90.9350506  91.1044847  33.6061546  79.9802774
  91.3804690  33.4918140  80.8896648  90.2349345  33.2079031  79.9414947
  91.0085278  19.6298312  87.0207523  90.0948358  19.8602538  87.1889730
  91.4378380  19.7136756  87.8721555  90.7791737  27.8188203  89.5207417
  90.1263187  28.0664111  88.8659870  91.1572117  27.0052342  89.1869894
  87.7398911  37.8547897  83.6235587  87.9221305  37.0369553  84.0863340
  88.5631897  38.0715589  83.1860477  88.0741076  36.7816082  80.8850636
  88.6028842  36.2708536  80.2720798  88.3369296  36.4658612  81.7496169
  86.8279310  28.5608015  96.0073454  86.1519947  28.4602144  96.6775829
  87.6506944  28.4047228  96.4709451  78.5758169  34.7979951  88.6285969
  79.1611606  34.0523639  88.7613874  78.3783007  35.1083908  89.5122633
  81.4296824  37.8331198  83.6448412  80.7607199  38.3177326  83.1612452
  81.2909694  38.0800419  84.5591790  73.1675824  27.3685551  87.3490413
  73.2059923  26.8349142  88.1427531  72.6616116  26.8420757  86.7301390
  85.5702093  39.8674942  90.2431070  86.1220401  40.0306564  91.0080155
  85.9108286  40.4579380  89.5711095  80.5466586  22.2150092  90.8452955
  80.6107912  23.0764923  90.4330353  80.4833706  21.6024093  90.1125313
  80.0218858  24.2873224  94.4925989  80.6490897  23.9050302  95.1063514
  79.1646777  24.0687426  94.8581682  90.4212967  34.6936200  96.0979725
  90.9652871  35.3066158  95.6034679  89.8399812  35.2515778  96.6146738
  76.7984401  26.0949653  80.4244344  77.0937842  25.1860332  80.3711398
  75.8972437  26.0737393  80.1025346  88.7070480  37.8156918  87.2294752
  88.5821619  37.0146657  86.7205698  89.3649571  38.3103111  86.7408722
  80.3278648  24.1705650  86.4071893  79.6065234  24.7841618  86.2679366
  81.1171904  24.7063415  86.3288539  90.7705388  35.6165938  88.8574302
  89.8235724  35.4971289  88.7852629  91.1188161  34.7288436  88.9400564
  83.1304962  21.5060077  92.6812544  83.6539363  21.7522373  93.4438854
  82.9117295  22.3380111  92.2615682  78.5272243  23.7763751  80.5483669
  78.1984949  22.8961130  80.3658775  78.8811613  23.7211420  81.4360058
  87.7751822  35.4118654  85.0578655  87.6276784  34.4835361  85.2386225
  88.6005315  35.4338745  84.5735730  81.6414066  24.0636721  80.9159147
  81.9810138  24.5922642  80.1937755  82.0886186  24.4017127  81.6917713
  91.3785943  36.2347213  86.1443527  92.3032491  36.0290074  86.0067979
  91.2101247  35.9863614  87.0532869  84.3357507  22.4473772  90.3662215
  83.9954327  21.6481585  90.7682895  83.6296513  22.7475482  89.7939048
  84.9873978  19.5323084  88.8189538  85.8100048  19.0583562  88.6968428
  85.2312042  20.3113568  89.3188224  83.6282213  22.5611343  79.1152440
  84.3490575  22.9392595  78.6116156  83.0047517  23.2800219  79.2187418
  87.7713336  23.2656491  80.0510772  87.9876950  24.1481129  79.7499600
  87.2907403  22.8742705  79.3216414  82.5112557  26.2242205  86.6281517
  82.3657138  26.5382508  87.5205798  82.0337761  26.8427105  86.0752415
  84.3708940  23.2144753  86.6762406  84.3570509  22.3185846  86.3394704
  85.0881368  23.2215416  87.3100692  86.2235071  23.6482093  88.7215534
  85.9652849  24.5699164  88.7199864  85.6920111  23.2512527  89.4115998
  91.1681260  36.7532880  81.5005619  91.3418137  36.1879302  80.7479471
  91.6610151  37.5533775  81.3185109  76.9858219  28.7647549  89.5669178
  76.4411687  29.5407357  89.6989452  77.8637569  29.1118354  89.4088299
  83.7745836  22.0959133  81.9449976  83.8961747  21.1675779  82.1440864
  83.4847878  22.1097819  81.0328292  86.6437026  19.7814043  85.0816696
  86.6658723  19.8453376  84.1268676  87.0605085  18.9418552  85.2757202
  97.0220651  29.5169303  83.1195919  97.4651797  28.7676628  82.7215042
  96.1447161  29.5079439  82.7369651  92.1556432  36.0699644  78.6002517
  92.8507337  36.6906337  78.8189832  92.4979582  35.2194996  78.8754895
  77.7724241  27.8917445  92.4599335  77.0305977  28.0400081  93.0463965
  77.4516986  28.1525711  91.5966084  94.0547855  33.5199350  80.1289848
  94.5799179  33.8586623  79.4039168  93.9670208  32.5846365  79.9452983
  85.7167904  37.4333424  92.2579725  86.0255030  37.1882570  93.1302424
  86.5143386  37.6380062  91.7698595  85.7388516  39.5871333  84.4885101
  85.2993506  39.0947712  85.1817958  86.4896633  39.0444301  84.2477176
  78.2180855  35.7782874  84.4909729  79.0438875  35.4786646  84.1108373
  77.8674907  35.0090497  84.9399518  83.1862388  35.1309342  86.5607403
  82.5642397  34.4680047  86.2609631  83.8567255  35.1570474  85.8781051
  76.4189460  33.6969201  85.4498663  75.5821368  33.2691375  85.2682664
  76.3913105  33.8901644  86.3869454  83.2586916  23.6091130  96.1539909
  83.3075071  24.4853253  95.7717678  83.8009430  23.0668523  95.5811552
  93.7441761  34.1532254  95.4341046  92.9537305  34.1356392  94.8945545
  93.5075116  34.6920547  96.1890083  93.8639636  31.0024720  92.7473774
  93.9137641  30.8374727  93.6889297  93.7553560  30.1351979  92.3571655
  82.7475895  33.6813266  80.0365863  82.8964015  34.3648730  79.3832536
  83.5542338  33.6618356  80.5515319  91.1543399  26.9855648  94.0633081
  92.0553261  26.8462113  93.7717079  91.2291373  27.1510103  95.0031259
  85.4886204  24.3622503  92.9086267  84.6189513  24.6556069  92.6368856
  85.7245684  24.9462948  93.6293531  95.3657833  33.4221661  92.9915796
  95.0742641  33.7851642  93.8279257  94.7529964  32.7088670  92.8129128
  96.5653515  30.9874541  85.5118366  97.4000407  31.4264345  85.6755927
  96.7012644  30.5113194  84.6926612  93.6145021  28.5454276  91.4595854
  94.0899143  28.7381922  90.6514705  92.6910587  28.6013462  91.2139238
  80.5028528  29.7078443  81.0426932  80.2574570  28.8040773  81.2407142
  80.6724443  29.7095594  80.1006410  88.1925238  20.5802120  90.4251688
  88.7107182  21.3163147  90.0998176  87.8380371  20.8866113  91.2598447
  79.7724176  25.4406801  78.5413094  79.0793420  25.5151156  77.8853130
  79.5275927  24.6767144  79.0634611  88.4437832  17.0002402  85.9452584
  88.7239586  16.3325591  86.5713011  89.2288439  17.1931498  85.4327248
  86.2471301  36.1761396  77.5077611  85.6745268  36.7951583  77.0548083
  86.8204094  36.7260758  78.0417533  92.3146690  25.4220036  89.6924160
  93.2664113  25.5218134  89.7136384  92.1450141  24.6298305  90.2022244
  90.3361070  22.5075619  89.8783561  89.7411002  22.7880632  89.1830049
  90.0510767  22.9969520  90.6500302  89.4668560  36.4598546  78.6386193
  90.3999233  36.3944108  78.8419069  89.3791773  37.2954813  78.1800726
  92.0956577  35.7764417  75.5990141  92.0170209  35.4424280  76.4925899
  92.9166244  36.2686184  75.5981613  94.7934768  28.6426156  88.8066459
  94.7611088  27.7042157  88.9926143  95.4035392  28.7210193  88.0732284
  86.6318099  27.5122209  74.8493663  87.5777204  27.3828417  74.9182081
  86.2532344  26.7736871  75.3263091  94.9429257  25.4337199  88.8524742
  94.4268305  24.6495656  88.6654671  95.8269205  25.1055916  89.0171262
  92.6039984  19.1778215  84.8120555  92.4064805  18.8693303  85.6963887
  93.2139689  19.9039854  84.9418485 100.6111318  29.7042163  87.9472496
 101.3414707  29.4427451  88.5080199 100.0018264  28.9670885  87.9874564
  98.6926615  27.8450025  88.5446947  97.9659779  27.7105990  87.9363439
  98.2773902  28.1526854  89.3503665  86.5156792  31.5639955  96.3094320
  87.4359801  31.7418554  96.5034367  86.4806375  30.6196000  96.1574020
  84.8161016  25.4372185  74.7848549  83.9092472  25.1405298  74.8611262
  85.0936997  25.1402003  73.9182835  75.7338957  26.7578549  85.2347595
  75.4141741  25.9043857  84.9421969  75.1872385  26.9727127  85.9905562
  79.5118864  29.4740990  88.9517101  79.7304874  30.4058097  88.9705135
  79.9244638  29.1148964  89.7371905  86.4323082  19.9809075  80.9392790
  85.6223810  19.6356160  81.3148036  87.1207499  19.6716619  81.5280401
  88.3613630  19.0587122  82.5617086  88.9144669  19.4782575  83.2207110
  88.5983717  18.1322870  82.6040042  84.3846729  25.0474195  98.3419850
  84.2843456  25.9968552  98.2731941  84.1668271  24.7192434  97.4695920
  83.5859801  22.2959120  74.9260528  84.4478965  22.6214019  75.1856345
  83.7710145  21.5090616  74.4133593  75.6027217  30.3781460  87.2040716
  74.9090688  29.9635413  86.6910671  76.3500208  30.4201997  86.6074135
  91.7392437  21.1687647  82.0695751  91.1591106  21.8272451  81.6873803
  91.4728370  20.3464992  81.6583168  90.1896004  20.5692705  84.2717071
  90.6895782  20.6809239  83.4631390  90.8331612  20.2653757  84.9117879
  84.2478000  28.4771334  97.1584912  83.7645081  29.2771694  97.3648801
  84.3338939  28.4879279  96.2052356  77.5163959  30.3099714  85.0806731
  77.4934647  30.4087401  84.1288614  77.8264596  31.1564865  85.4023897
  80.1751337  32.3675869  89.1953346  81.1294591  32.3359811  89.1283277
  79.9763861  31.9066493  90.0103572  80.7650719  30.9376985  91.7624143
  81.5843608  31.4321064  91.7858981  81.0387527  30.0208953  91.7341711
  90.5217315  23.3287737  81.1252099  89.6343170  23.6137388  80.9072294
  90.9371304  23.1681501  80.2779376  93.8731851  23.3534258  84.8406438
  94.6492242  23.8430711  85.1131055  93.1479986  23.7792312  85.2978308
  96.3104410  24.0661878  85.8980379  96.9048901  23.8257613  85.1873687
  96.3830994  23.3469008  86.5253915  78.5301566  37.9095488  86.2123544
  78.3956034  37.1495889  85.6461542  78.1133628  38.6336388  85.7452333
  89.6660529  33.0932412  75.2200119  90.3696379  33.2982414  75.8357775
  88.9423178  33.6609174  75.4849202  90.4958339  28.8442273  81.3402389
  90.4393540  29.3010825  80.5010022  91.0486682  28.0832958  81.1625232
  94.3063145  24.6332005  82.1652509  94.0500079  24.2328641  82.9960716
  93.6816013  25.3475799  82.0402648  98.6175483  27.3728078  84.6723800
  98.0575041  27.4421268  85.4455362  98.0118986  27.1969063  83.9523296
  81.6870692  38.8064805  86.4241986  81.5703076  39.7510238  86.3220677
  80.8663138  38.5038367  86.8127786  91.5747226  33.5314941  77.2698579
  92.4092830  33.0996140  77.0876054  91.4131569  33.3596955  78.1975473
  91.2293118  30.0347054  78.6354918  91.1741922  29.8691326  77.6943362
  90.6039174  30.7423087  78.7917108  76.0185633  25.2715119  92.4616341
  76.6644497  24.7614073  92.9503566  75.8102784  26.0083801  93.0359766
  88.5439026  32.3395966  97.9608481  89.4130185  32.5136619  97.5995116
  88.0645777  33.1590383  97.8384210  84.5389244  19.5355163  78.2140237
  84.5267914  20.4797003  78.3708508  85.4312666  19.3525309  77.9199698
  82.7125206  39.4593067  89.6397915  83.6152452  39.4916678  89.9564410
  82.4862576  38.5293518  89.6544251  84.4678808  38.2124054  86.3007993
  83.5174439  38.2125916  86.1872366  84.7711294  37.4656788  85.7844028
  88.3541363  16.1297940  82.4686173  87.5873759  15.5756427  82.6142856
  88.7652068  16.2019809  83.3300325  80.3583124  22.4182736  96.5591355
  81.2214586  22.0619541  96.7694679  79.7848535  22.0796631  97.2466759
 100.2031501  44.0484592  87.3653756 100.8409911  43.9291340  86.6617096
 100.0852344  44.9965436  87.4241708  97.0121208  44.0012020  87.3015280
  96.6739719  43.8853085  86.4135815  97.8810976  43.6003185  87.2816287
  92.8708023  45.8547497  83.2912171  92.3072888  45.7637434  82.5228459
  92.7560418  45.0347401  83.7714664  97.4940991  45.1546872  93.2601486
  97.4829631  44.7599670  92.3881990  97.6561630  44.4212945  93.8535257
  90.4172455  47.3498688  86.1296392  91.2093747  47.0089513  85.7142691
  90.6569105  47.4593663  87.0498545  98.4507582  49.5218465  78.6026636
  97.7995562  50.1072545  78.2160650  99.2451945  50.0524659  78.6621674
  92.3763209  46.6107602  79.0013771  93.1494085  46.0636589  78.8626646
  92.7288608  47.4751851  79.2128232  94.2148252  47.9383984  92.2080670
  93.9238118  48.8429615  92.0927336  94.8505236  47.9800512  92.9224740
  95.1404459  45.3160832  88.7982030  95.7368031  45.0916855  88.0838993
  95.1979430  44.5745578  89.4007477  94.7129487  42.7700268  76.6332221
  94.9655008  42.2481789  75.8715684  93.7754046  42.6066413  76.7358904
  99.7572770  41.7736046  84.4406964 100.5435859  41.3555469  84.0897381
 100.0211474  42.6782138  84.6088612  99.9282847  47.2108896  79.1395621
  99.2928680  47.2843523  79.8516525  99.5980254  47.8002495  78.4614700
 105.1581197  41.7111279  85.3439942 105.8906369  41.1410496  85.5777772
 104.4020553  41.3232880  85.7846448  94.4325776  44.6728374  78.8356596
  94.3162034  43.9973277  79.5037680  94.5428036  44.1860748  78.0188749
  96.7757317  44.1338521  82.5403285  96.4115524  43.6069142  83.2516206
  97.6324433  43.7436990  82.3669770 102.6806617  35.4232853  89.8034551
 102.3489942  36.2928264  89.5795766 102.0852231  35.1069137  90.4828581
  96.4162804  39.1628421  77.5364633  96.5837206  40.0308657  77.9035104
  96.2259973  39.3255702  76.6125923  99.1738137  47.6245399  89.2030464
  98.8738860  48.5270438  89.0946271  98.8289196  47.3577583  90.0551617
  92.6250618  44.0759196  85.2367168  91.7001115  43.9435410  85.4444860
  92.8735031  44.8553416  85.7337110 102.5735281  40.1427940  86.8827901
 101.6652158  40.0743348  86.5886662 102.5222876  40.6199885  87.7109726
  96.3952024  41.6186078  78.5211300  96.2751650  42.0643129  79.3596780
  95.7004613  41.9671396  77.9624838  89.9859429  43.7192470  86.0710957
  90.1151810  43.9726949  86.9850369  89.3056881  44.3120178  85.7515612
  94.1558917  54.3889720  82.1701431  94.0782946  55.3397545  82.2489912
  93.5520560  54.0435592  82.8276358  96.6476146  41.5617585  94.8262798
  95.8709480  42.1211505  94.8165663  97.2866709  42.0474368  95.3477668
 104.4396927  38.3444378  88.6605775 103.7971307  38.6376911  88.0145569
 103.9351855  38.2297298  89.4658972 102.0937091  42.0907551  79.3491634
 103.0054947  42.3234938  79.1739332 101.5846738  42.6744595  78.7866713
  94.9022519  44.3703039  94.3880765  95.6437203  44.9088083  94.1115589
  94.1959504  44.9969327  94.5452317 100.3777858  46.5132179  92.9852927
 100.7861214  46.0714590  92.2407559  99.6555120  45.9384807  93.2387120
  96.7308928  41.4504786  90.3586484  97.5770124  41.8744199  90.5021133
  96.6707566  40.7938410  91.0525047 100.7006673  47.0733370  86.7405216
 100.0715535  47.2379084  86.0381283 100.3132335  47.4874979  87.5116180
 104.5795905  48.0087808  84.0949579 103.8946943  48.3886709  83.5446613
 104.6639754  48.6183134  84.8281527  99.8808374  39.1109154  92.0167657
  99.6369306  39.8651215  91.4801933 100.1568304  39.4894502  92.8514904
 101.8346836  45.6547767  90.6944923 102.0463732  46.2979526  90.0179304
 101.7876585  44.8210083  90.2266853  99.4373065  38.2665587  87.5981495
  98.5757544  38.5646841  87.8898233  99.4635500  38.4835986  86.6662528
  96.2534635  46.8107778  84.0055301  96.7172980  47.0895481  83.2159923
  95.9891433  45.9091222  83.8228391  93.1458716  46.3579259  86.9435064
  93.7160073  46.7866528  86.3052548  93.7366828  46.0761844  87.6419250
  95.1903521  42.9330930  80.8144866  95.8927564  43.3851974  81.2818792
  94.8584149  42.2914749  81.4424759  93.6383882  41.5242687  95.1896075
  93.0082543  42.2058968  95.4231472  93.5319970  41.4125768  94.2449213
  88.9328855  41.1914483  86.1161999  88.1427909  41.4472011  85.6402110
  89.4240102  42.0062821  86.2214040 102.9492664  48.5319722  88.8667280
 103.7710108  48.1299909  88.5849962 102.9455067  48.4287956  89.8183396
  90.8843600  41.5559062  83.0745476  90.0874763  41.6677756  83.5928972
  90.6569192  41.8945714  82.2086367  96.7149268  48.0803765  91.0227991
  96.7793700  48.5424172  91.8586163  96.0060192  47.4501130  91.1510301
  87.2166558  41.4444973  88.5476990  87.4674596  42.3291983  88.8134566
  87.7526106  41.2649575  87.7752082 111.0398657  44.8758470  85.2152252
 110.2862366  44.3065869  85.0596256 111.1746199  44.8421135  86.1622886
  96.4297285  49.7471873  80.8906971  96.2942960  50.5923408  81.3191819
  96.9707098  49.9491150  80.1272905  92.9164625  35.8263453  97.5521326
  92.5231571  35.2729651  98.2268971  93.7330765  36.1374031  97.9427844
  89.8826683  47.2647311  81.4634896  90.3951203  48.0590561  81.6140461
  90.5349396  46.5673601  81.3968498  91.6921568  50.3813067  83.5457649
  91.8688196  51.3031032  83.3578633  92.4878401  50.0671486  83.9752029
  95.8332586  37.2421332  95.1441583  96.5742299  37.8428485  95.0646045
  96.0650509  36.4998969  94.5859625  90.9773924  42.4277699  93.4219813
  90.8627439  41.5262956  93.7226911  90.1218442  42.6741396  93.0704629
  98.0565762  50.3695439  95.0207313  97.6129616  49.5831818  94.7028218
  98.7182975  50.5574590  94.3551204 100.1547000  50.6498239  93.0488714
 100.1365475  51.4707120  92.5568984 101.0766920  50.5252314  93.2738856
  96.6120054  48.1642369  93.8912223  97.1448391  47.4030657  93.6611531
  96.0834135  47.8716020  94.6336377  99.7789749  33.2702435  89.4205865
  99.4354018  34.1604076  89.3444975 100.1468712  33.0804092  88.5575450
  87.8475600  45.5935965  82.2394467  88.6850822  46.0032973  82.0228174
  88.0253867  44.6535407  82.2094661  99.7440032  43.2611046  77.9278300
  99.2286655  44.0315650  78.1666687  99.4717340  42.5876182  78.5511361
  97.3287143  38.1060747  82.9863538  96.4728739  37.7167597  82.8069177
  97.7414095  38.1852707  82.1263324  98.8586289  35.6407090  87.3855098
  98.3551085  35.6037225  86.5722903  99.1516896  36.5499832  87.4451754
  95.1029175  35.7245819  86.3921280  95.9682172  35.5288628  86.0327169
  95.1706684  35.4956171  87.3190636 104.7174306  46.0143400  79.8631473
 103.9403749  45.6754560  79.4186635 105.3965787  46.0196024  79.1886438
  99.5326335  41.1338138  79.7538081  99.2276471  41.4484287  80.6048224
 100.4856777  41.2119558  79.7965414  97.9772767  47.2928361  81.4031035
  97.4494128  46.5581121  81.0904272  97.4760270  48.0703037  81.1571003
 102.9565613  45.4877382  86.5198081 102.2989287  46.1776643  86.6078210
 103.7606012  45.8773814  86.8632067  92.7091494  37.9548027  83.7637646
  93.2835246  37.7323209  83.0310839  93.2962477  38.0236722  84.5166248
 101.7671072  43.8421754  84.5702023 102.2802953  44.4751746  85.0723733
 102.4172296  43.2422950  84.2045383  93.0361082  39.9852488  77.7833532
  92.1998394  40.3227175  78.1042806  92.8965851  39.8501468  76.8460669
  95.0114162  34.8289276  82.4912716  94.3578574  34.5138293  81.8669331
  94.9694636  34.2065017  83.2172539  96.1225367  45.1108571  74.4066008
  95.2152429  44.8797825  74.6057157  96.6196399  44.3146191  74.5939989
  99.0293446  53.8206079  77.3262694  98.3555145  54.1237775  77.9347652
  99.4159268  54.6235159  76.9768151  98.2451902  41.3171210  86.8160363
  97.3274464  41.5386157  86.6582051  98.6612046  41.3917520  85.9572071
  99.0286950  42.7162626  81.9463044  99.7758769  43.2284023  81.6370166
  99.2978540  42.3946678  82.8067437  97.3013600  45.2121166  78.9289998
  96.3924820  44.9280199  79.0262468  97.3308684  45.6320245  78.0693305
 102.5332868  48.8227756  82.6981165 102.0795195  47.9818666  82.7546356
 101.9026835  49.4589154  83.0355946 101.4765787  39.7519742  83.9281833
 100.7388544  39.2397128  84.2592076 101.7292561  39.3120123  83.1165110
 100.9765807  50.6604252  83.6330984 101.2688781  51.2209310  82.9143349
 101.4864428  50.9532813  84.3884143 101.5777415  32.5295994  84.5223602
 101.8836292  31.6693357  84.2349517 102.3030020  33.1213614  84.3222596
  87.8701771  42.9326680  82.9105200  87.6726171  42.3396041  82.1856267
  87.3148435  42.6278891  83.6281139  95.8498494  42.8249787  85.0299793
  95.9047104  41.8723623  84.9542270  95.0389696  42.9809226  85.5141092
  96.9989688  46.7529910  76.2678077  96.5609118  46.0365769  75.8083714
  97.7400129  46.9806025  75.7063168  93.7890854  41.4426847  82.7890172
  92.9758720  41.7421017  83.1955364  94.2849849  41.0482535  83.5064654
  95.9399432  51.4384604  84.7224437  95.8975611  51.6645450  83.7932969
  96.8562131  51.2047978  84.8710238  99.3865066  41.9068671  91.6205066
  99.7414454  42.1340144  92.4799532 100.0337197  42.2387048  90.9982321
 105.1162803  45.0287107  82.3254395 104.9780702  45.2188703  81.3975584
 104.7599022  45.7906490  82.7822446  93.2804929  39.0145202  88.4051407
  93.9204308  38.8733961  87.7074370  92.4482460  38.7279716  88.0290009
 105.1432183  47.0963634  87.3365667 105.5768689  47.0038923  88.1848721
 105.8563763  47.0721134  86.6985683  94.0565233  48.3147633  84.5186400
  94.8505832  47.8197953  84.3168975  93.3456925  47.7865496  84.1554105
  98.8760078  50.6965728  88.8698767  98.9297100  51.2656664  89.6376483
  98.0074859  50.8667613  88.5052804  90.3647997  42.4590714  80.5946152
  89.4345585  42.3975170  80.8116114  90.4605468  41.9366667  79.7982793
  90.2833546  38.9845527  83.1824394  90.5440363  39.8990860  83.0733554
  91.1050718  38.5169970  83.3321007  91.7558471  40.3983284  90.3523218
  92.4281524  40.1900646  89.7035867  90.9288257  40.2005370  89.9128451
 106.0047732  47.1387335  89.8698552 106.1983622  48.0433145  90.1157827
 105.9048350  46.6794754  90.7037137  97.6584043  37.0245225  92.3688879
  97.0111958  37.7235175  92.2753356  98.4285058  37.4581369  92.7365128
 101.0662841  47.2894077  95.4439433 100.9148347  47.0604629  94.5269516
 101.0567520  48.2464679  95.4570778  97.8348177  44.8625990  90.4285699
  98.7640237  45.0137150  90.2554666  97.4139207  44.9510011  89.5734346
  96.6336509  48.8876655  88.1984237  96.4947595  48.5195439  89.0710175
  95.8451105  49.4024294  88.0268194  97.2284661  53.9885751  79.5409773
  97.4036417  53.5173794  80.3555396  96.5417449  54.6151517  79.7691034
  98.1841724  48.2658257  85.5873074  97.8491557  48.2259027  86.4830724
  97.6845670  47.6002973  85.1143485  92.1585968  43.6725887  91.1125656
  92.0205766  42.9406126  91.7137195  93.0690892  43.5834787  90.8309843
 101.1200916  45.6114292  75.8610134 100.5030086  44.8861120  75.7643187
 100.6517404  46.3723652  75.5177208  94.7868269  43.3845847  90.6009335
  95.4967887  42.7439039  90.5595954  94.7437577  43.6358741  91.5235516
 102.7755047  50.3213200  93.5215914 102.7167594  49.6372420  92.8546497
 103.1774566  51.0632190  93.0696540  93.4997203  40.3711064  92.4204975
  92.9634560  39.9201803  93.0726571  92.9113911  40.5056973  91.6775439
  92.9099462  39.8299716  74.9831438  92.0328928  39.7088517  74.6193685
  93.3857215  39.0385794  74.7310327 102.7772455  48.2852784  91.7529894
 101.8899234  47.9478706  91.8756293 103.3471006  47.5535815  91.9898660
  84.4301602  44.6176876  85.0772946  85.1172642  44.3038606  84.4893961
  84.2749731  45.5218240  84.8040197  89.2336324  39.5067072  89.5057969
  89.1494513  38.8992742  88.7708379  88.4119030  39.9976090  89.5067466
  96.0963388  52.1826006  82.2293959  95.3130910  52.7247686  82.3232183
  96.7956133  52.6999986  82.6288200  99.4060038  37.9920636  84.8728164
  99.9028737  37.2390598  84.5529234  98.6347019  38.0284952  84.3071374
 107.2589795  43.6961001  86.5146456 107.2479672  44.5785717  86.1440389
 106.3907175  43.3432552  86.3200993  98.7672292  52.8441070  90.8749296
  99.4800264  53.4788535  90.8025197  98.2762320  52.9404936  90.0589298
 100.4889819  46.7492323  82.4466588  99.5546097  46.8693785  82.2771292
 100.6666487  45.8464790  82.1826597  95.9895007  40.1338019  84.5999849
  95.6192794  39.5809059  85.2880754  96.4854099  39.5296152  84.0474849
 103.8762370  42.5909642  82.9816622 104.3422822  43.4237634  82.9076924
 104.3269870  42.1254624  83.6861880  93.8184205  50.5935514  91.6954867
  94.5193665  51.2271997  91.8484261  93.3479320  50.9350245  90.9350506
 101.9438601  48.9353464  79.9802774 102.2198445  48.8210058  80.8896648
 101.0743100  48.5370948  79.9414947 101.8479033  34.9590229  87.0207523
 100.9342112  35.1894456  87.1889730 102.2772134  35.0428673  87.8721555
 101.6185491  43.1480121  89.5207417 100.9656941  43.3956029  88.8659870
 101.9965871  42.3344259  89.1869894  98.5792665  53.1839814  83.6235587
  98.7615060  52.3661470  84.0863340  99.4025651  53.4007507  83.1860477
  98.9134831  52.1107999  80.8850636  99.4422597  51.6000454  80.2720798
  99.1763050  51.7950530  81.7496169  97.6673064  43.8899932  96.0073454
  96.9913701  43.7894062  96.6775829  98.4900698  43.7339146  96.4709451
  89.4151923  50.1271869  88.6285969  90.0005360  49.3815557  88.7613874
  89.2176762  50.4375825  89.5122633  84.0069578  42.6977469  87.3490413
  84.0453678  42.1641060  88.1427531  83.5009871  42.1712674  86.7301390
  91.3860340  37.5442009  90.8452955  91.4501667  38.4056840  90.4330353
  91.3227461  36.9316011  90.1125313  90.8612613  39.6165142  94.4925989
  91.4884652  39.2342219  95.1063514  90.0040532  39.3979344  94.8581682
 101.2606721  50.0228117  96.0979725 101.8046625  50.6358075  95.6034679
 100.6793566  50.5807696  96.6146738  87.6378156  41.4241571  80.4244344
  87.9331597  40.5152250  80.3711398  86.7366191  41.4029311  80.1025346
  99.5464234  53.1448835  87.2294752  99.4215374  52.3438575  86.7205698
 100.2043325  53.6395029  86.7408722  91.1672403  39.4997568  86.4071893
  90.4458988  40.1133535  86.2679366  91.9565658  40.0355333  86.3288539
 101.6099143  50.9457855  88.8574302 100.6629478  50.8263206  88.7852629
 101.9581916  50.0580353  88.9400564  93.9698716  36.8351994  92.6812544
  94.4933118  37.0814291  93.4438854  93.7511049  37.6672029  92.2615682
  89.3665997  39.1055669  80.5483669  89.0378703  38.2253048  80.3658775
  89.7205368  39.0503337  81.4360058  98.6145576  50.7410572  85.0578655
  98.4670538  49.8127279  85.2386225  99.4399070  50.7630662  84.5735730
  92.4807820  39.3928639  80.9159147  92.8203893  39.9214560  80.1937755
  92.9279941  39.7309045  81.6917713 102.2179698  51.5639130  86.1443527
 103.1426245  51.3581992  86.0067979 102.0495001  51.3155531  87.0532869
  95.1751261  37.7765689  90.3662215  94.8348082  36.9773502  90.7682895
  94.4690267  38.0767400  89.7939048  95.8267733  34.8615002  88.8189538
  96.6493802  34.3875480  88.6968428  96.0705797  35.6405485  89.3188224
  94.4675967  37.8903260  79.1152440  95.1884330  38.2684513  78.6116156
  93.8441272  38.6092137  79.2187418  98.6107090  38.5948409  80.0510772
  98.8270705  39.4773047  79.7499600  98.1301158  38.2034623  79.3216414
  93.3506312  41.5534122  86.6281517  93.2050892  41.8674425  87.5205798
  92.8731515  42.1719023  86.0752415  95.2102695  38.5436670  86.6762406
  95.1964263  37.6477764  86.3394704  95.9275123  38.5507334  87.3100692
  97.0628825  38.9774011  88.7215534  96.8046603  39.8991081  88.7199864
  96.5313866  38.5804445  89.4115998 102.0075014  52.0824798  81.5005619
 102.1811892  51.5171220  80.7479471 102.5003905  52.8825693  81.3185109
  87.8251974  44.0939467  89.5669178  87.2805442  44.8699275  89.6989452
  88.7031324  44.4410271  89.4088299  94.6139591  37.4251051  81.9449976
  94.7355502  36.4967697  82.1440864  94.3241633  37.4389737  81.0328292
  97.4830781  35.1105961  85.0816696  97.5052478  35.1745294  84.1268676
  97.8998840  34.2710470  85.2757202 107.8614405  44.8461221  83.1195919
 108.3045551  44.0968546  82.7215042 106.9840916  44.8371357  82.7369651
 102.9950187  51.3991562  78.6002517 103.6901091  52.0198255  78.8189832
 103.3373337  50.5486913  78.8754895  88.6117996  43.2209363  92.4599335
  87.8699732  43.3691998  93.0463965  88.2910740  43.4817629  91.5966084
 104.8941610  48.8491268  80.1289848 105.4192934  49.1878540  79.4039168
 104.8063962  47.9138283  79.9452983  96.5561658  52.7625341  92.2579725
  96.8648785  52.5174488  93.1302424  97.3537140  52.9671980  91.7698595
  96.5782270  54.9163251  84.4885101  96.1387261  54.4239630  85.1817958
  97.3290387  54.3736219  84.2477176  89.0574609  51.1074792  84.4909729
  89.8832629  50.8078564  84.1108373  88.7068661  50.3382414  84.9399518
  94.0256143  50.4601260  86.5607403  93.4036152  49.7971965  86.2609631
  94.6961010  50.4862392  85.8781051  87.2583214  49.0261118  85.4498663
  86.4215123  48.5983293  85.2682664  87.2306860  49.2193562  86.3869454
  94.0980670  38.9383048  96.1539909  94.1468826  39.8145171  95.7717678
  94.6403184  38.3960441  95.5811552 104.5835516  49.4824171  95.4341046
 103.7931059  49.4648310  94.8945545 104.3468870  50.0212465  96.1890083
 104.7033391  46.3316638  92.7473774 104.7531396  46.1666645  93.6889297
 104.5947314  45.4643897  92.3571655  93.5869650  49.0105183  80.0365863
  93.7357770  49.6940648  79.3832536  94.3936093  48.9910273  80.5515319
 101.9937153  42.3147566  94.0633081 102.8947016  42.1754031  93.7717079
 102.0685128  42.4802020  95.0031259  96.3279959  39.6914420  92.9086267
  95.4583268  39.9847986  92.6368856  96.5639439  40.2754865  93.6293531
 106.2051588  48.7513579  92.9915796 105.9136396  49.1143560  93.8279257
 105.5923719  48.0380587  92.8129128 107.4047270  46.3166459  85.5118366
 108.2394161  46.7556263  85.6755927 107.5406399  45.8405112  84.6926612
 104.4538776  43.8746194  91.4595854 104.9292897  44.0673840  90.6514705
 103.5304341  43.9305380  91.2139238  91.3422282  45.0370361  81.0426932
  91.0968324  44.1332691  81.2407142  91.5118197  45.0387511  80.1006410
  99.0318992  35.9094037  90.4251688  99.5500936  36.6455064  90.0998176
  98.6774125  36.2158031  91.2598447  90.6117930  40.7698719  78.5413094
  89.9187175  40.8443074  77.8853130  90.3669682  40.0059062  79.0634611
  99.2831587  32.3294320  85.9452584  99.5633340  31.6617509  86.5713011
 100.0682193  32.5223415  85.4327248  97.0865055  51.5053314  77.5077611
  96.5139022  52.1243501  77.0548083  97.6597849  52.0552675  78.0417533
 103.1540445  40.7511954  89.6924160 104.1057868  40.8510052  89.7136384
 102.9843895  39.9590222  90.2022244 101.1754824  37.8367537  89.8783561
 100.5804756  38.1172550  89.1830049 100.8904521  38.3261438  90.6500302
 100.3062315  51.7890464  78.6386193 101.2392988  51.7236026  78.8419069
 100.2185528  52.6246731  78.1800726 102.9350331  51.1056334  75.5990141
 102.8563963  50.7716198  76.4925899 103.7559998  51.5978102  75.5981613
 105.6328523  43.9718074  88.8066459 105.6004843  43.0334074  88.9926143
 106.2429146  44.0502110  88.0732284  97.4711854  42.8414127  74.8493663
  98.4170958  42.7120335  74.9182081  97.0926098  42.1028788  75.3263091
 105.7823011  40.7629117  88.8524742 105.2662060  39.9787574  88.6654671
 106.6662960  40.4347834  89.0171262 103.4433738  34.5070133  84.8120555
 103.2458559  34.1985221  85.6963887 104.0533444  35.2331771  84.9418485
 111.4505073  45.0334080  87.9472496 112.1808461  44.7719369  88.5080199
 110.8412018  44.2962802  87.9874564 109.5320370  43.1741943  88.5446947
 108.8053533  43.0397908  87.9363439 109.1167657  43.4818772  89.3503665
  97.3550546  46.8931873  96.3094320  98.2753556  47.0710472  96.5034367
  97.3200129  45.9487918  96.1574020  95.6554771  40.7664103  74.7848549
  94.7486226  40.4697216  74.8611262  95.9330752  40.4693921  73.9182835
  86.5732711  42.0870466  85.2347595  86.2535495  41.2335775  84.9421969
  86.0266139  42.3019044  85.9905562  90.3512619  44.8032907  88.9517101
  90.5698628  45.7350015  88.9705135  90.7638392  44.4440882  89.7371905
  97.2716836  35.3100993  80.9392790  96.4617565  34.9648078  81.3148036
  97.9601253  35.0008536  81.5280401  99.2007385  34.3879039  82.5617086
  99.7538423  34.8074493  83.2207110  99.4377471  33.4614788  82.6040042
  95.2240484  40.3766113  98.3419850  95.1237211  41.3260470  98.2731941
  95.0062026  40.0484352  97.4695920  94.4253555  37.6251038  74.9260528
  95.2872719  37.9505936  75.1856345  94.6103899  36.8382534  74.4133593
  86.4420971  45.7073378  87.2040716  85.7484443  45.2927331  86.6910671
  87.1893962  45.7493914  86.6074135 102.5786192  36.4979565  82.0695751
 101.9984861  37.1564369  81.6873803 102.3122124  35.6756909  81.6583168
 101.0289758  35.8984622  84.2717071 101.5289537  36.0101157  83.4631390
 101.6725366  35.5945675  84.9117879  95.0871754  43.8063252  97.1584912
  94.6038836  44.6063612  97.3648801  95.1732693  43.8171197  96.2052356
  88.3557714  45.6391632  85.0806731  88.3328402  45.7379319  84.1288614
  88.6658350  46.4856782  85.4023897  91.0145091  47.6967787  89.1953346
  91.9688345  47.6651729  89.1283277  90.8157615  47.2358410  90.0103572
  91.6044474  46.2668903  91.7624143  92.4237363  46.7612981  91.7858981
  91.8781281  45.3500871  91.7341711 101.3611070  38.6579655  81.1252099
 100.4736925  38.9429306  80.9072294 101.7765059  38.4973418  80.2779376
 104.7125606  38.6826176  84.8406438 105.4885996  39.1722628  85.1131055
 103.9873740  39.1084230  85.2978308 107.1498165  39.3953795  85.8980379
 107.7442655  39.1549531  85.1873687 107.2224748  38.6760926  86.5253915
  89.3695320  53.2387406  86.2123544  89.2349788  52.4787807  85.6461542
  88.9527383  53.9628306  85.7452333 100.5054283  48.4224330  75.2200119
 101.2090133  48.6274332  75.8357775  99.7816932  48.9901092  75.4849202
 101.3352094  44.1734191  81.3402389 101.2787295  44.6302742  80.5010022
 101.8880436  43.4124876  81.1625232 105.1456899  39.9623923  82.1652509
 104.8893834  39.5620558  82.9960716 104.5209767  40.6767717  82.0402648
 109.4569237  42.7019996  84.6723800 108.8968795  42.7713185  85.4455362
 108.8512741  42.5260981  83.9523296 102.4140981  48.8606859  77.2698579
 103.2486585  48.4288057  77.0876054 102.2525324  48.6888873  78.1975473
 102.0686873  45.3638972  78.6354918 102.0135677  45.1983244  77.6943362
 101.4432928  46.0715005  78.7917108  86.8579388  40.6007037  92.4616341
  87.5038251  40.0905991  92.9503566  86.6496539  41.3375718  93.0359766
  99.3832780  47.6687884  97.9608481 100.2523940  47.8428536  97.5995116
  98.9039532  48.4882301  97.8384210  95.3782998  34.8647081  78.2140237
  95.3661668  35.8088921  78.3708508  96.2706420  34.6817227  77.9199698
  99.1935118  31.4589858  82.4686173  98.4267514  30.9048345  82.6142856
  99.6045823  31.5311727  83.3300325  91.1976879  37.7474654  96.5591355
  92.0608340  37.3911458  96.7694679  90.6242289  37.4088548  97.2466759
 111.0425256  59.3776510  87.3653756 111.6803666  59.2583257  86.6617096
 110.9246099  60.3257354  87.4241708 107.8514962  59.3303938  87.3015280
 107.5133474  59.2145003  86.4135815 108.7204730  58.9295103  87.2816287
 103.7101778  61.1839414  83.2912171 103.1466643  61.0929351  82.5228459
 103.5954173  60.3639319  83.7714664 108.3334745  60.4838790  93.2601486
 108.3223386  60.0891588  92.3881990 108.4955385  59.7504862  93.8535257
 109.2901336  64.8510382  78.6026636 108.6389316  65.4364463  78.2160650
 110.0845699  65.3816577  78.6621674 103.2156964  61.9399519  79.0013771
 103.9887840  61.3928506  78.8626646 103.5682362  62.8043769  79.2128232
 105.0542006  63.2675902  92.2080670 104.7631872  64.1721532  92.0927336
 105.6898991  63.3092429  92.9224740 105.5523241  58.0992185  76.6332221
 105.8048762  57.5773707  75.8715684 104.6147801  57.9358331  76.7358904
 110.5966524  57.1027964  84.4406964 111.3829613  56.6847387  84.0897381
 110.8605229  58.0074056  84.6088612 110.7676602  62.5400814  79.1395621
 110.1322435  62.6135441  79.8516525 110.4374008  63.1294413  78.4614700
 115.9974951  57.0403197  85.3439942 116.7300123  56.4702414  85.5777772
 115.2414307  56.6524797  85.7846448 105.2719530  60.0020291  78.8356596
 105.1555788  59.3265195  79.5037680 105.3821790  59.5152665  78.0188749
 107.6151071  59.4630439  82.5403285 107.2509278  58.9361059  83.2516206
 108.4718187  59.0728908  82.3669770 113.5200372  50.7524771  89.8034551
 113.1883697  51.6220182  89.5795766 112.9245985  50.4361055  90.4828581
 107.2556558  54.4920338  77.5364633 107.4230960  55.3600575  77.9035104
 107.0653727  54.6547620  76.6125923 110.0131891  62.9537317  89.2030464
 109.7132614  63.8562356  89.0946271 109.6682951  62.6869500  90.0551617
 103.4644373  59.4051114  85.2367168 102.5394869  59.2727328  85.4444860
 103.7128786  60.1845333  85.7337110 113.4129035  55.4719857  86.8827901
 112.5045912  55.4035266  86.5886662 113.3616631  55.9491802  87.7109726
 107.2345779  56.9477996  78.5211300 107.1145404  57.3935046  79.3596780
 106.5398367  57.2963313  77.9624838 104.9952671  69.7181637  82.1701431
 104.9176701  70.6689463  82.2489912 104.3914315  69.3727510  82.8276358
 107.4869901  56.8909503  94.8262798 106.7103235  57.4503423  94.8165663
 108.1260464  57.3766286  95.3477668 115.2790681  53.6736296  88.6605775
 114.6365062  53.9668829  88.0145569 114.7745610  53.5589216  89.4658972
 112.9330845  57.4199469  79.3491634 113.8448701  57.6526856  79.1739332
 112.4240492  58.0036513  78.7866713 105.7416273  59.6994956  94.3880765
 106.4830958  60.2380000  94.1115589 105.0353259  60.3261245  94.5452317
 111.2171613  61.8424097  92.9852927 111.6254969  61.4006507  92.2407559
 110.4948874  61.2676724  93.2387120 107.5702683  56.7796703  90.3586484
 108.4163878  57.2036117  90.5021133 107.5101321  56.1230328  91.0525047
 111.5400427  62.4025287  86.7405216 110.9109290  62.5671001  86.0381283
 111.1526090  62.8166897  87.5116180 115.4189659  63.3379725  84.0949579
 114.7340697  63.7178627  83.5446613 115.5033509  63.9475052  84.8281527
 110.7202128  54.4401072  92.0167657 110.4763060  55.1943132  91.4801933
 110.9962059  54.8186419  92.8514904 112.6740591  60.9839684  90.6944923
 112.8857486  61.6271444  90.0179304 112.6270339  60.1502001  90.2266853
 110.2766820  53.5957505  87.5981495 109.4151299  53.8938758  87.8898233
 110.3029255  53.8127904  86.6662528 107.0928389  62.1399695  84.0055301
 107.5566735  62.4187398  83.2159923 106.8285187  61.2383140  83.8228391
 106.0297275  58.2622848  80.8144866 106.7321319  58.7143891  81.2818792
 105.6977904  57.6206667  81.4424759 104.4777637  56.8534604  95.1896075
 103.8476297  57.5350885  95.4231472 104.3713725  56.7417686  94.2449213
 113.7886419  63.8611640  88.8667280 114.6103863  63.4591827  88.5849962
 113.7848822  63.7579874  89.8183396 101.7237355  56.8850980  83.0745476
 100.9268518  56.9969674  83.5928972 101.4962947  57.2237632  82.2086367
 107.5543022  63.4095683  91.0227991 107.6187455  63.8716090  91.8586163
 106.8453946  62.7793048  91.1510301 107.2691040  65.0763790  80.8906971
 107.1336715  65.9215326  81.3191819 107.8100852  65.2783068  80.1272905
 103.7558380  51.1555370  97.5521326 103.3625325  50.6021569  98.2268971
 104.5724520  51.4665949  97.9427844 102.5315322  65.7104985  83.5457649
 102.7081950  66.6322949  83.3578633 103.3272156  65.3963404  83.9752029
 106.6726341  52.5713249  95.1441583 107.4136054  53.1720402  95.0646045
 106.9044263  51.8290887  94.5859625 108.8959516  65.6987357  95.0207313
 108.4523371  64.9123735  94.7028218 109.5576730  65.8866507  94.3551204
 110.9940754  65.9790157  93.0488714 110.9759230  66.7999038  92.5568984
 111.9160674  65.8544232  93.2738856 107.4513809  63.4934286  93.8912223
 107.9842145  62.7322575  93.6611531 106.9227890  63.2007938  94.6336377
 110.6183504  48.5994352  89.4205865 110.2747773  49.4895994  89.3444975
 110.9862466  48.4096010  88.5575450 110.5833786  58.5902963  77.9278300
 110.0680410  59.3607568  78.1666687 110.3111095  57.9168100  78.5511361
 108.1680897  53.4352664  82.9863538 107.3122494  53.0459515  82.8069177
 108.5807849  53.5144625  82.1263324 109.6980044  50.9699007  87.3855098
 109.1944840  50.9329143  86.5722903 109.9910651  51.8791750  87.4451754
 105.9422930  51.0537737  86.3921280 106.8075927  50.8580546  86.0327169
 106.0100439  50.8248089  87.3190636 115.5568060  61.3435318  79.8631473
 114.7797503  61.0046478  79.4186635 116.2359541  61.3487941  79.1886438
 110.3720089  56.4630056  79.7538081 110.0670225  56.7776205  80.6048224
 111.3250532  56.5411475  79.7965414 108.8166521  62.6220279  81.4031035
 108.2887883  61.8873038  81.0904272 108.3154024  63.3994955  81.1571003
 113.7959367  60.8169299  86.5198081 113.1383042  61.5068561  86.6078210
 114.5999767  61.2065731  86.8632067 103.5485249  53.2839945  83.7637646
 104.1229001  53.0615127  83.0310839 104.1356231  53.3528640  84.5166248
 112.6064826  59.1713672  84.5702023 113.1196708  59.8043664  85.0723733
 113.2566050  58.5714868  84.2045383 103.8754836  55.3144406  77.7833532
 103.0392148  55.6519093  78.1042806 103.7359606  55.1793386  76.8460669
 105.8507917  50.1581194  82.4912716 105.1972329  49.8430211  81.8669331
 105.8088391  49.5356934  83.2172539 106.9619121  60.4400489  74.4066008
 106.0546183  60.2089743  74.6057157 107.4590153  59.6438108  74.5939989
 109.8687200  69.1497996  77.3262694 109.1948899  69.4529693  77.9347652
 110.2553022  69.9527077  76.9768151 109.0845657  56.6463128  86.8160363
 108.1668218  56.8678075  86.6582051 109.5005801  56.7209438  85.9572071
 109.8680705  58.0454543  81.9463044 110.6152524  58.5575940  81.6370166
 110.1372294  57.7238596  82.8067437 108.1407355  60.5413084  78.9289998
 107.2318574  60.2572117  79.0262468 108.1702439  60.9612163  78.0693305
 113.3726622  64.1519673  82.6981165 112.9188949  63.3110583  82.7546356
 112.7420589  64.7881072  83.0355946 112.3159542  55.0811659  83.9281833
 111.5782299  54.5689046  84.2592076 112.5686315  54.6412041  83.1165110
 111.8159562  65.9896170  83.6330984 112.1082536  66.5501227  82.9143349
 112.3258182  66.2824731  84.3884143 112.4171169  47.8587911  84.5223602
 112.7230046  46.9985275  84.2349517 113.1423774  48.4505532  84.3222596
  98.7095525  58.2618598  82.9105200  98.5119925  57.6687959  82.1856267
  98.1542189  57.9570808  83.6281139 106.6892249  58.1541705  85.0299793
 106.7440859  57.2015541  84.9542270 105.8783451  58.3101144  85.5141092
 107.8383443  62.0821828  76.2678077 107.4002873  61.3657687  75.8083714
 108.5793884  62.3097942  75.7063168 104.6284609  56.7718764  82.7890172
 103.8152474  57.0712935  83.1955364 105.1243603  56.3774453  83.5064654
 106.7793187  66.7676521  84.7224437 106.7369366  66.9937368  83.7932969
 107.6955886  66.5339896  84.8710238 110.2258821  57.2360589  91.6205066
 110.5808208  57.4632062  92.4799532 110.8730952  57.5678966  90.9982321
 115.9556557  60.3579025  82.3254395 115.8174456  60.5480621  81.3975584
 115.5992776  61.1198407  82.7822446 104.1198684  54.3437120  88.4051407
 104.7598063  54.2025879  87.7074370 103.2876214  54.0571633  88.0290009
 115.9825937  62.4255552  87.3365667 116.4162444  62.3330841  88.1848721
 116.6957518  62.4013052  86.6985683 109.7153832  66.0257646  88.8698767
 109.7690854  66.5948582  89.6376483 108.8468613  66.1959531  88.5052804
 101.2041751  57.7882632  80.5946152 100.2739339  57.7267087  80.8116114
 101.2999223  57.2658585  79.7982793 101.1227300  54.3137445  83.1824394
 101.3834117  55.2282778  83.0733554 101.9444472  53.8461887  83.3321007
 116.8441487  62.4679252  89.8698552 117.0377377  63.3725063  90.1157827
 116.7442105  62.0086671  90.7037137 108.4977797  52.3537143  92.3688879
 107.8505712  53.0527093  92.2753356 109.2678813  52.7873287  92.7365128
 111.9056595  62.6185995  95.4439433 111.7542102  62.3896547  94.5269516
 111.8961275  63.5756596  95.4570778 108.6741932  60.1917908  90.4285699
 109.6033992  60.3429067  90.2554666 108.2532962  60.2801929  89.5734346
 108.0678415  69.3177669  79.5409773 108.2430171  68.8465712  80.3555396
 107.3811204  69.9443435  79.7691034 109.0235479  63.5950175  85.5873074
 108.6885311  63.5550945  86.4830724 108.5239424  62.9294891  85.1143485
 111.9594670  60.9406209  75.8610134 111.3423841  60.2153037  75.7643187
 111.4911159  61.7015570  75.5177208 113.6148802  65.6505118  93.5215914
 113.5561348  64.9664338  92.8546497 114.0168320  66.3924108  93.0696540
 102.6339501  72.4667031  86.3149633 102.8736099  73.0985556  86.9928652
 101.7908697  72.1155071  86.6014993 103.7493216  55.1591634  74.9831438
 102.8722683  55.0380434  74.6193685 104.2250969  54.3677712  74.7310327
 113.6166209  63.6144702  91.7529894 112.7292988  63.2770623  91.8756293
 114.1864760  62.8827733  91.9898660 107.1467363  68.2746154  88.7191137
 107.0737534  69.0801125  89.2310442 106.7044756  68.4738120  87.8939159
 106.9357142  67.5117924  82.2293959 106.1524664  68.0539604  82.3232183
 107.6349887  68.0291904  82.6288200 110.2453792  53.3212553  84.8728164
 110.7422492  52.5682516  84.5529234 109.4740774  53.3576870  84.3071374
 118.0983550  59.0252919  86.5146456 118.0873426  59.9077634  86.1440389
 117.2300929  58.6724470  86.3200993 109.6066046  68.1732988  90.8749296
 110.3194018  68.8080453  90.8025197 109.1156075  68.2696854  90.0589298
 111.3283573  62.0784241  82.4466588 110.3939852  62.1985703  82.2771292
 111.5060242  61.1756707  82.1826597 106.8288761  55.4629936  84.5999849
 106.4586549  54.9100977  85.2880754 107.3247854  54.8588070  84.0474849
 114.7156124  57.9201560  82.9816622 115.1816577  58.7529551  82.9076924
 115.1663625  57.4546541  83.6861880 112.7832356  64.2645381  79.9802774
 113.0592199  64.1501976  80.8896648 111.9136854  63.8662866  79.9414947
 112.6872787  50.2882147  87.0207523 111.7735867  50.5186374  87.1889730
 113.1165889  50.3720591  87.8721555 112.4579246  58.4772039  89.5207417
 111.8050696  58.7247946  88.8659870 112.8359626  57.6636177  89.1869894
 109.4186420  68.5131732  83.6235587 109.6008814  67.6953388  84.0863340
 110.2419406  68.7299424  83.1860477 109.7528585  67.4399917  80.8850636
 110.2816351  66.9292372  80.2720798 110.0156805  67.1242447  81.7496169
 108.5066819  59.2191850  96.0073454 107.8307456  59.1185979  96.6775829
 109.3294453  59.0631064  96.4709451 103.1084333  68.4915034  83.6448412
 102.4394708  68.9761161  83.1612452 102.9697203  68.7384254  84.5591790
 107.2489602  70.5258777  90.2431070 107.8007910  70.6890399  91.0080155
 107.5895795  71.1163215  89.5711095 102.2254095  52.8733927  90.8452955
 102.2895421  53.7348758  90.4330353 102.1621215  52.2607929  90.1125313
 101.7006367  54.9457060  94.4925989 102.3278406  54.5634137  95.1063514
 100.8434286  54.7271262  94.8581682 112.1000476  65.3520035  96.0979725
 112.6440380  65.9649993  95.6034679 111.5187321  65.9099613  96.6146738
  98.4771910  56.7533489  80.4244344  98.7725351  55.8444167  80.3711398
  97.5759946  56.7321228  80.1025346 110.3857989  68.4740753  87.2294752
 110.2609128  67.6730493  86.7205698 111.0437080  68.9686946  86.7408722
 102.0066157  54.8289485  86.4071893 101.2852743  55.4425453  86.2679366
 102.7959413  55.3647250  86.3288539 112.4492897  66.2749773  88.8574302
 111.5023233  66.1555124  88.7852629 112.7975670  65.3872271  88.9400564
 104.8092471  52.1643912  92.6812544 105.3326872  52.4106208  93.4438854
 104.5904804  52.9963947  92.2615682 100.2059752  54.4347586  80.5483669
  99.8772458  53.5544965  80.3658775 100.5599122  54.3795255  81.4360058
 109.4539331  66.0702489  85.0578655 109.3064293  65.1419197  85.2386225
 110.2792824  66.0922580  84.5735730 103.3201575  54.7220556  80.9159147
 103.6597647  55.2506478  80.1937755 103.7673695  55.0600962  81.6917713
 113.0573452  66.8931048  86.1443527 113.9820000  66.6873909  86.0067979
 112.8888756  66.6447449  87.0532869 106.0145016  53.1057607  90.3662215
 105.6741836  52.3065420  90.7682895 105.3084022  53.4059318  89.7939048
 106.6661487  50.1906919  88.8189538 107.4887557  49.7167398  88.6968428
 106.9099551  50.9697403  89.3188224 105.3069722  53.2195178  79.1152440
 106.0278084  53.5976431  78.6116156 104.6835026  53.9384055  79.2187418
 109.4500845  53.9240327  80.0510772 109.6664459  54.8064965  79.7499600
 108.9694912  53.5326540  79.3216414 106.0496449  53.8728588  86.6762406
 106.0358018  52.9769681  86.3394704 106.7668877  53.8799252  87.3100692
 107.9022580  54.3065928  88.7215534 107.6440358  55.2282999  88.7199864
 107.3707620  53.9096363  89.4115998 112.8468769  67.4116715  81.5005619
 113.0205646  66.8463138  80.7479471 113.3397660  68.2117610  81.3185109
 105.4533345  52.7542968  81.9449976 105.5749256  51.8259614  82.1440864
 105.1635387  52.7681654  81.0328292 108.3224535  50.4397879  85.0816696
 108.3446232  50.5037212  84.1268676 108.7392594  49.6002387  85.2757202
 113.8343941  66.7283480  78.6002517 114.5294846  67.3490172  78.8189832
 114.1767091  65.8778831  78.8754895 115.7335364  64.1783185  80.1289848
 116.2586688  64.5170458  79.4039168 115.6457717  63.2430201  79.9452983
 107.3955413  68.0917259  92.2579725 107.7042539  67.8466406  93.1302424
 108.1930895  68.2963897  91.7698595 107.4176025  70.2455169  84.4885101
 106.9781015  69.7531547  85.1817958 108.1684142  69.7028136  84.2477176
 104.9374425  54.2674966  96.1539909 104.9862580  55.1437088  95.7717678
 105.4796939  53.7252359  95.5811552 115.4229270  64.8116089  95.4341046
 114.6324814  64.7940228  94.8945545 115.1862625  65.3504383  96.1890083
 115.5427145  61.6608555  92.7473774 115.5925150  61.4958563  93.6889297
 115.4341069  60.7935814  92.3571655 104.4263404  64.3397101  80.0365863
 104.5751524  65.0232565  79.3832536 105.2329847  64.3202191  80.5515319
 112.8330908  57.6439483  94.0633081 113.7340770  57.5045948  93.7717079
 112.9078882  57.8093938  95.0031259 107.1673713  55.0206338  92.9086267
 106.2977022  55.3139904  92.6368856 107.4033193  55.6046783  93.6293531
 117.0445342  64.0805497  92.9915796 116.7530150  64.4435477  93.8279257
 116.4317473  63.3672505  92.8129128 115.2932530  59.2038111  91.4595854
 115.7686652  59.3965758  90.6514705 114.3698096  59.2597297  91.2139238
 102.1816037  60.3662279  81.0426932 101.9362079  59.4624609  81.2407142
 102.3511952  60.3679429  80.1006410 109.8712747  51.2385955  90.4251688
 110.3894691  51.9746982  90.0998176 109.5167880  51.5449948  91.2598447
 101.4511685  56.0990636  78.5413094 100.7580929  56.1734991  77.8853130
 101.2063436  55.3350980  79.0634611 110.1225341  47.6586238  85.9452584
 110.4027095  46.9909427  86.5713011 110.9075948  47.8515333  85.4327248
 107.9258810  66.8345231  77.5077611 107.3532777  67.4535419  77.0548083
 108.4991603  67.3844593  78.0417533 113.9934199  56.0803872  89.6924160
 114.9451622  56.1801969  89.7136384 113.8237650  55.2882140  90.2022244
 112.0148579  53.1659455  89.8783561 111.4198511  53.4464467  89.1830049
 111.7298276  53.6553356  90.6500302 111.1456069  67.1182382  78.6386193
 112.0786742  67.0527943  78.8419069 111.0579282  67.9538648  78.1800726
 113.7744086  66.4348252  75.5990141 113.6957718  66.1008116  76.4925899
 114.5953753  66.9270020  75.5981613 116.4722277  59.3009991  88.8066459
 116.4398597  58.3625992  88.9926143 117.0822901  59.3794028  88.0732284
 108.3105608  58.1706044  74.8493663 109.2564713  58.0412252  74.9182081
 107.9319853  57.4320706  75.3263091 116.6216766  56.0921035  88.8524742
 116.1055814  55.3079491  88.6654671 117.5056714  55.7639751  89.0171262
 114.2827493  49.8362050  84.8120555 114.0852314  49.5277138  85.6963887
 114.8927198  50.5623689  84.9418485 108.1944301  62.2223790  96.3094320
 109.1147310  62.4002389  96.5034367 108.1593884  61.2779836  96.1574020
 106.4948525  56.0956021  74.7848549 105.5879981  55.7989133  74.8611262
 106.7724506  55.7985839  73.9182835 108.1110591  50.6392910  80.9392790
 107.3011319  50.2939995  81.3148036 108.7995008  50.3300454  81.5280401
 110.0401139  49.7170957  82.5617086 110.5932178  50.1366411  83.2207110
 110.2771226  48.7906705  82.6040042 106.0634238  55.7058031  98.3419850
 105.9630965  56.6552388  98.2731941 105.8455780  55.3776270  97.4695920
 105.2647310  52.9542956  74.9260528 106.1266474  53.2797854  75.1856345
 105.4497654  52.1674452  74.4133593 113.4179946  51.8271482  82.0695751
 112.8378615  52.4856286  81.6873803 113.1515879  51.0048827  81.6583168
 111.8683513  51.2276540  84.2717071 112.3683291  51.3393075  83.4631390
 112.5119121  50.9237593  84.9117879 105.9265508  59.1355170  97.1584912
 105.4432590  59.9355530  97.3648801 106.0126448  59.1463114  96.2052356
 112.2004824  53.9871573  81.1252099 111.3130679  54.2721223  80.9072294
 112.6158813  53.8265336  80.2779376 115.5519360  54.0118094  84.8406438
 116.3279751  54.5014546  85.1131055 114.8267495  54.4376148  85.2978308
 100.2089075  68.5679324  86.2123544 100.0743543  67.8079725  85.6461542
  99.7921137  69.2920224  85.7452333 111.3448038  63.7516247  75.2200119
 112.0483888  63.9566250  75.8357775 110.6210687  64.3193009  75.4849202
 112.1745848  59.5026109  81.3402389 112.1181049  59.9594660  80.5010022
 112.7274191  58.7416793  81.1625232 115.9850654  55.2915840  82.1652509
 115.7287588  54.8912476  82.9960716 115.3603522  56.0059634  82.0402648
 103.3658201  69.4648641  86.4241986 103.2490585  70.4094073  86.3220677
 102.5450647  69.1622202  86.8127786 113.2534735  64.1898777  77.2698579
 114.0880339  63.7579975  77.0876054 113.0919078  64.0180790  78.1975473
 112.9080627  60.6930890  78.6354918 112.8529431  60.5275161  77.6943362
 112.2826683  61.4006923  78.7917108 110.2226535  62.9979802  97.9608481
 111.0917694  63.1720454  97.5995116 109.7433286  63.8174219  97.8384210
 106.2176753  50.1938999  78.2140237 106.2055423  51.1380839  78.3708508
 107.1100175  50.0109144  77.9199698 104.3912715  70.1176903  89.6397915
 105.2939961  70.1500513  89.9564410 104.1650085  69.1877354  89.6544251
 106.1466317  68.8707889  86.3007993 105.1961948  68.8709751  86.1872366
 106.4498803  68.1240624  85.7844028 110.0328872  46.7881775  82.4686173
 109.2661268  46.2340262  82.6142856 110.4439577  46.8603644  83.3300325
 102.0370633  53.0766571  96.5591355 102.9002095  52.7203376  96.7694679
 101.4636044  52.7380466  97.2466759 114.5495532  76.5131332  83.2912171
 113.9860397  76.4221269  82.5228459 114.4347927  75.6931237  83.7714664
 112.0959964  78.0082524  86.1296392 112.8881256  77.6673348  85.7142691
 112.3356614  78.1177499  87.0498545 114.0550718  77.2691437  79.0013771
 114.8281594  76.7220424  78.8626646 114.4076117  78.1335686  79.2128232
 115.8935761  78.5967819  92.2080670 115.6025627  79.5013450  92.0927336
 116.5292745  78.6384347  92.9224740 116.8191968  75.9744668  88.7982030
 117.4155540  75.7500690  88.0838993 116.8766939  75.2329413  89.4007477
 116.3916996  73.4284103  76.6332221 116.6442517  72.9065624  75.8715684
 115.4541555  73.2650249  76.7358904 116.1113285  75.3312209  78.8356596
 115.9949543  74.6557112  79.5037680 116.2215545  74.8444583  78.0188749
 118.0950313  69.8212256  77.5364633 118.2624715  70.6892492  77.9035104
 117.9047482  69.9839538  76.6125923 114.3038127  74.7343032  85.2367168
 113.3788624  74.6019246  85.4444860 114.5522540  75.5137251  85.7337110
 118.0739533  72.2769913  78.5211300 117.9539159  72.7226964  79.3596780
 117.3792122  72.6255231  77.9624838 111.6646938  74.3776305  86.0710957
 111.7939319  74.6310784  86.9850369 110.9844390  74.9704013  85.7515612
 115.8346426  85.0473555  82.1701431 115.7570455  85.9981380  82.2489912
 115.2308069  84.7019428  82.8276358 116.5810028  75.0286874  94.3880765
 117.3224712  75.5671918  94.1115589 115.8747013  75.6553163  94.5452317
 114.8246225  77.0163095  86.9435064 115.3947582  77.4450363  86.3052548
 115.4154337  76.7345679  87.6419250 116.8691030  73.5914765  80.8144866
 117.5715073  74.0435809  81.2818792 116.5371658  72.9498584  81.4424759
 115.3171391  72.1826522  95.1896075 114.6870052  72.8642803  95.4231472
 115.2107479  72.0709604  94.2449213 110.6116364  71.8498318  86.1161999
 109.8215418  72.1055847  85.6402110 111.1027611  72.6646656  86.2214040
 112.5631109  72.2142897  83.0745476 111.7662272  72.3261592  83.5928972
 112.3356701  72.5529550  82.2086367 108.8954067  72.1028809  88.5476990
 109.1462105  72.9875818  88.8134566 109.4313615  71.9233410  87.7752082
 114.5952134  66.4847288  97.5521326 114.2019080  65.9313486  98.2268971
 115.4118274  66.7957866  97.9427844 111.5614192  77.9231146  81.4634896
 112.0738712  78.7174396  81.6140461 112.2136905  77.2257437  81.3968498
 113.3709077  81.0396902  83.5457649 113.5475705  81.9614867  83.3578633
 114.1665910  80.7255322  83.9752029 117.5120095  67.9005167  95.1441583
 118.2529808  68.5012320  95.0646045 117.7438018  67.1582805  94.5859625
 112.6561433  73.0861534  93.4219813 112.5414948  72.1846792  93.7226911
 111.8005951  73.3325231  93.0704629 114.4940392  82.5575076  89.5467992
 115.0447817  82.4292140  88.7744986 113.6551868  82.8569965  89.1962884
 109.5263109  76.2519800  82.2394467 110.3638331  76.6616809  82.0228174
 109.7041376  75.3119243  82.2094661 116.7816684  66.3829655  86.3921280
 117.6469681  66.1872464  86.0327169 116.8494193  66.1540007  87.3190636
 114.3879003  68.6131863  83.7637646 114.9622755  68.3907044  83.0310839
 114.9749986  68.6820557  84.5166248 114.7148590  70.6436324  77.7833532
 113.8785903  70.9811010  78.1042806 114.5753360  70.5085304  76.8460669
 116.6901671  65.4873112  82.4912716 116.0366083  65.1722129  81.8669331
 116.6482145  64.8648852  83.2172539 109.5489280  73.5910516  82.9105200
 109.3513680  72.9979876  82.1856267 108.9935944  73.2862726  83.6281139
 117.5286003  73.4833622  85.0299793 117.5834613  72.5307459  84.9542270
 116.7177205  73.6393061  85.5141092 115.4678363  72.1010682  82.7890172
 114.6546229  72.4004853  83.1955364 115.9637358  71.7066371  83.5064654
 114.9592438  69.6729037  88.4051407 115.5991817  69.5317797  87.7074370
 114.1269969  69.3863551  88.0290009 115.7352742  78.9731468  84.5186400
 116.5293341  78.4781788  84.3168975 115.0244434  78.4449331  84.1554105
 112.0435505  73.1174550  80.5946152 111.1133094  73.0559005  80.8116114
 112.1392977  72.5950502  79.7982793 111.9621055  69.6429362  83.1824394
 112.2227872  70.5574696  83.0733554 112.7838227  69.1753805  83.3321007
 113.4345980  71.0567120  90.3523218 114.1069033  70.8484482  89.7035867
 112.6075766  70.8589206  89.9128451 113.8373477  74.3309723  91.1125656
 113.6993275  73.5989961  91.7137195 114.7478401  74.2418623  90.8309843
 116.4655778  74.0429682  90.6009335 117.1755396  73.4022874  90.5595954
 116.4225086  74.2942577  91.5235516 115.1784712  71.0294900  92.4204975
 114.6422069  70.5785638  93.0726571 114.5901420  71.1640809  91.6775439
 113.4733255  87.7958949  86.3149633 113.7129853  88.4277473  86.9928652
 112.6302452  87.4446989  86.6014993 114.5886971  70.4883551  74.9831438
 113.7116437  70.3672352  74.6193685 115.0644724  69.6969630  74.7310327
 106.1089111  75.2760711  85.0772946 106.7960151  74.9622441  84.4893961
 105.9537240  76.1802076  84.8040197 110.9123833  70.1650908  89.5057969
 110.8282022  69.5576577  88.7708379 110.0906539  70.6559926  89.5067466
 117.9861117  83.6038072  88.7191137 117.9131289  84.4093043  89.2310442
 117.5438510  83.8030037  87.8939159 117.6682516  70.7921854  84.5999849
 117.2980303  70.2392894  85.2880754 118.1641608  70.1879988  84.0474849
 115.4971714  81.2519349  91.6954867 116.1981174  81.8855832  91.8484261
 115.0266829  81.5934081  90.9350506 111.0939432  80.7855704  88.6285969
 111.6792869  80.0399392  88.7613874 110.8964271  81.0959661  89.5122633
 113.9478087  83.8206952  83.6448412 113.2788463  84.3053079  83.1612452
 113.8090957  84.0676172  84.5591790 105.6857087  73.3561304  87.3490413
 105.7241187  72.8224895  88.1427531 105.1797380  72.8296510  86.7301390
 113.0647849  68.2025845  90.8452955 113.1289176  69.0640676  90.4330353
 113.0014970  67.5899846  90.1125313 112.5400122  70.2748977  94.4925989
 113.1672161  69.8926055  95.1063514 111.6828041  70.0563179  94.8581682
 109.3165665  72.0825406  80.4244344 109.6119106  71.1736085  80.3711398
 108.4153700  72.0613146  80.1025346 112.8459912  70.1581403  86.4071893
 112.1246497  70.7717371  86.2679366 113.6353167  70.6939168  86.3288539
 115.6486225  67.4935830  92.6812544 116.1720627  67.7398126  93.4438854
 115.4298558  68.3255864  92.2615682 111.0453506  69.7639504  80.5483669
 110.7166212  68.8836883  80.3658775 111.3992877  69.7087173  81.4360058
 114.1595329  70.0512474  80.9159147 114.4991402  70.5798395  80.1937755
 114.6067450  70.3892880  81.6917713 116.8538770  68.4349525  90.3662215
 116.5135590  67.6357338  90.7682895 116.1477776  68.7351236  89.7939048
 116.1463476  68.5487096  79.1152440 116.8671839  68.9268348  78.6116156
 115.5228781  69.2675972  79.2187418 115.0293821  72.2117958  86.6281517
 114.8838401  72.5258261  87.5205798 114.5519024  72.8302858  86.0752415
 116.8890204  69.2020506  86.6762406 116.8751772  68.3061599  86.3394704
 117.6062632  69.2091169  87.3100692 109.5039483  74.7523302  89.5669178
 108.9592951  75.5283110  89.6989452 110.3818833  75.0994107  89.4088299
 116.2927100  68.0834886  81.9449976 116.4143011  67.1551532  82.1440864
 116.0029142  68.0973572  81.0328292 110.2905505  73.8793198  92.4599335
 109.5487241  74.0275834  93.0463965 109.9698249  74.1401464  91.5966084
 110.7362118  81.7658627  84.4909729 111.5620138  81.4662399  84.1108373
 110.3856170  80.9966250  84.9399518 115.7043652  81.1185095  86.5607403
 115.0823661  80.4555800  86.2609631 116.3748518  81.1446227  85.8781051
 108.9370723  79.6844954  85.4498663 108.1002632  79.2567128  85.2682664
 108.9094369  79.8777397  86.3869454 115.7768179  69.5966883  96.1539909
 115.8256335  70.4729006  95.7717678 116.3190693  69.0544276  95.5811552
 115.2657158  79.6689019  80.0365863 115.4145279  80.3524483  79.3832536
 116.0723602  79.6494109  80.5515319 118.0067468  70.3498256  92.9086267
 117.1370777  70.6431822  92.6368856 118.2426948  70.9338701  93.6293531
 113.0209791  75.6954196  81.0426932 112.7755833  74.7916526  81.2407142
 113.1905706  75.6971347  80.1006410 112.2905439  71.4282554  78.5413094
 111.5974684  71.5026909  77.8853130 112.0457191  70.6642898  79.0634611
 117.3342280  71.4247938  74.7848549 116.4273735  71.1281051  74.8611262
 117.6118261  71.1277756  73.9182835 108.2520220  72.7454302  85.2347595
 107.9323004  71.8919610  84.9421969 107.7053648  72.9602880  85.9905562
 112.0300128  75.4616743  88.9517101 112.2486137  76.3933850  88.9705135
 112.4425901  75.1024717  89.7371905 116.9027993  71.0349948  98.3419850
 116.8024720  71.9844305  98.2731941 116.6849535  70.7068187  97.4695920
 116.1041064  68.2834873  74.9260528 116.9660228  68.6089772  75.1856345
 116.2891408  67.4966369  74.4133593 108.1208480  76.3657213  87.2040716
 107.4271951  75.9511166  86.6910671 108.8681471  76.4077750  86.6074135
 116.7659263  74.4647087  97.1584912 116.2826345  75.2647447  97.3648801
 116.8520202  74.4755032  96.2052356 110.0345223  76.2975467  85.0806731
 110.0115911  76.3963154  84.1288614 110.3445859  77.1440618  85.4023897
 112.6932600  78.3551622  89.1953346 113.6475854  78.3235564  89.1283277
 112.4945124  77.8942246  90.0103572 113.2831983  76.9252738  91.7624143
 114.1024872  77.4196817  91.7858981 113.5568790  76.0084706  91.7341711
 111.0482829  83.8971241  86.2123544 110.9137297  83.1371642  85.6461542
 110.6314892  84.6212141  85.7452333 114.2051955  84.7940558  86.4241986
 114.0884339  85.7385991  86.3220677 113.3844401  84.4914120  86.8127786
 108.5366897  71.2590872  92.4616341 109.1825760  70.7489826  92.9503566
 108.3284048  71.9959554  93.0359766 117.0570507  65.5230917  78.2140237
 117.0449177  66.4672756  78.3708508 117.9493929  65.3401062  77.9199698
 115.2306469  85.4468820  89.6397915 116.1333716  85.4792431  89.9564410
 115.0043839  84.5169271  89.6544251 116.9860071  84.1999807  86.3007993
 116.0355702  84.2001669  86.1872366 117.2892557  83.4532541  85.7844028
 112.8764388  68.4058489  96.5591355 113.7395849  68.0495294  96.7694679
 112.3029798  68.0672384  97.2466759 116.9482865  90.6052629  85.0772946
 117.6353905  90.2914359  84.4893961 116.7930994  91.5093993  84.8040197
 116.5250841  88.6853222  87.3490413 116.5634941  88.1516813  88.1427531
 116.0191134  88.1588428  86.7301390  70.1158239   3.4853401  73.0394940
  70.3554837   4.1171925  73.7173959  69.2727435   3.1341441  73.3260299
  82.0314270   7.5317702  70.0157478  81.4679135   7.4407639  69.2473766
  81.9166665   6.7117606  70.4959971  79.5778702   9.0268893  72.8541698
  80.3699994   8.6859718  72.4387998  79.8175352   9.1363868  73.7743852
  87.6113829  11.1988669  65.3271943  86.9601809  11.7842750  64.9405957
  88.4058192  11.7294864  65.3866980  81.5369456   8.2877807  65.7259077
  82.3100332   7.7406794  65.5871953  81.8894855   9.1522056  65.9373539
  83.3754498   9.6154189  78.9325977  83.0844364  10.5199820  78.8172643
  84.0111483   9.6570716  79.6470046  84.3010705   6.9931037  75.5227336
  84.8974278   6.7687060  74.8084299  84.3585677   6.2515783  76.1252784
  89.0889094   8.8879101  65.8640927  88.4534927   8.9613728  66.5761832
  88.7586500   9.4772700  65.1860006  83.5932022   6.3498579  65.5601902
  83.4768281   5.6743482  66.2282986  83.7034282   5.8630953  64.7434055
  88.3344384   9.3015604  75.9275770  88.0345107  10.2040643  75.8191578
  87.9895443   9.0347788  76.7796923  81.7856865   5.7529401  71.9612475
  80.8607362   5.6205615  72.1690166  82.0341278   6.5323620  72.4582417
  79.1465676   5.3962675  72.7956264  79.2758057   5.6497154  73.7095675
  78.4663127   5.9890383  72.4760919  83.3165163  16.0659925  68.8946738
  83.2389193  17.0167750  68.9735219  82.7126807  15.7205797  69.5521664
  84.0628765   6.0473243  81.1126072  84.8043450   6.5858287  80.8360895
  83.3565751   6.6739532  81.2697624  89.8612920   8.7503575  73.4650522
  89.2321782   8.9149289  72.7626590  89.4738582   9.1645184  74.2361486
  93.7402152   9.6858012  70.8194886  93.0553190  10.0656914  70.2691919
  93.8246001  10.2953339  71.5526834  85.4140882   8.4877983  70.7300607
  85.8779227   8.7665686  69.9405230  85.1497680   7.5861427  70.5473698
  82.3064963   8.0349464  73.6680371  82.8766320   8.4636733  73.0297855
  82.8973074   7.7532049  74.3664556  92.1098911  10.2089927  75.5912587
  92.9316355   9.8070114  75.3095269  92.1061314  10.1058161  76.5428703
  85.8755515   9.7573970  77.7473297  85.9399947  10.2194377  78.5831469
  85.1666438   9.1271335  77.8755607  85.5903532  11.4242078  67.6152278
  85.4549207  12.2693613  68.0437126  86.1313345  11.6261355  66.8518211
  79.0432930   8.9417516  68.1880203  79.5557450   9.7360766  68.3385767
  79.6955642   8.2443806  68.1213804  80.8527814  12.0583272  70.2702956
  81.0294443  12.9801237  70.0823940  81.6484648  11.7441691  70.6997336
  87.2172009  12.0465644  81.7452620  86.7735863  11.2602023  81.4273524
  87.8789222  12.2344795  81.0796511  81.9759130  13.5761446  76.2713298
  82.5266555  13.4478509  75.4990292  81.1370606  13.8756335  75.9208191
  89.3153247  12.3268444  79.7734021  89.2971722  13.1477325  79.2814290
  90.2373167  12.2022519  79.9984162  85.7726301   9.8412574  80.6157529
  86.3054638   9.0800862  80.3856837  85.2440382   9.5486225  81.3581684
  77.0081846   7.2706170  68.9639773  77.8457068   7.6803178  68.7473481
  77.1860114   6.3305612  68.9339967  87.1379014   8.9698566  68.1276341
  86.6100375   8.2351326  67.8149579  86.6366516   9.7473242  67.8816310
  88.1899693  15.4976284  64.0508001  87.5161391  15.8007980  64.6592958
  88.5765515  16.3005364  63.7013458  86.4619847   6.8891371  65.6535305
  85.5531066   6.6050404  65.7507774  86.4914931   7.3090450  64.7938611
  91.6939115  10.4997961  69.4226472  91.2401442   9.6588871  69.4791663
  91.0633081  11.1359359  69.7601252  90.1372054  12.3374457  70.3576290
  90.4295028  12.8979514  69.6388656  90.6470674  12.6303018  71.1129449
  77.0308018   4.6096885  69.6350507  76.8332417   4.0166246  68.9101573
  76.4754682   4.3049096  70.3526446  86.1595935   8.4300115  62.9923383
  85.7215365   7.7135974  62.5329020  86.9006376   8.6576230  62.4308475
  85.1005679  13.1154808  71.4469743  85.0581858  13.3415655  70.5178275
  86.0168378  12.8818183  71.5955545  83.2171480   9.9917837  71.2431706
  84.0112078   9.4968158  71.0414281  82.5063172   9.4635701  70.8799412
  88.0366324  12.3735933  75.5944074  88.0903347  12.9426869  76.3621790
  87.1681106  12.5437818  75.2298111  90.2269088   8.9664282  82.1684739
  90.0754594   8.7374834  81.2514823  90.2173767   9.9234884  82.1816084
  85.7942756  10.5646859  74.9229543  85.6553842  10.1965644  75.7955481
  85.0057352  11.0794499  74.7513501  86.3890908  15.6655956  66.2655080
  86.5642663  15.1943999  67.0800702  85.7023696  16.2921722  66.4936341
  87.3447971   9.9428462  72.3118381  87.0097804   9.9029232  73.2076031
  86.8451917   9.2773178  71.8388791  91.9361294  11.9983405  80.2461221
  91.8773840  11.3142625  79.5791804  92.3380813  12.7402395  79.7941847
  80.9551993  18.8145319  73.0394940  81.1948591  19.4463843  73.7173959
  80.1121190  18.4633359  73.3260299  91.9378702   9.9622989  78.4775201
  91.0505480   9.6248911  78.6001600  92.5077253   9.2306020  78.7143966
  73.5907849   6.2947081  71.8018252  74.2778888   5.9808811  71.2139267
  73.4355977   7.1988445  71.5285504  85.4679855  14.6224441  75.4436444
  85.3950026  15.4279413  75.9555749  85.0257248  14.8216407  74.6184465
  85.2569635  13.8596211  68.9539266  84.4737156  14.4017891  69.0477490
  85.9562380  14.3770191  69.3533507  87.9278538  14.5211275  77.5994603
  88.6406511  15.1558740  77.5270504  87.4368567  14.6175141  76.7834604
  82.9790452  12.2705719  78.4200173  83.6799911  12.9042202  78.5729568
  82.5085567  12.6120450  77.6595813  91.1044848  10.6123668  66.7048080
  91.3804692  10.4980263  67.6141955  90.2349347  10.2141153  66.6660254
  87.7398912  14.8610019  70.3480894  87.9221306  14.0431675  70.8108646
  88.5631898  15.0777712  69.9105784  88.0741077  13.7878204  67.6095943
  88.6028844  13.2770659  66.9966105  88.3369297  13.4720735  68.4741476
  78.5758170  11.8042074  75.3531276  79.1611607  11.0585762  75.4859180
  78.3783008  12.1146030  76.2367940  81.4296825  14.8393321  70.3693718
  80.7607201  15.3239449  69.8857759  81.2909695  15.0862542  71.2837097
  73.1675825   4.3747674  74.0735719  73.2059924   3.8411265  74.8672837
  72.6616118   3.8482879  73.4546696  85.5702094  16.8737065  76.9676377
  86.1220402  17.0368686  77.7325462  85.9108287  17.4641502  76.2956402
  90.4212968  11.6998322  82.8225031  90.9652872  12.3128280  82.3279986
  89.8399813  12.2577901  83.3392044  88.7070481  14.8219040  73.9540059
  88.5821621  14.0208780  73.4451005  89.3649572  15.3165233  73.4654029
  90.7705390  12.6228060  75.5819609  89.8235725  12.5033411  75.5097936
  91.1188163  11.7350558  75.6645871  87.7751823  12.4180776  71.7823961
  87.6276785  11.4897484  71.9631531  88.6005316  12.4400867  71.2981037
  91.3785945  13.2409335  72.8688834  92.3032492  13.0352196  72.7313285
  91.2101248  12.9925736  73.7778176  91.1681261  13.7595003  68.2250926
  91.3418138  13.1941425  67.4724778  91.6610152  14.5595897  68.0430416
  76.9858221   5.7709672  76.2914484  76.4411689   6.5469480  76.4234759
  77.8637571   6.1180476  76.1333606  92.1556433  13.0761767  65.3247824
  92.8507338  13.6968460  65.5435138  92.4979583  12.2257118  65.6000202
  77.7724243   4.8979568  79.1844641  77.0305979   5.0462203  79.7709272
  77.4516987   5.1587834  78.3211391  94.0547856  10.5261473  66.8535155
  94.5799181  10.8648745  66.1284475  93.9670209   9.5908488  66.6698289
  85.7167905  14.4395546  78.9825031  86.0255032  14.1944693  79.8547731
  86.5143387  14.6442185  78.4943901  85.7388517  16.5933456  71.2130408
  85.2993508  16.1009835  71.9063264  86.4896634  16.0506423  70.9722483
  78.2180856  12.7844997  71.2155036  79.0438876  12.4848769  70.8353679
  77.8674908  12.0152619  71.6644825  83.1862389  12.1371465  73.2852709
  82.5642399  11.4742170  72.9854937  83.8567256  12.1632597  72.6026357
  76.4189461  10.7031323  72.1743969  75.5821370  10.2753497  71.9927971
  76.3913107  10.8963766  73.1114761  93.7441763  11.1594376  82.1586353
  92.9537306  11.1418515  81.6190852  93.5075117  11.6982670  82.9135389
  82.7475896  10.6875388  66.7611170  82.8964017  11.3710853  66.1077843
  83.5542340  10.6680478  67.2760626  95.3657834  10.4283784  79.7161103
  95.0742643  10.7913765  80.5524564  94.7529966   9.7150792  79.5374435
  80.5028529   6.7140566  67.7672239  80.2574571   5.8102896  67.9652449
  80.6724444   6.7157716  66.8251717  86.2471302  13.1823519  64.2322917
  85.6745269  13.8013706  63.7793389  86.8204095  13.7322880  64.7662839
  89.4668562  13.4660669  65.3631500  90.3999235  13.4006231  65.5664375
  89.3791774  14.3016936  64.9046032  92.0956578  12.7826539  62.3235447
  92.0170210  12.4486403  63.2171205  92.9166245  13.2748307  62.3226920
  86.5156793   8.5702078  83.0339627  87.4359802   8.7480677  83.2279673
  86.4806376   7.6258123  82.8819326  75.7338958   3.7640671  71.9592902
  75.4141742   2.9105979  71.6667276  75.1872386   3.9789249  72.7150869
  79.5118865   6.4803112  75.6762408  79.7304875   7.4120220  75.6950442
  79.9244639   6.1211087  76.4617212  75.6027218   7.3843583  73.9286023
  74.9090689   6.9697536  73.4155978  76.3500209   7.4264119  73.3319442
  77.5163960   7.3161837  71.8052038  77.4934648   7.4149524  70.8533921
  77.8264597   8.1626987  72.1269204  80.1751338   9.3737992  75.9198652
  81.1294592   9.3421934  75.8528584  79.9763862   8.9128615  76.7348878
  80.7650720   7.9439108  78.4869450  81.5843609   8.4383186  78.5104287
  81.0387528   7.0271076  78.4587018  78.5301567  14.9157611  72.9368850
  78.3956035  14.1558012  72.3706848  78.1133629  15.6398511  72.4697639
  89.6660530  10.0994535  61.9445426  90.3696380  10.3044537  62.5603081
  88.9423179  10.6671296  62.2094509  81.6870693  15.8126928  73.1487293
  81.5703077  16.7572361  73.0465983  80.8663139  15.5100490  73.5373092
  91.5747227  10.5377064  63.9943886  92.4092831  10.1058262  63.8121360
  91.4131570  10.3659077  64.9220780  88.5439027   9.3458089  84.6853788
  89.4130186   9.5198741  84.3240423  88.0645778  10.1652506  84.5629517
  82.7125207  16.4655190  76.3643221  83.6152454  16.4978800  76.6809716
  82.4862577  15.5355641  76.3789557  84.4678809  15.2186176  73.0253300
  83.5174440  15.2188038  72.9117672  84.7711295  14.4718911  72.5089335
 100.2031503  21.0546715  74.0899062 100.8409912  20.9353462  73.3862402
 100.0852345  22.0027559  74.1487015  97.0121209  21.0074143  74.0260587
  96.6739720  20.8915208  73.1381122  97.8810977  20.6065308  74.0061593
  92.8708025  22.8609619  70.0157478  92.3072890  22.7699556  69.2473766
  92.7560420  22.0409524  70.4959971  97.4940992  22.1608995  79.9846793
  97.4829633  21.7661793  79.1127296  97.6561631  21.4275067  80.5780564
  90.4172456  24.3560811  72.8541698  91.2093748  24.0151636  72.4387998
  90.6569107  24.4655786  73.7743852  98.4507583  26.5280587  65.3271943
  97.7995563  27.1134668  64.9405957  99.2451946  27.0586782  65.3866980
  92.3763210  23.6169724  65.7259077  93.1494086  23.0698711  65.5871953
  92.7288609  24.4813974  65.9373539  94.2148253  24.9446107  78.9325977
  93.9238119  25.8491737  78.8172643  94.8505237  24.9862634  79.6470046
  95.1404460  22.3222955  75.5227336  95.7368032  22.0978977  74.8084299
  95.1979431  21.5807701  76.1252784  94.7129488  19.7762390  63.3577527
  94.9655009  19.2543912  62.5960990  93.7754047  19.6128536  63.4604211
  99.7572771  18.7798169  71.1652270 100.5435860  18.3617592  70.8142687
 100.0211475  19.6844261  71.3333919  99.9282848  24.2171019  65.8640927
  99.2928681  24.2905646  66.5761832  99.5980255  24.8064618  65.1860006
 105.1581198  18.7173402  72.0685249 105.8906370  18.1472619  72.3023078
 104.4020554  18.3295002  72.5091755  94.4325777  21.6790496  65.5601902
  94.3162035  21.0035400  66.2282986  94.5428037  21.1922870  64.7434055
  96.7757318  21.1400643  69.2648591  96.4115525  20.6131264  69.9761513
  97.6324434  20.7499112  69.0915077 102.6806618  12.4294976  76.5279858
 102.3489943  13.2990387  76.3041073 102.0852232  12.1131260  77.2073888
  96.4162805  16.1690543  64.2609940  96.5837207  17.0370780  64.6280411
  96.2259974  16.3317825  63.3371229  99.1738138  24.6307522  75.9275770
  98.8738861  25.5332561  75.8191578  98.8289198  24.3639705  76.7796923
  92.6250620  21.0821319  71.9612475  91.7001116  20.9497533  72.1690166
  92.8735033  21.8615538  72.4582417 102.5735282  17.1490062  73.6073208
 101.6652159  17.0805471  73.3131969 102.5222878  17.6262007  74.4355033
  96.3952026  18.6248201  65.2456607  96.2751651  19.0705251  66.0842087
  95.7004614  18.9733518  64.6870145  89.9859431  20.7254592  72.7956264
  90.1151812  20.9789071  73.7095675  89.3056882  21.3182300  72.4760919
  94.1558918  31.3951842  68.8946738  94.0782948  32.3459667  68.9735219
  93.5520561  31.0497715  69.5521664  96.6476148  18.5679708  81.5508105
  95.8709482  19.1273628  81.5410970  97.2866711  19.0536491  82.0722975
 104.4396928  15.3506501  75.3851082 103.7971308  15.6439034  74.7390876
 103.9351857  15.2359421  76.1904278 102.0937092  19.0969674  66.0736941
 103.0054948  19.3297061  65.8984638 101.5846739  19.6806718  65.5112019
  94.9022520  21.3765161  81.1126072  95.6437204  21.9150205  80.8360895
  94.1959505  22.0031450  81.2697624 100.3777860  23.5194302  79.7098233
 100.7861216  23.0776712  78.9652866  99.6555121  22.9446929  79.9632426
  96.7308930  18.4566908  77.0831790  97.5770125  18.8806322  77.2266439
  96.6707567  17.8000533  77.7770353 100.7006674  24.0795492  73.4650522
 100.0715537  24.2441206  72.7626590 100.3132336  24.4937102  74.2361486
 104.5795906  25.0149930  70.8194886 103.8946944  25.3948831  70.2691919
 104.6639755  25.6245257  71.5526834  99.8808375  16.1171277  78.7412964
  99.6369307  16.8713337  78.2047240 100.1568305  16.4956624  79.5760211
 101.8346838  22.6609889  77.4190230 102.0463733  23.3041649  76.7424611
 101.7876586  21.8272206  76.9512160  99.4373067  15.2727710  74.3226802
  98.5757546  15.5708963  74.6143539  99.4635501  15.4898109  73.3907834
  96.2534636  23.8169900  70.7300607  96.7172982  24.0957603  69.9405230
  95.9891434  22.9153345  70.5473698  93.1458717  23.3641382  73.6680371
  93.7160074  23.7928650  73.0297855  93.7366829  23.0823967  74.3664556
  95.1903522  19.9393053  67.5390172  95.8927565  20.3914096  68.0064099
  94.8584151  19.2976872  68.1670066  93.6383884  18.5304809  81.9141382
  93.0082544  19.2121090  82.1476779  93.5319972  18.4187891  80.9694520
  88.9328856  18.1976605  72.8407306  88.1427910  18.4534134  72.3647417
  89.4240103  19.0124943  72.9459347 102.9492666  25.5381845  75.5912587
 103.7710109  25.1362032  75.3095269 102.9455069  25.4350079  76.5428703
  90.8843601  18.5621185  69.7990783  90.0874765  18.6739879  70.3174278
  90.6569194  18.9007837  68.9331673  96.7149269  25.0865888  77.7473297
  96.7793702  25.5486295  78.5831469  96.0060193  24.4563253  77.8755607
  87.2166559  18.4507096  75.2722297  87.4674597  19.3354106  75.5379873
  87.7526107  18.2711697  74.4997389 111.0398659  21.8820593  71.9397558
 110.2862367  21.3127991  71.7841563 111.1746200  21.8483258  72.8868193
  96.4297287  26.7533995  67.6152278  96.2942962  27.5985531  68.0437126
  96.9707099  26.9553273  66.8518211  92.9164626  12.8325575  84.2766633
  92.5231572  12.2791774  84.9514277  93.7330767  13.1436154  84.6673150
  89.8826684  24.2709433  68.1880203  90.3951205  25.0652684  68.3385767
  90.5349397  23.5735724  68.1213804  91.6921569  27.3875190  70.2702956
  91.8688197  28.3093154  70.0823940  92.4878402  27.0733609  70.6997336
  95.8332587  14.2483454  81.8686889  96.5742301  14.8490607  81.7891352
  96.0650510  13.5061092  81.3104932  90.9773925  19.4339822  80.1465119
  90.8627441  18.5325079  80.4472218  90.1218443  19.6803518  79.7949936
  98.0565763  27.3757562  81.7452620  97.6129617  26.5893940  81.4273524
  98.7182977  27.5636712  81.0796511  92.8152884  28.9053363  76.2713298
  93.3660309  28.7770427  75.4990292  91.9764360  29.2048252  75.9208191
 100.1547001  27.6560362  79.7734021 100.1365477  28.4769243  79.2814290
 101.0766921  27.5314437  79.9984162  96.6120055  25.1704491  80.6157529
  97.1448392  24.4092779  80.3856837  96.0834136  24.8778143  81.3581684
  87.8475601  22.5998088  68.9639773  88.6850823  23.0095096  68.7473481
  88.0253869  21.6597530  68.9339967  99.7440033  20.2673168  64.6523606
  99.2286656  21.0377773  64.8911994  99.4717341  19.5938304  65.2756668
  97.3287144  15.1122869  69.7108845  96.4728740  14.7229719  69.5314483
  97.7414096  15.1914830  68.8508630  98.8586291  12.6469212  74.1100404
  98.3551086  12.6099348  73.2968210  99.1516898  13.5561955  74.1697061
  95.1029177  12.7307942  73.1166586  95.9682173  12.5350751  72.7572476
  95.1706685  12.5018294  74.0435943 104.7174307  23.0205523  66.5876780
 103.9403750  22.6816682  66.1431942 105.3965788  23.0258146  65.9131745
  99.5326336  18.1400260  66.4783387  99.2276472  18.4546410  67.3293531
 100.4856778  18.2181680  66.5210720  97.9772768  24.2990484  68.1276341
  97.4494130  23.5643243  67.8149579  97.4760271  25.0765160  67.8816310
 102.9565614  22.4939504  73.2443388 102.2989289  23.1838766  73.3323516
 103.7606013  22.8835936  73.5877374  92.7091496  14.9610150  70.4882953
  93.2835248  14.7385332  69.7556146  93.2962478  15.0298845  71.2411554
 101.7671073  20.8483877  71.2947329 102.2802955  21.4813869  71.7969039
 102.4172297  20.2485072  70.9290690  93.0361083  16.9914611  64.5078838
  92.1998395  17.3289298  64.8288113  92.8965852  16.8563591  63.5705975
  95.0114163  11.8351399  69.2158022  94.3578576  11.5200416  68.5914637
  94.9694638  11.2127139  69.9417845  96.1225368  22.1170694  61.1311314
  95.2152430  21.8859947  61.3302463  96.6196400  21.3208313  61.3185296
  99.0293447  30.8268201  64.0508001  98.3555146  31.1299898  64.6592958
  99.4159269  31.6297282  63.7013458  98.2451904  18.3233332  73.5405670
  97.3274465  18.5448279  73.3827358  98.6612047  18.3979643  72.6817377
  99.0286951  19.7224748  68.6708350  99.7758770  20.2346145  68.3615472
  99.2978541  19.4008801  69.5312744  97.3013602  22.2183289  65.6535305
  96.3924821  21.9342322  65.7507774  97.3308685  22.6382367  64.7938611
 102.5332869  25.8289878  69.4226472 102.0795196  24.9880788  69.4791663
 101.9026836  26.4651277  69.7601252 101.4765789  16.7581864  70.6527140
 100.7388545  16.2459251  70.9837382 101.7292562  16.3182246  69.8410416
 100.9765808  27.6666375  70.3576290 101.2688783  28.2271432  69.6388656
 101.4864429  27.9594936  71.1129449  87.8701772  19.9388803  69.6350507
  87.6726172  19.3458164  68.9101573  87.3148436  19.6341013  70.3526446
  95.8498496  19.8311909  71.7545100  95.9047105  18.8785746  71.6787576
  95.0389698  19.9871349  72.2386398  96.9989689  23.7592033  62.9923383
  96.5609119  23.0427891  62.5329020  97.7400130  23.9868147  62.4308475
  93.7890856  18.4488969  69.5135479  92.9758721  18.7483140  69.9200671
  94.2849850  18.0544658  70.2309961  95.9399434  28.4446726  71.4469743
  95.8975612  28.6707572  70.5178275  96.8562132  28.2110101  71.5955545
  99.3865067  18.9130794  78.3450373  99.7414455  19.1402267  79.2044838
 100.0337199  19.2449170  77.7227628 105.1162804  22.0349230  69.0499702
 104.9780703  22.2250826  68.1220891 104.7599023  22.7968612  69.5067753
  93.2804930  16.0207325  75.1296714  93.9204310  15.8796084  74.4319677
  92.4482461  15.7341838  74.7535316 105.1432184  24.1025757  74.0610973
 105.5768691  24.0101046  74.9094027 105.8563765  24.0783257  73.4230989
  94.0565234  25.3209755  71.2431706  94.8505833  24.8260075  71.0414281
  93.3456927  24.7927618  70.8799412  98.8760079  27.7027851  75.5944074
  98.9297101  28.2718787  76.3621790  98.0074860  27.8729736  75.2298111
  90.3647998  19.4652837  67.3191459  89.4345586  19.4037292  67.5361421
  90.4605470  18.9428790  66.5228100  90.2833547  15.9907650  69.9069701
  90.5440364  16.9052983  69.7978861  91.1050719  15.5232092  70.0566313
  91.7558472  17.4045407  77.0768525  92.4281526  17.1962769  76.4281174
  90.9288259  17.2067493  76.6373757 106.0047733  24.1449457  76.5943859
 106.1983624  25.0495268  76.8403134 105.9048352  23.6856876  77.4282444
  97.6584044  14.0307348  79.0934186  97.0111959  14.7297297  78.9998662
  98.4285060  14.4643492  79.4610434 101.0662842  24.2956200  82.1684739
 100.9148349  24.0666752  81.2514823 101.0567522  25.2526801  82.1816084
  97.8348179  21.8688113  77.1531006  98.7640239  22.0199272  76.9799973
  97.4139209  21.9572134  76.2979652  96.6336510  25.8938777  74.9229543
  96.4947596  25.5257562  75.7955481  95.8451107  26.4086417  74.7513501
  97.2284662  30.9947874  66.2655080  97.4036418  30.5235917  67.0800702
  96.5417450  31.6213640  66.4936341  98.1841725  25.2720380  72.3118381
  97.8491558  25.2321150  73.2076031  97.6845671  24.6065096  71.8388791
  92.1585969  20.6788010  77.8370962  92.0205767  19.9468249  78.4382501
  93.0690893  20.5896910  77.5555150 101.1200917  22.6176414  62.5855441
 100.5030088  21.8923242  62.4888493 100.6517406  23.3785774  62.2422515
  94.7868270  20.3907969  77.3254642  95.4967889  19.7501161  77.2841260
  94.7437578  20.6420864  78.2480823 102.7755049  27.3275323  80.2461221
 102.7167595  26.6434543  79.5791804 103.1774567  28.0694313  79.7941847
  93.4997204  17.3773187  79.1450281  92.9634561  16.9263926  79.7971878
  92.9113913  17.5119096  78.4020746  91.7945748  34.1437236  73.0394940
  92.0342346  34.7755761  73.7173959  90.9514944  33.7925276  73.3260299
  92.9099463  16.8361838  61.7076745  92.0328929  16.7150639  61.3438992
  93.3857216  16.0447917  61.4555634 102.7772456  25.2914906  78.4775201
 101.8899235  24.9540828  78.6001600 103.3471007  24.5597938  78.7143966
  84.4301603  21.6238998  71.8018252  85.1172643  21.3100728  71.2139267
  84.2749732  22.5280363  71.5285504  89.2336325  16.5129195  76.2303276
  89.1494514  15.9054864  75.4953686  88.4119032  17.0038213  76.2312772
  96.3073609  29.9516359  75.4436444  96.2343781  30.7571330  75.9555749
  95.8651003  30.1508325  74.6184465  96.0963389  29.1888129  68.9539266
  95.3130911  29.7309809  69.0477490  96.7956134  29.7062108  69.3533507
  99.4060039  14.9982758  71.5973471  99.9028739  14.2452721  71.2774541
  98.6347021  15.0347075  71.0316680 107.2589797  20.7023124  73.2391762
 107.2479673  21.5847839  72.8685695 106.3907176  20.3494675  73.0446299
  98.7672293  29.8503193  77.5994603  99.4800265  30.4850658  77.5270504
  98.2762322  29.9467059  76.7834604 100.4889820  23.7554446  69.1711894
  99.5546099  23.8755908  69.0016599 100.6666488  22.8526912  68.9071904
  95.9895008  17.1400141  71.3245155  95.6192795  16.5871182  72.0126061
  96.4854100  16.5358275  70.7720156 103.8762371  19.5971765  69.7061928
 104.3422823  20.4299756  69.6322231 104.3269872  19.1316746  70.4107187
  93.8184206  27.5997636  78.4200173  94.5193666  28.2334119  78.5729568
  93.3479321  27.9412368  77.6595813 101.9438602  25.9415586  66.7048080
 102.2198446  25.8272181  67.6141955 101.0743101  25.5433071  66.6660254
 101.6185492  20.1542244  76.2452724 100.9656943  20.4018151  75.5905177
 101.9965872  19.3406382  75.9115201  98.5792666  30.1901937  70.3480894
  98.7615061  29.3723593  70.8108646  99.4025652  30.4069629  69.9105784
  98.9134832  29.1170122  67.6095943  99.4422598  28.6062577  66.9966105
  99.1763051  28.8012652  68.4741476  97.6673065  20.8962055  82.7318761
  96.9913702  20.7956184  83.4021136  98.4900699  20.7401269  83.1954758
  89.4151925  27.1333991  75.3531276  90.0005361  26.3877679  75.4859180
  89.2176763  27.4437948  76.2367940  92.2690580  30.1685239  70.3693718
  91.6000955  30.6531366  69.8857759  92.1303449  30.4154459  71.2837097
  84.0069579  19.7039592  74.0735719  84.0453679  19.1703182  74.8672837
  83.5009872  19.1774797  73.4546696  96.4095848  32.2028982  76.9676377
  96.9614156  32.3660604  77.7325462  96.7502042  32.7933420  76.2956402
  91.3860342  14.5504132  77.5698262  91.4501668  15.4118963  77.1575659
  91.3227462  13.9378134  76.8370620  90.8612614  16.6227265  81.2171296
  91.4884653  16.2404342  81.8308820  90.0040533  16.4041467  81.5826988
 101.2606723  27.0290240  82.8225031 101.8046627  27.6420198  82.3279986
 100.6793568  27.5869818  83.3392044  87.6378157  18.4303694  67.1489651
  87.9331598  17.5214372  67.0956704  86.7366193  18.4091433  66.8270653
  99.5464236  30.1510958  73.9540059  99.4215375  29.3500698  73.4451005
 100.2043327  30.6457151  73.4654029  91.1672404  16.5059690  73.1317199
  90.4458990  17.1195658  72.9924673  91.9565660  17.0417455  73.0533845
 101.6099144  27.9519978  75.5819609 100.6629480  27.8325329  75.5097936
 101.9581917  27.0642476  75.6645871  93.9698717  13.8414117  79.4057851
  94.4933119  14.0876413  80.1684160  93.7511051  14.6734152  78.9860988
  89.3665998  16.1117791  67.2728976  89.0378705  15.2315170  67.0904082
  89.7205369  16.0565460  68.1605365  98.6145577  27.7472694  71.7823961
  98.4670540  26.8189402  71.9631531  99.4399071  27.7692785  71.2981037
  92.4807822  16.3990761  67.6404454  92.8203894  16.9276682  66.9183062
  92.9279942  16.7371167  68.4163020 102.2179699  28.5701253  72.8688834
 103.1426247  28.3644114  72.7313285 102.0495003  28.3217654  73.7778176
  95.1751262  14.7827812  77.0907522  94.8348083  13.9835625  77.4928201
  94.4690269  15.0829523  76.5184355  95.8267734  11.8677124  75.5434845
  96.6493804  11.3937603  75.4213735  96.0705798  12.6467608  76.0433531
  94.4675969  14.8965383  65.8397746  95.1884331  15.2746636  65.3361463
  93.8441273  15.6154260  65.9432724  98.6107092  15.6010532  66.7756079
  98.8270706  16.4835170  66.4744907  98.1301159  15.2096745  66.0461721
  93.3506313  18.5596245  73.3526823  93.2050894  18.8736548  74.2451105
  92.8731517  19.1781145  72.7997722  95.2102696  15.5498793  73.4007713
  95.1964265  14.6539886  73.0640011  95.9275124  15.5569457  74.0345999
  97.0628827  15.9836133  75.4460840  96.8046604  16.9053204  75.4445171
  96.5313867  15.5866568  76.1361304 102.0075015  29.0886920  68.2250926
 102.1811893  28.5233343  67.4724778 102.5003907  29.8887815  68.0430416
  87.8251975  21.1001589  76.2914484  87.2805443  21.8761397  76.4234759
  88.7031325  21.4472394  76.1333606  94.6139592  14.4313173  68.6695283
  94.7355503  13.5029819  68.8686170  94.3241634  14.4451859  67.7573598
  97.4830782  12.1168084  71.8062003  97.5052479  12.1807417  70.8513982
  97.8998841  11.2772592  72.0002509 107.8614407  21.8523343  69.8441225
 108.3045553  21.1030668  69.4460349 106.9840917  21.8433480  69.4614957
 102.9950188  28.4053685  65.3247824 103.6901092  29.0260377  65.5435138
 103.3373338  27.5549036  65.6000202  88.6117997  20.2271486  79.1844641
  87.8699733  20.3754121  79.7709272  88.2910741  20.4879751  78.3211391
 104.8941611  25.8553390  66.8535155 105.4192935  26.1940663  66.1284475
 104.8063964  24.9200406  66.6698289  96.5561660  29.7687464  78.9825031
  96.8648786  29.5236611  79.8547731  97.3537142  29.9734102  78.4943901
  96.5782272  31.9225373  71.2130408  96.1387262  31.4301752  71.9063264
  97.3290389  31.3798341  70.9722483  89.0574611  28.1136914  71.2155036
  89.8832631  27.8140686  70.8353679  88.7068663  27.3444537  71.6644825
  94.0256144  27.4663383  73.2852709  93.4036153  26.8034088  72.9854937
  94.6961011  27.4924514  72.6026357  87.2583216  26.0323241  72.1743969
  86.4215124  25.6045415  71.9927971  87.2306861  26.2255684  73.1114761
  94.0980671  15.9445171  82.8785215  94.1468827  16.8207293  82.4962985
  94.6403186  15.4022564  82.3056859 104.5835517  26.4886294  82.1586353
 103.7931061  26.4710433  81.6190852 104.3468872  27.0274588  82.9135389
 104.7033392  23.3378760  79.4719081 104.7531397  23.1728768  80.4134604
 104.5947315  22.4706019  79.0816962  93.5869651  26.0167306  66.7611170
  93.7357771  26.7002770  66.1077843  94.3936094  25.9972396  67.2760626
 101.9937154  19.3209688  80.7878388 102.8947017  19.1816153  80.4962386
 102.0685129  19.4864143  81.7276565  96.3279960  16.6976543  79.6331574
  95.4583269  16.9910109  79.3614163  96.5639440  17.2816988  80.3538838
 106.2051589  25.7575702  79.7161103 105.9136397  26.1205682  80.5524564
 105.5923720  25.0442710  79.5374435 107.4047271  23.3228582  72.2363673
 108.2394163  23.7618386  72.4001233 107.5406400  22.8467235  71.4171919
 104.4538777  20.8808316  78.1841161 104.9292899  21.0735963  77.3760012
 103.5304343  20.9367502  77.9384544  91.3422284  22.0432484  67.7672239
  91.0968326  21.1394814  67.9652449  91.5118198  22.0449634  66.8251717
  99.0318994  12.9156160  77.1496995  99.5500937  13.6517187  76.8243483
  98.6774126  13.2220153  77.9843754  90.6117931  17.7760841  65.2658400
  89.9187176  17.8505196  64.6098436  90.3669683  17.0121185  65.7879917
  97.0865056  28.5115436  64.2322917  96.5139023  29.1305624  63.7793389
  97.6597850  29.0614798  64.7662839 103.1540446  17.7574076  76.4169466
 104.1057869  17.8572174  76.4381690 102.9843897  16.9652345  76.9267551
 101.1754826  14.8429660  76.6028867 100.5804758  15.1234672  75.9075356
 100.8904522  15.3323561  77.3745608 100.3062316  28.7952587  65.3631500
 101.2392989  28.7298148  65.5664375 100.2185529  29.6308853  64.9046032
 102.9350333  28.1118457  62.3235447 102.8563964  27.7778320  63.2171205
 103.7560000  28.6040225  62.3226920 105.6328524  20.9780196  75.5311766
 105.6004844  20.0396197  75.7171450 106.2429148  21.0564233  74.7977591
  97.4711855  19.8476249  61.5738970  98.4170960  19.7182457  61.6427388
  97.0926100  19.1090911  62.0508398 105.7823012  17.7691240  75.5770049
 105.2662061  16.9849696  75.3899978 106.6662961  17.4409956  75.7416569
 111.4505074  22.0396203  74.6717803 112.1808462  21.7781491  75.2325506
 110.8412019  21.3024925  74.7119871 109.5320371  20.1804066  75.2692254
 108.8053534  20.0460031  74.6608745 109.1167658  20.4880894  76.0748972
  97.3550547  23.8993995  83.0339627  98.2753557  24.0772594  83.2279673
  97.3200130  22.9550041  82.8819326  95.6554772  17.7726226  61.5093855
  94.7486227  17.4759338  61.5856569  95.9330753  17.4756044  60.6428141
  86.5732712  19.0932589  71.9592902  86.2535497  18.2397897  71.6667276
  86.0266141  19.3081167  72.7150869  90.3512620  21.8095030  75.6762408
  90.5698630  22.7412138  75.6950442  90.7638394  21.4503004  76.4617212
  97.2716838  12.3163115  67.6638096  96.4617566  11.9710200  68.0393343
  97.9601255  12.0070659  68.2525708  95.2240485  17.3828236  85.0665157
  95.1237212  18.3322593  84.9977248  95.0062027  17.0546475  84.1941227
  94.4253557  14.6313161  61.6505834  95.2872721  14.9568059  61.9101652
  94.6103901  13.8444657  61.1378900  86.4420972  22.7135500  73.9286023
  85.7484444  22.2989453  73.4155978  87.1893963  22.7556037  73.3319442
 102.5786193  13.5041687  68.7941057 101.9984862  14.1626491  68.4119110
 102.3122126  12.6819032  68.3828475 101.0289759  12.9046745  70.9962378
 101.5289538  13.0163279  70.1876697 101.6725367  12.6007798  71.6363186
  95.0871755  20.8125375  83.8830219  94.6038837  21.6125735  84.0894108
  95.1732694  20.8233319  82.9297663  88.3557715  22.6453754  71.8052038
  88.3328403  22.7441441  70.8533921  88.6658351  23.4918905  72.1269204
  91.0145093  24.7029909  75.9198652  91.9688346  24.6713852  75.8528584
  90.8157616  24.2420533  76.7348878  91.6044475  23.2731025  78.4869450
  92.4237364  23.7675104  78.5104287  91.8781283  22.3562993  78.4587018
 101.3611071  15.6641778  67.8497406 100.4736926  15.9491428  67.6317600
 101.7765060  15.5035541  67.0024683 104.7125607  15.6888299  71.5651745
 105.4885997  16.1784751  71.8376362 103.9873741  16.1146353  72.0223614
 107.1498166  16.4015918  72.6225685 107.7442657  16.1611654  71.9118994
 107.2224750  15.6823048  73.2499222  89.3695322  30.2449529  72.9368850
  89.2349789  29.4849930  72.3706848  88.9527384  30.9690429  72.4697639
 100.5054285  25.4286452  61.9445426 101.2090135  25.6336455  62.5603081
  99.7816933  25.9963214  62.2094509 101.3352095  21.1796314  68.0647696
 101.2787296  21.6364865  67.2255328 101.8880437  20.4186998  67.8870539
 105.1456901  16.9686045  68.8897815 104.8893835  16.5682681  69.7206023
 104.5209769  17.6829839  68.7647954 109.4569239  19.7082119  71.3969107
 108.8968797  19.7775308  72.1700669 108.8512742  19.5323103  70.6768603
  92.5264447  31.1418846  73.1487293  92.4096832  32.0864278  73.0465983
  91.7056894  30.8392407  73.5373092 102.4140982  25.8668981  63.9943886
 103.2486586  25.4350180  63.8121360 102.2525325  25.6950995  64.9220780
 102.0686874  22.3701095  65.3600225 102.0135678  22.2045366  64.4188669
 101.4432929  23.0777128  65.5162415  86.8579389  17.6069159  79.1861647
  87.5038253  17.0968113  79.6748872  86.6496540  18.3437841  79.7605072
  99.3832781  24.6750007  84.6853788 100.2523941  24.8490659  84.3240423
  98.9039533  25.4944423  84.5629517  95.3783000  11.8709204  64.9385543
  95.3661669  12.8151044  65.0953814  96.2706421  11.6879349  64.6445005
  93.5518962  31.7947108  76.3643221  94.4546208  31.8270718  76.6809716
  93.3256332  30.8647559  76.3789557  95.3072564  30.5478094  73.0253300
  94.3568195  30.5479956  72.9117672  95.6105050  29.8010829  72.5089335
  91.1976880  14.7536776  83.2836661  92.0608342  14.3973581  83.4939986
  90.6242291  14.4150671  83.9712066 111.0425257  36.3838633  74.0899062
 111.6803667  36.2645380  73.3862402 110.9246100  37.3319477  74.1487015
 107.8514963  36.3366061  74.0260587 107.5133475  36.2207125  73.1381122
 108.7204732  35.9357226  74.0061593 103.7101779  38.1901537  70.0157478
 103.1466644  38.0991474  69.2473766 103.5954174  37.3701442  70.4959971
 108.3334746  37.4900912  79.9846793 108.3223387  37.0953711  79.1127296
 108.4955386  36.7566985  80.5780564 101.2566211  39.6852729  72.8541698
 102.0487503  39.3443553  72.4387998 101.4962861  39.7947704  73.7743852
 109.2901338  41.8572505  65.3271943 108.6389317  42.4426585  64.9405957
 110.0845701  42.3878700  65.3866980 103.2156965  38.9461642  65.7259077
 103.9887841  38.3990629  65.5871953 103.5682364  39.8105891  65.9373539
 105.0542007  40.2738024  78.9325977 104.7631873  41.1783655  78.8172643
 105.6898992  40.3154552  79.6470046 105.9798214  37.6514873  75.5227336
 106.5761787  37.4270895  74.8084299 106.0373186  36.9099618  76.1252784
 105.5523243  35.1054308  63.3577527 105.8048763  34.5835829  62.5960990
 104.6147802  34.9420453  63.4604211 110.5966526  34.1090086  71.1652270
 111.3829615  33.6909510  70.8142687 110.8605230  35.0136179  71.3333919
 110.7676603  39.5462937  65.8640927 110.1322436  39.6197563  66.5761832
 110.4374009  40.1356536  65.1860006 115.9974953  34.0465320  72.0685249
 116.7300125  33.4764536  72.3023078 115.2414308  33.6586920  72.5091755
 105.2719531  37.0082414  65.5601902 105.1555790  36.3327317  66.2282986
 105.3821791  36.5214788  64.7434055 107.6151072  36.4692561  69.2648591
 107.2509280  35.9423182  69.9761513 108.4718188  36.0791030  69.0915077
 113.5200373  27.7586894  76.5279858 113.1883698  28.6282305  76.3041073
 112.9245986  27.4423178  77.2073888 107.2556559  31.4982461  64.2609940
 107.4230962  32.3662697  64.6280411 107.0653728  31.6609743  63.3371229
 110.0131893  39.9599440  75.9275770 109.7132616  40.8624479  75.8191578
 109.6682952  39.6931623  76.7796923 103.4644374  36.4113237  71.9612475
 102.5394870  36.2789451  72.1690166 103.7128787  37.1907456  72.4582417
 113.4129036  32.4781980  73.6073208 112.5045914  32.4097388  73.3131969
 113.3616632  32.9553925  74.4355033 107.2345780  33.9540118  65.2456607
 107.1145405  34.3997169  66.0842087 106.5398369  34.3025436  64.6870145
 100.8253185  36.0546510  72.7956264 100.9545566  36.3080989  73.7095675
 100.1450636  36.6474218  72.4760919 104.9952672  46.7243760  68.8946738
 104.9176702  47.6751585  68.9735219 104.3914316  46.3789633  69.5521664
 107.4869902  33.8971625  81.5508105 106.7103236  34.4565546  81.5410970
 108.1260465  34.3828408  82.0722975 115.2790683  30.6798418  75.3851082
 114.6365063  30.9730951  74.7390876 114.7745611  30.5651339  76.1904278
 112.9330846  34.4261591  66.0736941 113.8448702  34.6588978  65.8984638
 112.4240493  35.0098636  65.5112019 105.7416274  36.7057079  81.1126072
 106.4830959  37.2442123  80.8360895 105.0353260  37.3323368  81.2697624
 111.2171614  38.8486219  79.7098233 111.6254970  38.4068630  78.9652866
 110.4948876  38.2738847  79.9632426 107.5702684  33.7858826  77.0831790
 108.4163879  34.2098240  77.2266439 107.5101322  33.1292450  77.7770353
 111.5400429  39.4087410  73.4650522 110.9109291  39.5733124  72.7626590
 111.1526091  39.8229019  74.2361486 115.4189661  40.3441848  70.8194886
 114.7340699  40.7240749  70.2691919 115.5033510  40.9537174  71.5526834
 110.7202129  31.4463194  78.7412964 110.4763061  32.2005255  78.2047240
 110.9962060  31.8248542  79.5760211 112.6740592  37.9901807  77.4190230
 112.8857487  38.6333567  76.7424611 112.6270340  37.1564123  76.9512160
 110.2766821  30.6019627  74.3226802 109.4151300  30.9000881  74.6143539
 110.3029256  30.8190026  73.3907834 107.0928391  39.1461818  70.7300607
 107.5566736  39.4249521  69.9405230 106.8285189  38.2445263  70.5473698
 103.9852472  38.6933300  73.6680371 104.5553829  39.1220568  73.0297855
 104.5760583  38.4115884  74.3664556 106.0297277  35.2684970  67.5390172
 106.7321320  35.7206014  68.0064099 105.6977905  34.6268789  68.1670066
 104.4777638  33.8596727  81.9141382 103.8476299  34.5413008  82.1476779
 104.3713726  33.7479809  80.9694520  99.7722611  33.5268523  72.8407306
  98.9821665  33.7826052  72.3647417 100.2633858  34.3416861  72.9459347
 113.7886420  40.8673762  75.5912587 114.6103864  40.4653950  75.3095269
 113.7848823  40.7641996  76.5428703 101.7237356  33.8913102  69.7990783
 100.9268519  34.0031797  70.3174278 101.4962948  34.2299755  68.9331673
 107.5543024  40.4157806  77.7473297 107.6187456  40.8778213  78.5831469
 106.8453947  39.7855170  77.8755607  98.0560314  33.7799013  75.2722297
  98.3068352  34.6646023  75.5379873  98.5919862  33.6003615  74.4997389
 107.2691041  42.0825913  67.6152278 107.1336716  42.9277449  68.0437126
 107.8100854  42.2845191  66.8518211 103.7558381  28.1617493  84.2766633
 103.3625326  27.6083691  84.9514277 104.5724521  28.4728071  84.6673150
 100.7220439  39.6001351  68.1880203 101.2344959  40.3944601  68.3385767
 101.3743151  38.9027641  68.1213804 102.5315323  42.7167107  70.2702956
 102.7081952  43.6385072  70.0823940 103.3272157  42.4025527  70.6997336
 106.6726342  29.5775372  81.8686889 107.4136055  30.1782525  81.7891352
 106.9044265  28.8353010  81.3104932 101.8167680  34.7631739  80.1465119
 101.7021195  33.8616996  80.4472218 100.9612198  35.0095436  79.7949936
 108.8959518  42.7049480  81.7452620 108.4523372  41.9185858  81.4273524
 109.5576731  42.8928630  81.0796511 103.6546639  44.2345281  76.2713298
 104.2054064  44.1062344  75.4990292 102.8158115  44.5340170  75.9208191
 110.9940756  42.9852279  79.7734021 110.9759231  43.8061160  79.2814290
 111.9160676  42.8606355  79.9984162 107.4513810  40.4996409  80.6157529
 107.9842147  39.7384697  80.3856837 106.9227891  40.2070061  81.3581684
 110.6183505  25.6056475  76.1451171 110.2747774  26.4958117  76.0690282
 110.9862467  25.4158133  75.2820756  98.6869355  37.9290005  68.9639773
  99.5244577  38.3387014  68.7473481  98.8647623  36.9889448  68.9339967
 110.5833788  35.5965086  64.6523606 110.0680411  36.3669691  64.8911994
 110.3111096  34.9230222  65.2756668 108.1680899  30.4414787  69.7108845
 107.3122495  30.0521637  69.5314483 108.5807850  30.5206748  68.8508630
 109.6980045  27.9761130  74.1100404 109.1944841  27.9391265  73.2968210
 109.9910652  28.8853873  74.1697061 105.9422931  28.0599860  73.1166586
 106.8075928  27.8642668  72.7572476 106.0100440  27.8310212  74.0435943
 115.5568062  38.3497441  66.5876780 114.7797504  38.0108600  66.1431942
 116.2359543  38.3550064  65.9131745 110.3720091  33.4692178  66.4783387
 110.0670226  33.7838327  67.3293531 111.3250533  33.5473598  66.5210720
 108.8166523  39.6282401  68.1276341 108.2887884  38.8935161  67.8149579
 108.3154025  40.4057078  67.8816310 113.7959369  37.8231422  73.2443388
 113.1383043  38.5130683  73.3323516 114.5999768  38.2127854  73.5877374
 103.5485250  30.2902068  70.4882953 104.1229002  30.0677249  69.7556146
 104.1356233  30.3590762  71.2411554 112.6064827  36.1775795  71.2947329
 113.1196709  36.8105786  71.7969039 113.2566051  35.5776990  70.9290690
 103.8754837  32.3206529  64.5078838 103.0392150  32.6581215  64.8288113
 103.7359607  32.1855509  63.5705975 105.8507918  27.1643317  69.2158022
 105.1972330  26.8492334  68.5914637 105.8088392  26.5419057  69.9417845
 106.9619123  37.4462612  61.1311314 106.0546184  37.2151865  61.3302463
 107.4590155  36.6500231  61.3185296 109.8687202  46.1560119  64.0508001
 109.1948900  46.4591816  64.6592958 110.2553024  46.9589199  63.7013458
 109.0845658  33.6525250  73.5405670 108.1668220  33.8740197  73.3827358
 109.5005802  33.7271561  72.6817377 109.8680706  35.0516666  68.6708350
 110.6152525  35.5638063  68.3615472 110.1372296  34.7300719  69.5312744
 108.1407356  37.5475207  65.6535305 107.2318575  37.2634239  65.7507774
 108.1702440  37.9674285  64.7938611 113.3726624  41.1581796  69.4226472
 112.9188951  40.3172706  69.4791663 112.7420590  41.7943194  69.7601252
 112.3159543  32.0873782  70.6527140 111.5782300  31.5751168  70.9837382
 112.5686317  31.6474164  69.8410416 111.8159563  42.9958293  70.3576290
 112.1082537  43.5563350  69.6388656 112.3258183  43.2886854  71.1129449
 112.4171170  24.8650034  71.2468909 112.7230047  24.0047398  70.9594824
 113.1423775  25.4567654  71.0467903  98.7095527  35.2680721  69.6350507
  98.5119926  34.6750081  68.9101573  98.1542191  34.9632931  70.3526446
 106.6892250  35.1603827  71.7545100 106.7440860  34.2077664  71.6787576
 105.8783452  35.3163266  72.2386398 107.8383444  39.0883950  62.9923383
 107.4002874  38.3719809  62.5329020 108.5793885  39.3160065  62.4308475
 104.6284610  33.7780887  69.5135479 103.8152476  34.0775057  69.9200671
 105.1243604  33.3836576  70.2309961 106.7793188  43.7738644  71.4469743
 106.7369367  43.9999490  70.5178275 107.6955887  43.5402018  71.5955545
 110.2258822  34.2422711  78.3450373 110.5808210  34.4694185  79.2044838
 110.8730953  34.5741088  77.7227628 115.9556559  37.3641147  69.0499702
 115.8174457  37.5542743  68.1220891 115.5992778  38.1260530  69.5067753
 104.1198685  31.3499242  75.1296714 104.7598064  31.2088002  74.4319677
 103.2876215  31.0633756  74.7535316 115.9825938  39.4317674  74.0610973
 116.4162445  39.3392963  74.9094027 116.6957519  39.4075175  73.4230989
 104.8958989  40.6501673  71.2431706 105.6899587  40.1551993  71.0414281
 104.1850681  40.1219536  70.8799412 109.7153833  43.0319768  75.5944074
 109.7690856  43.6010705  76.3621790 108.8468615  43.2021653  75.2298111
 101.2041752  34.7944755  67.3191459 100.2739340  34.7329210  67.5361421
 101.2999224  34.2720707  66.5228100 101.1227301  31.3199567  69.9069701
 101.3834119  32.2344901  69.7978861 101.9444474  30.8524010  70.0566313
 102.5952227  32.7337325  77.0768525 103.2675280  32.5254687  76.4281174
 101.7682013  32.5359411  76.6373757 116.8441488  39.4741375  76.5943859
 117.0377378  40.3787185  76.8403134 116.7442106  39.0148794  77.4282444
 108.4977799  29.3599265  79.0934186 107.8505714  30.0589215  78.9998662
 109.2678814  29.7935409  79.4610434 111.9056597  39.6248118  82.1684739
 111.7542103  39.3958669  81.2514823 111.8961276  40.5818719  82.1816084
 108.6741933  37.1980030  77.1531006 109.6033993  37.3491190  76.9799973
 108.2532963  37.2864051  76.2979652 107.4730265  41.2230695  74.9229543
 107.3341350  40.8549479  75.7955481 106.6844861  41.7378334  74.7513501
 108.0678417  46.3239791  66.2655080 108.2430172  45.8527834  67.0800702
 107.3811205  46.9505557  66.4936341 109.0235480  40.6012298  72.3118381
 108.6885313  40.5613067  73.2076031 108.5239426  39.9357013  71.8388791
 102.9979724  36.0079928  77.8370962 102.8599522  35.2760166  78.4382501
 103.9084647  35.9188828  77.5555150 111.9594672  37.9468332  62.5855441
 111.3423842  37.2215160  62.4888493 111.4911160  38.7077692  62.2422515
 105.6262025  35.7199887  77.3254642 106.3361643  35.0793079  77.2841260
 105.5831333  35.9712782  78.2480823 113.6148803  42.6567240  80.2461221
 113.5561349  41.9726460  79.5791804 114.0168322  43.3986230  79.7941847
 104.3390959  32.7065105  79.1450281 103.8028316  32.2555843  79.7971878
 103.7507667  32.8411014  78.4020746 102.6339502  49.4729154  73.0394940
 102.8736100  50.1047678  73.7173959 101.7908699  49.1217194  73.3260299
 103.7493217  32.1653756  61.7076745 102.8722684  32.0442557  61.3438992
 104.2250971  31.3739834  61.4555634 113.6166211  40.6206824  78.4775201
 112.7292989  40.2832746  78.6001600 114.1864762  39.8889855  78.7143966
  95.2695358  36.9530916  71.8018252  95.9566397  36.6392646  71.2139267
  95.1143486  37.8572281  71.5285504 100.0730080  31.8421112  76.2303276
  99.9888269  31.2346782  75.4953686  99.2512786  32.3330131  76.2312772
 107.1467364  45.2808276  75.4436444 107.0737535  46.0863248  75.9555749
 106.7044757  45.4800242  74.6184465 106.9357144  44.5180047  68.9539266
 106.1524665  45.0601727  69.0477490 107.6349889  45.0354026  69.3533507
 110.2453794  30.3274676  71.5973471 110.7422493  29.5744638  71.2774541
 109.4740775  30.3638993  71.0316680 118.0983551  36.0315042  73.2391762
 118.0873427  36.9139757  72.8685695 117.2300930  35.6786592  73.0446299
 109.6066047  45.1795111  77.5994603 110.3194020  45.8142575  77.5270504
 109.1156076  45.2758977  76.7834604 111.3283574  39.0846363  69.1711894
 110.3939853  39.2047826  69.0016599 111.5060243  38.1818830  68.9071904
 106.8288762  32.4692059  71.3245155 106.4586550  31.9163099  72.0126061
 107.3247855  31.8650192  70.7720156 114.7156126  34.9263682  69.7061928
 115.1816578  35.7591674  69.6322231 115.1663626  34.4608664  70.4107187
 104.6577961  42.9289554  78.4200173 105.3587420  43.5626037  78.5729568
 104.1873076  43.2704286  77.6595813 112.7832357  41.2707504  66.7048080
 113.0592201  41.1564098  67.6141955 111.9136856  40.8724989  66.6660254
 112.6872788  27.2944269  73.7452830 111.7735868  27.5248496  73.9135037
 113.1165890  27.3782714  74.5966862 112.4579247  35.4834161  76.2452724
 111.8050697  35.7310069  75.5905177 112.8359627  34.6698300  75.9115201
 109.4186421  45.5193855  70.3480894 109.6008815  44.7015511  70.8108646
 110.2419407  45.7361547  69.9105784 109.7528586  44.4462040  67.6095943
 110.2816353  43.9354494  66.9966105 110.0156806  44.1304570  68.4741476
 108.5066820  36.2253972  82.7318761 107.8307457  36.1248102  83.4021136
 109.3294454  36.0693186  83.1954758 100.2545679  42.4625909  75.3531276
 100.8399116  41.7169597  75.4859180 100.0570517  42.7729866  76.2367940
 103.1084334  45.4977156  70.3693718 102.4394710  45.9823284  69.8857759
 102.9697204  45.7446377  71.2837097  94.8463334  35.0331509  74.0735719
  94.8847433  34.4995100  74.8672837  94.3403627  34.5066715  73.4546696
 107.2489603  47.5320900  76.9676377 107.8007911  47.6952521  77.7325462
 107.5895796  48.1225338  76.2956402 102.2254096  29.8796050  77.5698262
 102.2895423  30.7410881  77.1575659 102.1621216  29.2670051  76.8370620
 101.7006369  31.9519182  81.2171296 102.3278407  31.5696260  81.8308820
 100.8434287  31.7333384  81.5826988 112.1000477  42.3582157  82.8225031
 112.6440381  42.9712116  82.3279986 111.5187322  42.9161736  83.3392044
  98.4771911  33.7595611  67.1489651  98.7725352  32.8506290  67.0956704
  97.5759947  33.7383351  66.8270653 110.3857990  45.4802875  73.9540059
 110.2609130  44.6792615  73.4451005 111.0437081  45.9749069  73.4654029
 102.0066158  31.8351608  73.1317199 101.2852744  32.4487576  72.9924673
 102.7959414  32.3709373  73.0533845 112.4492898  43.2811896  75.5819609
 111.5023234  43.1617247  75.5097936 112.7975672  42.3934394  75.6645871
 104.8092472  29.1706034  79.4057851 105.3326874  29.4168331  80.1684160
 104.5904805  30.0026069  78.9860988 100.2059753  31.4409709  67.2728976
  99.8772459  30.5607088  67.0904082 100.5599124  31.3857378  68.1605365
 109.4539332  43.0764612  71.7823961 109.3064294  42.1481319  71.9631531
 110.2792825  43.0984702  71.2981037 103.3201576  31.7282679  67.6404454
 103.6597649  32.2568600  66.9183062 103.7673697  32.0663085  68.4163020
 113.0573454  43.8993170  72.8688834 113.9820001  43.6936032  72.7313285
 112.8888757  43.6509572  73.7778176 106.0145017  30.1119730  77.0907522
 105.6741837  29.3127543  77.4928201 105.3084023  30.4121440  76.5184355
 106.6661489  27.1969042  75.5434845 107.4887558  26.7229520  75.4213735
 106.9099552  27.9759526  76.0433531 105.3069723  30.2257300  65.8397746
 106.0278086  30.6038553  65.3361463 104.6835027  30.9446177  65.9432724
 109.4500846  30.9302449  66.7756079 109.6664460  31.8127087  66.4744907
 108.9694913  30.5388663  66.0461721 104.1900067  33.8888163  73.3526823
 104.0444648  34.2028466  74.2451105 103.7125271  34.5073063  72.7997722
 106.0496450  30.8790711  73.4007713 106.0358019  29.9831804  73.0640011
 106.7668878  30.8861374  74.0345999 107.9022581  31.3128051  75.4460840
 107.6440359  32.2345121  75.4445171 107.3707621  30.9158485  76.1361304
 112.8468770  44.4178838  68.2250926 113.0205647  43.8525260  67.4724778
 113.3397661  45.2179733  68.0430416  98.6645730  36.4293507  76.2914484
  98.1199198  37.2053315  76.4234759  99.5425080  36.7764312  76.1333606
 105.4533346  29.7605091  68.6695283 105.5749257  28.8321737  68.8686170
 105.1635389  29.7743777  67.7573598 108.3224537  27.4460001  71.8062003
 108.3446234  27.5099334  70.8513982 108.7392596  26.6064510  72.0002509
 113.8343942  43.7345602  65.3247824 114.5294847  44.3552295  65.5435138
 114.1767092  42.8840954  65.6000202  99.4511752  35.5563403  79.1844641
  98.7093488  35.7046039  79.7709272  99.1304496  35.8171669  78.3211391
 115.7335365  41.1845308  66.8535155 116.2586690  41.5232581  66.1284475
 115.6457718  40.2492323  66.6698289 107.3955414  45.0979382  78.9825031
 107.7042541  44.8528528  79.8547731 108.1930896  45.3026020  78.4943901
 107.4176026  47.2517291  71.2130408 106.9781016  46.7593670  71.9063264
 108.1684143  46.7090259  70.9722483  99.8968365  43.4428832  71.2155036
 100.7226385  43.1432604  70.8353679  99.5462417  42.6736454  71.6644825
 104.8649898  42.7955300  73.2852709 104.2429908  42.1326005  72.9854937
 105.5354765  42.8216432  72.6026357  98.0976970  41.3615158  72.1743969
  97.2608879  40.9337333  71.9927971  98.0700616  41.5547602  73.1114761
 104.9374426  31.2737088  82.8785215 104.9862581  32.1499211  82.4962985
 105.4796940  30.7314481  82.3056859 115.4229272  41.8178212  82.1586353
 114.6324815  41.8002350  81.6190852 115.1862626  42.3566505  82.9135389
 115.5427147  38.6670678  79.4719081 115.5925151  38.5020685  80.4134604
 115.4341070  37.7997937  79.0816962 104.4263405  41.3459224  66.7611170
 104.5751526  42.0294688  66.1077843 105.2329849  41.3264314  67.2760626
 112.8330909  34.6501606  80.7878388 113.7340772  34.5108071  80.4962386
 112.9078883  34.8156061  81.7276565 107.1673714  32.0268461  79.6331574
 106.2977024  32.3202027  79.3614163 107.4033195  32.6108906  80.3538838
 117.0445343  41.0867619  79.7161103 116.7530152  41.4497600  80.5524564
 116.4317475  40.3734628  79.5374435 115.2932532  36.2100234  78.1841161
 115.7686653  36.4027880  77.3760012 114.3698097  36.2659420  77.9384544
 102.1816038  37.3724401  67.7672239 101.9362080  36.4686731  67.9652449
 102.3511953  37.3741552  66.8251717 109.8712748  28.2448078  77.1496995
 110.3894692  28.9809105  76.8243483 109.5167881  28.5512071  77.9843754
 101.4511686  33.1052759  65.2658400 100.7580931  33.1797114  64.6098436
 101.2063438  32.3413102  65.7879917 110.1225342  24.6648360  72.6697891
 110.4027096  23.9971549  73.2958318 110.9075949  24.8577456  72.1572555
 107.9258811  43.8407354  64.2322917 107.3532778  44.4597541  63.7793389
 108.4991604  44.3906716  64.7662839 113.9934201  33.0865994  76.4169466
 114.9451624  33.1864092  76.4381690 113.8237651  32.2944263  76.9267551
 112.0148580  30.1721577  76.6028867 111.4198512  30.4526590  75.9075356
 111.7298277  30.6615478  77.3745608 111.1456071  44.1244504  65.3631500
 112.0786744  44.0590066  65.5664375 111.0579283  44.9600771  64.9046032
 113.7744087  43.4410375  62.3235447 113.6957719  43.1070238  63.2171205
 114.5953754  43.9332142  62.3226920 116.4722278  36.3072114  75.5311766
 116.4398599  35.3688115  75.7171450 117.0822902  36.3856151  74.7977591
 108.3105609  35.1768167  61.5738970 109.2564714  35.0474375  61.6427388
 107.9319854  34.4382829  62.0508398 116.6216767  33.0983157  75.5770049
 116.1055816  32.3141614  75.3899978 117.5056715  32.7701874  75.7416569
 114.2827494  26.8424173  71.5365862 114.0852315  26.5339261  72.4209194
 114.8927199  27.5685812  71.6663792 108.1944302  39.2285913  83.0339627
 109.1147311  39.4064512  83.2279673 108.1593885  38.2841958  82.8819326
 106.4948526  33.1018143  61.5093855 105.5879982  32.8051256  61.5856569
 106.7724507  32.8047961  60.6428141  97.4126467  34.4224507  71.9592902
  97.0929251  33.5689815  71.6667276  96.8659895  34.6373085  72.7150869
 101.1906374  37.1386948  75.6762408 101.4092384  38.0704055  75.6950442
 101.6032148  36.7794922  76.4617212 108.1110592  27.6455033  67.6638096
 107.3011320  27.3002118  68.0393343 108.7995009  27.3362577  68.2525708
 110.0401140  26.7233080  69.2862393 110.5932179  27.1428533  69.9452416
 110.2771227  25.7968828  69.3285349 106.0634240  32.7120153  85.0665157
 105.9630967  33.6614510  84.9977248 105.8455782  32.3838392  84.1941227
 105.2647311  29.9605078  61.6505834 106.1266475  30.2859977  61.9101652
 105.4497655  29.1736574  61.1378900  97.2814727  38.0427418  73.9286023
  96.5878198  37.6281371  73.4155978  98.0287718  38.0847955  73.3319442
 113.4179948  28.8333605  68.7941057 112.8378617  29.4918409  68.4119110
 113.1515880  28.0110949  68.3828475 111.8683514  28.2338663  70.9962378
 112.3683292  28.3455197  70.1876697 112.5119122  27.9299715  71.6363186
 105.9265510  36.1417292  83.8830219 105.4432591  36.9417652  84.0894108
 106.0126449  36.1525237  82.9297663  99.1951469  37.9745672  71.8052038
  99.1722157  38.0733359  70.8533921  99.5052106  38.8210823  72.1269204
 101.8538847  40.0321827  75.9198652 102.8082101  40.0005769  75.8528584
 101.6551371  39.5712451  76.7348878 102.4438229  38.6022943  78.4869450
 103.2631118  39.0967022  78.5104287 102.7175037  37.6854911  78.4587018
 112.2004826  30.9933695  67.8497406 111.3130681  31.2783346  67.6317600
 112.6158815  30.8327459  67.0024683 115.5519362  31.0180216  71.5651745
 116.3279752  31.5076669  71.8376362 114.8267496  31.4438270  72.0223614
 100.2089076  45.5741446  72.9368850 100.0743544  44.8141847  72.3706848
  99.7921138  46.2982346  72.4697639 111.3448039  40.7578370  61.9445426
 112.0483889  40.9628372  62.5603081 110.6210688  41.3255132  62.2094509
 112.1745849  36.5088231  68.0647696 112.1181051  36.9656783  67.2255328
 112.7274192  35.7478916  67.8870539 115.9850655  32.2977963  68.8897815
 115.7287589  31.8974599  69.7206023 115.3603523  33.0121757  68.7647954
 103.3658202  46.4710763  73.1487293 103.2490586  47.4156196  73.0465983
 102.5450648  46.1684325  73.5373092 113.2534736  41.1960899  63.9943886
 114.0880340  40.7642098  63.8121360 113.0919079  41.0242913  64.9220780
 112.9080629  37.6993012  65.3600225 112.8529432  37.5337284  64.4188669
 112.2826684  38.4069045  65.5162415  97.6973144  32.9361077  79.1861647
  98.3432007  32.4260031  79.6748872  97.4890295  33.6729758  79.7605072
 110.2226536  40.0041924  84.6853788 111.0917695  40.1782577  84.3240423
 109.7433287  40.8236341  84.5629517 106.2176754  27.2001121  64.9385543
 106.2055424  28.1442961  65.0953814 107.1100176  27.0171267  64.6445005
 104.3912716  47.1239025  76.3643221 105.2939963  47.1562636  76.6809716
 104.1650086  46.1939476  76.3789557 106.1466318  45.8770012  73.0253300
 105.1961949  45.8771873  72.9117672 106.4498804  45.1302746  72.5089335
 110.0328874  23.7943898  69.1931480 109.2661269  23.2402385  69.3388162
 110.4439578  23.8665767  70.0545632 102.0370635  30.0828694  83.2836661
 102.9002096  29.7265499  83.4939986 101.4636045  29.7442589  83.9712066
 114.5495533  53.5193455  70.0157478 113.9860399  53.4283392  69.2473766
 114.4347929  52.6993359  70.4959971 112.0959965  55.0144646  72.8541698
 112.8881257  54.6735471  72.4387998 112.3356616  55.1239621  73.7743852
 114.0550719  54.2753560  65.7259077 114.8281595  53.7282547  65.5871953
 114.4076118  55.1397809  65.9373539 115.8935762  55.6029942  78.9325977
 115.6025628  56.5075573  78.8172643 116.5292746  55.6446469  79.6470046
 116.8191969  52.9806790  75.5227336 117.4155541  52.7562813  74.8084299
 116.8766940  52.2391536  76.1252784 116.3916997  50.4346226  63.3577527
 116.6442518  49.9127747  62.5960990 115.4541556  50.2712371  63.4604211
 116.1113286  52.3374332  65.5601902 115.9949544  51.6619235  66.2282986
 116.2215546  51.8506706  64.7434055 118.0950314  46.8274378  64.2609940
 118.2624716  47.6954615  64.6280411 117.9047483  46.9901660  63.3371229
 114.3038128  51.7405154  71.9612475 113.3788625  51.6081368  72.1690166
 114.5522542  52.5199373  72.4582417 118.0739535  49.2832036  65.2456607
 117.9539160  49.7289087  66.0842087 117.3792123  49.6317354  64.6870145
 111.6646940  51.3838428  72.7956264 111.7939321  51.6372907  73.7095675
 110.9844391  51.9766136  72.4760919 115.8346427  62.0535678  68.8946738
 115.7570457  63.0043503  68.9735219 115.2308070  61.7081550  69.5521664
 116.5810029  52.0348997  81.1126072 117.3224713  52.5734040  80.8360895
 115.8747014  52.6615285  81.2697624 114.8246226  54.0225217  73.6680371
 115.3947583  54.4512486  73.0297855 115.4154338  53.7407802  74.3664556
 116.8691031  50.5976888  67.5390172 117.5715074  51.0497932  68.0064099
 116.5371660  49.9560707  68.1670066 115.3171393  49.1888645  81.9141382
 114.6870053  49.8704926  82.1476779 115.2107481  49.0771726  80.9694520
 110.6116365  48.8560441  72.8407306 109.8215419  49.1117969  72.3647417
 111.1027612  49.6708779  72.9459347 112.5631110  49.2205020  69.7990783
 111.7662274  49.3323714  70.3174278 112.3356703  49.5591672  68.9331673
 108.8954068  49.1090931  75.2722297 109.1462106  49.9937941  75.5379873
 109.4313616  48.9295533  74.4997389 114.5952135  43.4909411  84.2766633
 114.2019081  42.9375609  84.9514277 115.4118276  43.8019989  84.6673150
 111.5614193  54.9293269  68.1880203 112.0738714  55.7236519  68.3385767
 112.2136906  54.2319559  68.1213804 113.3709078  58.0459025  70.2702956
 113.5475706  58.9676990  70.0823940 114.1665911  57.7317444  70.6997336
 117.5120096  44.9067290  81.8686889 118.2529810  45.5074443  81.7891352
 117.7438019  44.1644927  81.3104932 112.6561434  50.0923657  80.1465119
 112.5414950  49.1908914  80.4472218 111.8005952  50.3387354  79.7949936
 114.4940393  59.5637199  76.2713298 115.0447818  59.4354262  75.4990292
 113.6551869  59.8632088  75.9208191 109.5263110  53.2581923  68.9639773
 110.3638332  53.6678931  68.7473481 109.7041378  52.3181365  68.9339967
 116.7816686  43.3891777  73.1166586 117.6469682  43.1934586  72.7572476
 116.8494194  43.1602129  74.0435943 114.3879005  45.6193985  70.4882953
 114.9622757  45.3969167  69.7556146 114.9749987  45.6882680  71.2411554
 114.7148592  47.6498446  64.5078838 113.8785904  47.9873133  64.8288113
 114.5753361  47.5147426  63.5705975 116.6901672  42.4935234  69.2158022
 116.0366085  42.1784251  68.5914637 116.6482147  41.8710975  69.9417845
 109.5489281  50.5972638  69.6350507 109.3513681  50.0041999  68.9101573
 108.9935945  50.2924849  70.3526446 117.5286005  50.4895745  71.7545100
 117.5834614  49.5369581  71.6787576 116.7177207  50.6455184  72.2386398
 115.4678365  49.1072805  69.5135479 114.6546230  49.4066975  69.9200671
 115.9637359  48.7128493  70.2309961 114.9592439  46.6791160  75.1296714
 115.5991819  46.5379919  74.4319677 114.1269970  46.3925673  74.7535316
 115.7352743  55.9793591  71.2431706 116.5293342  55.4843911  71.0414281
 115.0244436  55.4511454  70.8799412 112.0435507  50.1236672  67.3191459
 111.1133095  50.0621128  67.5361421 112.1392979  49.6012625  66.5228100
 111.9621056  46.6491485  69.9069701 112.2227873  47.5636818  69.7978861
 112.7838228  46.1815928  70.0566313 113.4345981  48.0629242  77.0768525
 114.1069035  47.8546604  76.4281174 112.6075768  47.8651328  76.6373757
 113.8373478  51.3371845  77.8370962 113.6993276  50.6052084  78.4382501
 114.7478402  51.2480745  77.5555150 116.4655779  51.0491805  77.3254642
 117.1755398  50.4084997  77.2841260 116.4225087  51.3004699  78.2480823
 115.1784713  48.0357022  79.1450281 114.6422070  47.5847761  79.7971878
 114.5901421  48.1702931  78.4020746 113.4733257  64.8021072  73.0394940
 113.7129855  65.4339596  73.7173959 112.6302453  64.4509112  73.3260299
 114.5886972  47.4945674  61.7076745 113.7116438  47.3734475  61.3438992
 115.0644725  46.7031752  61.4555634 106.1089112  52.2822834  71.8018252
 106.7960152  51.9684564  71.2139267 105.9537241  53.1864198  71.5285504
 110.9123834  47.1713030  76.2303276 110.8282023  46.5638700  75.4953686
 110.0906541  47.6622048  76.2312772 117.9861118  60.6100194  75.4436444
 117.9131290  61.4155166  75.9555749 117.5438512  60.8092160  74.6184465
 117.6682517  47.7983977  71.3245155 117.2980304  47.2455017  72.0126061
 118.1641609  47.1942110  70.7720156 115.4971715  58.2581472  78.4200173
 116.1981175  58.8917955  78.5729568 115.0266830  58.5996203  77.6595813
 111.0939434  57.7917827  75.3531276 111.6792870  57.0461515  75.4859180
 110.8964272  58.1021783  76.2367940 113.9478089  60.8269074  70.3693718
 113.2788464  61.3115202  69.8857759 113.8090958  61.0738295  71.2837097
 105.6857088  50.3623427  74.0735719 105.7241188  49.8287018  74.8672837
 105.1797381  49.8358632  73.4546696 113.0647851  45.2087967  77.5698262
 113.1289177  46.0702798  77.1575659 113.0014971  44.5961969  76.8370620
 112.5400123  47.2811100  81.2171296 113.1672162  46.8988177  81.8308820
 111.6828042  47.0625302  81.5826988 109.3165666  49.0887529  67.1489651
 109.6119107  48.1798207  67.0956704 108.4153702  49.0675269  66.8270653
 112.8459913  47.1643526  73.1317199 112.1246499  47.7779493  72.9924673
 113.6353169  47.7001290  73.0533845 115.6486226  44.4997952  79.4057851
 116.1720628  44.7460249  80.1684160 115.4298560  45.3317987  78.9860988
 111.0453507  46.7701627  67.2728976 110.7166214  45.8899006  67.0904082
 111.3992878  46.7149295  68.1605365 114.1595331  47.0574597  67.6404454
 114.4991403  47.5860518  66.9183062 114.6067451  47.3955003  68.4163020
 116.8538771  45.4411647  77.0907522 116.5135592  44.6419460  77.4928201
 116.1477778  45.7413358  76.5184355 116.1463478  45.5549218  65.8397746
 116.8671840  45.9330471  65.3361463 115.5228782  46.2738095  65.9432724
 115.0293822  49.2180080  73.3526823 114.8838403  49.5320383  74.2451105
 114.5519026  49.8364981  72.7997722 116.8890205  46.2082628  73.4007713
 116.8751774  45.3123722  73.0640011 117.6062633  46.2153292  74.0345999
 109.5039484  51.7585425  76.2914484 108.9592952  52.5345233  76.4234759
 110.3818834  52.1056229  76.1333606 116.2927101  45.0897009  68.6695283
 116.4143012  44.1613655  68.8686170 116.0029143  45.1035695  67.7573598
 110.2905506  50.8855321  79.1844641 109.5487242  51.0337956  79.7709272
 109.9698250  51.1463587  78.3211391 110.7362120  58.7720750  71.2155036
 111.5620140  58.4724522  70.8353679 110.3856172  58.0028372  71.6644825
 115.7043653  58.1247218  73.2852709 115.0823662  57.4617923  72.9854937
 116.3748520  58.1508350  72.6026357 108.9370725  56.6907076  72.1743969
 108.1002633  56.2629251  71.9927971 108.9094370  56.8839520  73.1114761
 115.7768180  46.6029006  82.8785215 115.8256336  47.4791129  82.4962985
 116.3190695  46.0606399  82.3056859 115.2657160  56.6751141  66.7611170
 115.4145280  57.3586606  66.1077843 116.0723603  56.6556231  67.2760626
 118.0067469  47.3560378  79.6331574 117.1370778  47.6493944  79.3614163
 118.2426949  47.9400823  80.3538838 113.0209793  52.7016319  67.7672239
 112.7755835  51.7978649  67.9652449 113.1905707  52.7033469  66.8251717
 112.2905440  48.4344676  65.2658400 111.5974685  48.5089031  64.6098436
 112.0457192  47.6705020  65.7879917 117.3342281  48.4310061  61.5093855
 116.4273736  48.1343174  61.5856569 117.6118262  48.1339879  60.6428141
 108.2520221  49.7516424  71.9592902 107.9323006  48.8981732  71.6667276
 107.7053649  49.9665002  72.7150869 112.0300129  52.4678865  75.6762408
 112.2486139  53.3995973  75.6950442 112.4425903  52.1086840  76.4617212
 116.9027994  48.0412071  85.0665157 116.8024721  48.9906428  84.9977248
 116.6849536  47.7130310  84.1941227 116.1041066  45.2896996  61.6505834
 116.9660230  45.6151894  61.9101652 116.2891410  44.5028492  61.1378900
 108.1208481  53.3719336  73.9286023 107.4271953  52.9573289  73.4155978
 108.8681472  53.4139872  73.3319442 116.7659264  51.4709210  83.8830219
 116.2826346  52.2709570  84.0894108 116.8520203  51.4817155  82.9297663
 110.0345224  53.3037590  71.8052038 110.0115912  53.4025277  70.8533921
 110.3445860  54.1502740  72.1269204 112.6932602  55.3613745  75.9198652
 113.6475855  55.3297687  75.8528584 112.4945125  54.9004368  76.7348878
 113.2831984  53.9314861  78.4869450 114.1024873  54.4258939  78.5104287
 113.5568792  53.0146829  78.4587018 111.0482831  60.9033364  72.9368850
 110.9137298  60.1433765  72.3706848 110.6314893  61.6274264  72.4697639
 114.2051956  61.8002681  73.1487293 114.0884341  62.7448114  73.0465983
 113.3844403  61.4976243  73.5373092 108.5366898  48.2652994  79.1861647
 109.1825762  47.7551948  79.6748872 108.3284049  49.0021676  79.7605072
 117.0570509  42.5293039  64.9385543 117.0449178  43.4734879  65.0953814
 117.9493930  42.3463185  64.6445005 115.2306471  62.4530943  76.3643221
 116.1333717  62.4854553  76.6809716 115.0043841  61.5231394  76.3789557
 116.9860073  61.2061930  73.0253300 116.0355704  61.2063791  72.9117672
 117.2892559  60.4594664  72.5089335 112.8764389  45.4120612  83.2836661
 113.7395851  45.0557416  83.4939986 112.3029800  45.0734506  83.9712066
 116.9482867  67.6114751  71.8018252 117.6353906  67.2976481  71.2139267
 116.7930995  68.5156116  71.5285504 116.5250843  65.6915345  74.0735719
 116.5634942  65.1578935  74.8672837 116.0191136  65.1650550  73.4546696
  91.7945749  11.1499359  59.7640247  92.0342347  11.7817883  60.4419265
  90.9514945  10.7987399  60.0505606 103.7101780  15.1963660  56.7402785
 103.1466645  15.1053597  55.9719072 103.5954175  14.3763564  57.2205277
 101.2566212  16.6914851  59.5787005 102.0487504  16.3505676  59.1633304
 101.4962862  16.8009826  60.4989158 109.2901339  18.8634627  52.0517250
 108.6389319  19.4488708  51.6651263 110.0845702  19.3940822  52.1112287
 103.2156966  15.9523765  52.4504384 103.9887842  15.4052752  52.3117260
 103.5682365  16.8168014  52.6618845 105.0542009  17.2800147  65.6571283
 104.7631875  18.1845778  65.5417950 105.6898993  17.3216674  66.3715353
 105.9798216  14.6576995  62.2472643 106.5761788  14.4333018  61.5329606
 106.0373187  13.9161741  62.8498091 110.7676604  16.5525059  52.5886234
 110.1322437  16.6259686  53.3007139 110.4374011  17.1418658  51.9105313
 105.2719533  14.0144537  52.2847209 105.1555791  13.3389440  52.9528293
 105.3821793  13.5276911  51.4679362 110.0131894  16.9661562  62.6521077
 109.7132617  17.8686601  62.5436884 109.6682953  16.6993746  63.5042230
 103.4644375  13.4175359  58.6857781 102.5394872  13.2851573  58.8935473
 103.7128788  14.1969578  59.1827724 100.8253186  13.0608633  59.5201570
 100.9545567  13.3143112  60.4340982 100.1450638  13.6536341  59.2006225
 104.9952674  23.7305883  55.6192045 104.9176703  24.6813708  55.6980525
 104.3914317  23.3851755  56.2766971 105.7416276  13.7119201  67.8371379
 106.4830960  14.2504245  67.5606202 105.0353261  14.3385490  67.9942930
 111.5400430  16.4149533  60.1895829 110.9109292  16.5795247  59.4871897
 111.1526092  16.8291142  60.9606793 115.4189662  17.3503970  57.5440193
 114.7340700  17.7302872  56.9937226 115.5033511  17.9599297  58.2772140
 107.0928392  16.1523941  57.4545914 107.5566737  16.4311644  56.6650536
 106.8285190  15.2507385  57.2719005 103.9852473  15.6995422  60.3925677
 104.5553830  16.1282691  59.7543162 104.5760585  15.4178007  61.0909863
 113.7886421  17.8735885  62.3157894 114.6103865  17.4716072  62.0340575
 113.7848824  17.7704119  63.2674009 107.5543025  17.4219928  64.4718604
 107.6187457  17.8840335  65.3076776 106.8453949  16.7917293  64.6000914
 107.2691042  19.0888036  54.3397584 107.1336717  19.9339571  54.7682432
 107.8100855  19.2907313  53.5763518 100.7220440  16.6063474  54.9125509
 101.2344960  17.4006724  55.0631074 101.3743153  15.9089764  54.8459111
 102.5315325  19.7229230  56.9948263 102.7081953  20.6447195  56.8069246
 103.3272158  19.4087649  57.4242642 108.8959519  19.7111602  68.4697926
 108.4523373  18.9247981  68.1518831 109.5576732  19.8990753  67.8041817
 103.6546640  21.2407404  62.9958605 104.2054065  21.1124467  62.2235599
 102.8158116  21.5402293  62.6453498 110.9940757  19.9914402  66.4979328
 110.9759232  20.8123283  66.0059597 111.9160677  19.8668477  66.7229469
 107.4513811  17.5058532  67.3402836 107.9842148  16.7446820  67.1102144
 106.9227892  17.2132183  68.0826991  98.6869357  14.9352128  55.6885080
  99.5244579  15.3449136  55.4718788  98.8647624  13.9951570  55.6585274
 108.8166524  16.6344524  54.8521648 108.2887885  15.8997284  54.5394886
 108.3154027  17.4119200  54.6061616 109.8687203  23.1622241  50.7753307
 109.1948902  23.4653938  51.3838265 110.2553025  23.9651322  50.4258764
 108.1407357  14.5537329  52.3780611 107.2318577  14.2696362  52.4753081
 108.1702441  14.9736408  51.5183918 113.3726625  18.1643919  56.1471779
 112.9188952  17.3234829  56.2036969 112.7420592  18.8005317  56.4846559
 111.8159564  20.0020415  57.0821597 112.1082538  20.5625472  56.3633963
 112.3258185  20.2948976  57.8374756  98.7095528  12.2742843  56.3595813
  98.5119928  11.6812204  55.6346880  98.1542192  11.9695053  57.0771752
 107.8383445  16.0946073  49.7168690 107.4002875  15.3781932  49.2574327
 108.5793886  16.3222188  49.1553781 106.7793189  20.7800766  58.1715050
 106.7369368  21.0061613  57.2423582 107.6955888  20.5464141  58.3200851
 104.8958990  17.6563795  57.9677013 105.6899589  17.1614116  57.7659588
 104.1850682  17.1281659  57.6044718 109.7153835  20.0381891  62.3189380
 109.7690857  20.6072827  63.0867096 108.8468616  20.2083776  61.9543418
 111.9056598  16.6310240  68.8930046 111.7542104  16.4020792  67.9760130
 111.8961277  17.5880842  68.9061391 107.4730266  18.2292817  61.6474850
 107.3341352  17.8611602  62.5200788 106.6844862  18.7440457  61.4758808
 108.0678418  23.3301914  52.9900386 108.2430174  22.8589957  53.8046009
 107.3811206  23.9567680  53.2181647 109.0235481  17.6074420  59.0363688
 108.6885314  17.5675190  59.9321338 108.5239427  16.9419136  58.5634098
 113.6148804  19.6629363  66.9706528 113.5561351  18.9788583  66.3037111
 114.0168323  20.4048353  66.5187154 102.6339503  26.4791277  59.7640247
 102.8736102  27.1109801  60.4419265 101.7908700  26.1279317  60.0505606
 113.6166212  17.6268947  65.2020507 112.7292991  17.2894869  65.3246906
 114.1864763  16.8951978  65.4389273  95.2695359  13.9593038  58.5263559
  95.9566399  13.6454769  57.9384574  95.1143488  14.8634403  58.2530810
 107.1467365  22.2870399  62.1681751 107.0737537  23.0925371  62.6801055
 106.7044758  22.4862365  61.3429772 106.9357145  21.5242169  55.6784572
 106.1524667  22.0663849  55.7722797 107.6349890  22.0416149  56.0778813
 109.6066049  22.1857233  64.3239909 110.3194021  22.8204698  64.2515811
 109.1156077  22.2821099  63.5079911 104.6577962  19.9351677  65.1445480
 105.3587422  20.5688160  65.2974874 104.1873077  20.2766408  64.3841119
 112.7832358  18.2769626  53.4293387 113.0592202  18.1626221  54.3387261
 111.9136857  17.8787111  53.3905560 109.4186422  22.5255977  57.0726201
 109.6008817  21.7077633  57.5353953 110.2419408  22.7423669  56.6351091
 109.7528588  21.4524162  54.3341249 110.2816354  20.9416617  53.7211411
 110.0156807  21.1366693  55.1986782 100.2545680  19.4688032  62.0776583
 100.8399117  18.7231720  62.2104487 100.0570519  19.7791988  62.9613247
 103.1084335  22.5039279  57.0939025 102.4394711  22.9885407  56.6103065
 102.9697205  22.7508499  58.0082404  94.8463335  12.0393632  60.7981026
  94.8847435  11.5057223  61.5918144  94.3403628  11.5128837  60.1792003
 107.2489604  24.5383023  63.6921684 107.8007912  24.7014644  64.4570769
 107.5895798  25.1287460  63.0201708 112.1000478  19.3644280  69.5470338
 112.6440382  19.9774238  69.0525293 111.5187323  19.9223858  70.0637351
 110.3857991  22.4864998  60.6785366 110.2609131  21.6854738  60.1696311
 111.0437082  22.9811191  60.1899336 112.4492900  20.2874018  62.3064916
 111.5023235  20.1679369  62.2343242 112.7975673  19.3996516  62.3891177
 109.4539333  20.0826734  58.5069268 109.3064295  19.1543442  58.6876838
 110.2792827  20.1046825  58.0226343 113.0573455  20.9055293  59.5934141
 113.9820002  20.6998154  59.4558592 112.8888758  20.6571694  60.5023482
 112.8468771  21.4240961  54.9496232 113.0205649  20.8587383  54.1970085
 113.3397662  22.2241855  54.7675722  98.6645731  13.4355630  63.0159791
  98.1199199  14.2115438  63.1480065  99.5425081  13.7826434  62.8578912
 113.8343944  20.7407725  52.0493130 114.5294848  21.3614418  52.2680445
 114.1767094  19.8903076  52.3245508  99.4511753  12.5625526  65.9089948
  98.7093489  12.7108161  66.4954578  99.1304497  12.8233792  65.0456697
 115.7335367  18.1907430  53.5780461 116.2586691  18.5294703  52.8529781
 115.6457719  17.2554446  53.3943596 107.3955415  22.1041504  65.7070338
 107.7042542  21.8590651  66.5793037 108.1930897  22.3088143  65.2189208
 107.4176027  24.2579414  57.9375714 106.9781018  23.7655792  58.6308571
 108.1684144  23.7152381  57.6967790  99.8968366  20.4490955  57.9400342
 100.7226386  20.1494726  57.5598986  99.5462418  19.6798577  58.3890131
 104.8649900  19.8017423  60.0098016 104.2429909  19.1388128  59.7100244
 105.5354767  19.8278555  59.3271664  98.0976971  18.3677281  58.8989276
  97.2608880  17.9399455  58.7173277  98.0700617  18.5609724  59.8360067
 115.4229273  18.8240334  68.8831659 114.6324816  18.8064473  68.3436159
 115.1862627  19.3628628  69.6380696 104.4263407  18.3521346  53.4856477
 104.5751527  19.0356811  52.8323149 105.2329850  18.3326436  54.0005932
 117.0445345  18.0929742  66.4406409 116.7530153  18.4559723  67.2769870
 116.4317476  17.3796750  66.2619741 102.1816039  14.3786524  54.4917546
 101.9362081  13.4748854  54.6897756 102.3511954  14.3803674  53.5497024
 107.9258812  20.8469477  50.9568224 107.3532779  21.4659664  50.5038696
 108.4991606  21.3968838  51.4908146 111.1456072  21.1306627  52.0876806
 112.0786745  21.0652188  52.2909682 111.0579285  21.9662894  51.6291339
 113.7744088  20.4472497  49.0480754 113.6957720  20.1132361  49.9416512
 114.5953755  20.9394265  49.0472226 108.1944303  16.2348036  69.7584934
 109.1147313  16.4126635  69.9524980 108.1593886  15.2904081  69.6064633
  97.4126468  11.4286629  58.6838208  97.0929252  10.5751937  58.3912582
  96.8659896  11.6435207  59.4396176 101.1906376  14.1449070  62.4007715
 101.4092385  15.0766178  62.4195749 101.6032149  13.7857045  63.1862519
  97.2814728  15.0489541  60.6531330  96.5878200  14.6343493  60.1401284
  98.0287719  15.0910077  60.0564749  99.1951471  14.9807794  58.5297345
  99.1722159  15.0795482  57.5779228  99.5052107  15.8272945  58.8514511
 101.8538848  17.0383949  62.6443959 102.8082102  17.0067892  62.5773891
 101.6551372  16.5774573  63.4594185 102.4438231  15.6085066  65.2114757
 103.2631120  16.1029144  65.2349594 102.7175038  14.6917034  65.1832324
 100.2089077  22.5803569  59.6614157 100.0743545  21.8203970  59.0952155
  99.7921140  23.3044469  59.1942946 111.3448040  17.7640493  48.6690732
 112.0483890  17.9690495  49.2848388 110.6210689  18.3317254  48.9339816
 103.3658203  23.4772886  59.8732600 103.2490587  24.4218318  59.7711290
 102.5450649  23.1746448  60.2618399 113.2534738  18.2023022  50.7189192
 114.0880342  17.7704220  50.5366667 113.0919081  18.0305035  51.6466087
 110.2226537  17.0104047  71.4099094 111.0917697  17.1844699  71.0485729
 109.7433289  17.8298464  71.2874824 104.3912717  24.1301148  63.0888528
 105.2939964  24.1624758  63.4055023 104.1650087  23.2001599  63.1034864
 106.1466319  22.8832134  59.7498607 105.1961950  22.8833996  59.6362979
 106.4498805  22.1364869  59.2334641 114.5495535  30.5255577  56.7402785
 113.9860400  30.4345514  55.9719072 114.4347930  29.7055482  57.2205277
 112.0959967  32.0206769  59.5787005 112.8881259  31.6797594  59.1633304
 112.3356617  32.1301744  60.4989158 114.0550721  31.2815682  52.4504384
 114.8281597  30.7344669  52.3117260 114.4076119  32.1459932  52.6618845
 115.8935763  32.6092064  65.6571283 115.6025629  33.5137695  65.5417950
 116.5292748  32.6508592  66.3715353 116.8191970  29.9868913  62.2472643
 117.4155542  29.7624935  61.5329606 116.8766942  29.2453658  62.8498091
 116.3916998  27.4408348  50.0822834 116.6442519  26.9189870  49.3206297
 115.4541558  27.2774494  50.1849517 116.1113287  29.3436454  52.2847209
 115.9949545  28.6681358  52.9528293 116.2215547  28.8568828  51.4679362
 118.0950315  23.8336501  50.9855247 118.2624717  24.7016737  51.3525718
 117.9047484  23.9963783  50.0616536 114.3038130  28.7467277  58.6857781
 113.3788626  28.6143491  58.8935473 114.5522543  29.5261496  59.1827724
 118.0739536  26.2894159  51.9701913 117.9539161  26.7351209  52.8087394
 117.3792124  26.6379476  51.4115452 111.6646941  28.3900550  59.5201570
 111.7939322  28.6435029  60.4340982 110.9844392  28.9828258  59.2006225
 115.8346428  39.0597800  55.6192045 115.7570458  40.0105625  55.6980525
 115.2308072  38.7143673  56.2766971 116.5810030  29.0411119  67.8371379
 117.3224715  29.5796163  67.5606202 115.8747016  29.6677408  67.9942930
 114.8246227  31.0287340  60.3925677 115.3947584  31.4574608  59.7543162
 115.4154339  30.7469925  61.0909863 116.8691032  27.6039011  54.2635479
 117.5715076  28.0560054  54.7309405 116.5371661  26.9622830  54.8915372
 115.3171394  26.1950767  68.6386689 114.6870054  26.8767048  68.8722085
 115.2107482  26.0833849  67.6939827 110.6116366  25.8622563  59.5652613
 109.8215420  26.1180092  59.0892723 111.1027614  26.6770901  59.6704653
 112.5631112  26.2267143  56.5236089 111.7662275  26.3385837  57.0419585
 112.3356704  26.5653795  55.6576980 108.8954069  26.1153054  61.9967603
 109.1462108  27.0000064  62.2625179 109.4313618  25.9357655  61.2242695
 114.5952137  20.4971533  71.0011940 114.2019082  19.9437732  71.6759584
 115.4118277  20.8082112  71.3918457 111.5614194  31.9355391  54.9125509
 112.0738715  32.7298642  55.0631074 112.2136907  31.2381682  54.8459111
 113.3709079  35.0521148  56.9948263 113.5475707  35.9739112  56.8069246
 114.1665913  34.7379567  57.4242642 117.5120098  21.9129412  68.5932196
 118.2529811  22.5136565  68.5136659 117.7438020  21.1707050  68.0350239
 112.6561436  27.0985779  66.8710426 112.5414951  26.1971037  67.1717525
 111.8005953  27.3449476  66.5195242 114.4940395  36.5699321  62.9958605
 115.0447820  36.4416385  62.2235599 113.6551870  36.8694210  62.6453498
 109.5263111  30.2644046  55.6885080 110.3638333  30.6741054  55.4718788
 109.7041379  29.3243488  55.6585274 116.7816687  20.3953900  59.8411893
 117.6469684  20.1996709  59.4817782 116.8494196  20.1664252  60.7681250
 114.3879006  22.6256108  57.2128260 114.9622758  22.4031289  56.4801453
 114.9749988  22.6944802  57.9656861 114.7148593  24.6560569  51.2324145
 113.8785905  24.9935256  51.5533420 114.5753363  24.5209549  50.2951282
 116.6901674  19.4997357  55.9403329 116.0366086  19.1846374  55.3159944
 116.6482148  18.8773097  56.6663152 109.5489282  27.6034761  56.3595813
 109.3513682  27.0104122  55.6346880 108.9935946  27.2986971  57.0771752
 117.5286006  27.4957867  58.4790407 117.5834616  26.5431704  58.4032883
 116.7177208  27.6517307  58.9631705 115.4678366  26.1134927  56.2380785
 114.6546231  26.4129098  56.6445978 115.9637360  25.7190616  56.9555268
 114.9592441  23.6853283  61.8542020 115.5991820  23.5442042  61.1564984
 114.1269971  23.3987796  61.4780622 115.7352745  32.9855713  57.9677013
 116.5293343  32.4906033  57.7659588 115.0244437  32.4573576  57.6044718
 112.0435508  27.1298795  54.0436766 111.1133096  27.0683250  54.2606728
 112.1392980  26.6074748  53.2473407 111.9621057  23.6553608  56.6315007
 112.2227874  24.5698941  56.5224168 112.7838229  23.1878050  56.7811620
 113.4345982  25.0691365  63.8013832 114.1069036  24.8608727  63.1526481
 112.6075769  24.8713451  63.3619064 113.8373480  28.3433968  64.5616269
 113.6993278  27.6114207  65.1627808 114.7478403  28.2542868  64.2800457
 116.4655780  28.0553927  64.0499949 117.1755399  27.4147119  64.0086567
 116.4225088  28.3066822  64.9726129 115.1784714  25.0419145  65.8695588
 114.6422071  24.5909883  66.5217184 114.5901423  25.1765054  65.1266052
 113.4733258  41.8083194  59.7640247 113.7129856  42.4401718  60.4419265
 112.6302454  41.4571234  60.0505606 114.5886973  24.5007796  48.4322052
 113.7116440  24.3796597  48.0684298 115.0644726  23.7093875  48.1800940
 106.1089113  29.2884956  58.5263559 106.7960153  28.9746686  57.9384574
 105.9537242  30.1926321  58.2530810 110.9123836  24.1775153  62.9548582
 110.8282024  23.5700822  62.2198992 110.0906542  24.6684171  62.9558079
 117.9861120  37.6162317  62.1681751 117.9131291  38.4217288  62.6801055
 117.5438513  37.8154283  61.3429772 117.6682518  24.8046099  58.0490462
 117.2980306  24.2517140  58.7371368 118.1641611  24.2004233  57.4965462
 115.4971717  35.2643594  65.1445480 116.1981176  35.8980077  65.2974874
 115.0266832  35.6058326  64.3841119 111.0939435  34.7979949  62.0776583
 111.6792872  34.0523637  62.2104487 110.8964273  35.1083906  62.9613247
 113.9478090  37.8331197  57.0939025 113.2788465  38.3177324  56.6103065
 113.8090960  38.0800417  58.0082404 105.6857090  27.3685550  60.7981026
 105.7241189  26.8349140  61.5918144 105.1797382  26.8420755  60.1792003
 113.0647852  22.2150090  64.2943568 113.1289178  23.0764921  63.8820966
 113.0014972  21.6024092  63.5615927 112.5400124  24.2873223  67.9416602
 113.1672163  23.9050300  68.5554127 111.6828043  24.0687425  68.3072295
 109.3165667  26.0949652  53.8734957 109.6119108  25.1860330  53.8202011
 108.4153703  26.0737391  53.5515960 112.8459914  24.1705648  59.8562506
 112.1246500  24.7841616  59.7169979 113.6353170  24.7063413  59.7779152
 115.6486228  21.5060075  66.1303158 116.1720629  21.7522371  66.8929467
 115.4298561  22.3380110  65.7106295 111.0453509  23.7763749  53.9974282
 110.7166215  22.8961128  53.8149388 111.3992879  23.7211418  54.8850672
 114.1595332  24.0636719  54.3649760 114.4991404  24.5922640  53.6428368
 114.6067452  24.4017125  55.1408327 116.8538773  22.4473770  63.8152828
 116.5135593  21.6481583  64.2173508 116.1477779  22.7475481  63.2429661
 116.1463479  22.5611341  52.5643053 116.8671841  22.9392594  52.0606770
 115.5228783  23.2800218  52.6678031 115.0293823  26.2242203  60.0772130
 114.8838404  26.5382506  60.9696411 114.5519027  26.8427103  59.5243028
 116.8890206  23.2144751  60.1253019 116.8751775  22.3185844  59.7885317
 117.6062634  23.2215415  60.7591305 109.5039485  28.7647547  63.0159791
 108.9592953  29.5407355  63.1480065 110.3818835  29.1118352  62.8578912
 116.2927102  22.0959131  55.3940590 116.4143013  21.1675777  55.5931477
 116.0029144  22.1097817  54.4818905 110.2905507  27.8917444  65.9089948
 109.5487243  28.0400079  66.4954578 109.9698252  28.1525709  65.0456697
 110.7362121  35.7782872  57.9400342 111.5620141  35.4786644  57.5598986
 110.3856173  35.0090495  58.3890131 115.7043654  35.1309341  60.0098016
 115.0823663  34.4680046  59.7100244 116.3748521  35.1570472  59.3271664
 108.9370726  33.6969199  58.8989276 108.1002634  33.2691373  58.7173277
 108.9094371  33.8901642  59.8360067 115.7768182  23.6091129  69.6030522
 115.8256337  24.4853251  69.2208292 116.3190696  23.0668522  69.0302165
 115.2657161  33.6813264  53.4856477 115.4145281  34.3648728  52.8323149
 116.0723604  33.6618354  54.0005932 118.0067470  24.3622501  66.3576881
 117.1370779  24.6556067  66.0859469 118.2426950  24.9462946  67.0784144
 113.0209794  29.7078442  54.4917546 112.7755836  28.8040772  54.6897756
 113.1905709  29.7095592  53.5497024 112.2905442  25.4406799  51.9903707
 111.5974686  25.5151154  51.3343743 112.0457193  24.6767143  52.5125224
 117.3342282  25.4372183  48.2339162 116.4273738  25.1405296  48.3101875
 117.6118263  25.1402002  47.3673448 108.2520223  26.7578547  58.6838208
 107.9323007  25.9043855  58.3912582 107.7053651  26.9727125  59.4396176
 112.0300130  29.4740988  62.4007715 112.2486140  30.4058096  62.4195749
 112.4425904  29.1148962  63.1862519 116.9027995  25.0474194  71.7910464
 116.8024722  25.9968551  71.7222555 116.6849537  24.7192433  70.9186534
 116.1041067  22.2959119  48.3751141 116.9660231  22.6214017  48.6346958
 116.2891411  21.5090615  47.8624207 108.1208483  30.3781458  60.6531330
 107.4271954  29.9635411  60.1401284 108.8681474  30.4201995  60.0564749
 116.7659265  28.4771332  70.6075525 116.2826347  29.2771693  70.8139414
 116.8520205  28.4879277  69.6542969 110.0345225  30.3099712  58.5297345
 110.0115913  30.4087399  57.5779228 110.3445862  31.1564863  58.8514511
 112.6932603  32.3675867  62.6443959 113.6475857  32.3359810  62.5773891
 112.4945127  31.9066491  63.4594185 113.2831985  30.9376983  65.2114757
 114.1024874  31.4321062  65.2349594 113.5568793  30.0208951  65.1832324
 111.0482832  37.9095487  59.6614157 110.9137300  37.1495888  59.0952155
 110.6314894  38.6336387  59.1942946 114.2051958  38.8064804  59.8732600
 114.0884342  39.7510236  59.7711290 113.3844404  38.5038365  60.2618399
 108.5366899  25.2715117  65.9106954 109.1825763  24.7614071  66.3994179
 108.3284050  26.0083799  66.4850379 117.0570510  19.5355162  51.6630850
 117.0449180  20.4797002  51.8199121 117.9493932  19.3525307  51.3690311
 115.2306472  39.4593066  63.0888528 116.1333718  39.4916676  63.4055023
 115.0043842  38.5293517  63.1034864 116.9860074  38.2124052  59.7498607
 116.0355705  38.2125914  59.6362979 117.2892560  37.4656787  59.2334641
 112.8764390  22.4182734  70.0081968 113.7395852  22.0619539  70.2185293
 112.3029801  22.0796629  70.6957372 116.9482868  44.6176874  58.5263559
 117.6353908  44.3038604  57.9384574 116.7930997  45.5218238  58.2530810
 116.5250844  42.6977467  60.7981026 116.5634944  42.1641058  61.5918144
 116.0191137  42.1712673  60.1792003 113.4733259  18.8145317  46.4885553
 113.7129857  19.4463841  47.1664572 112.6302456  18.4633357  46.7750913
 116.9482869  21.6238996  45.2508865 117.6353909  21.3100726  44.6629881
 116.7930998  22.5280361  44.9776117 116.5250845  19.7039590  47.5226333
 116.5634945  19.1703180  48.3163451 116.0191138  19.1774795  46.9037310
  23.1537161  61.4852040 117.1526771  22.4798859  61.7883737 117.7611729
  23.5402983  62.2881120 116.8032228  27.0594046  58.7702296 115.4254218
  26.9807678  58.4362159 116.3189976  27.8803713  59.2624064 115.4245690
  24.6297998  56.0870291 115.0464196  25.3333848  56.2920294 115.6621852
  23.9060647  56.6547053 115.3113279  27.8345493  68.8485376 123.1176248
  27.2710358  68.7575313 122.3492536  27.7197888  68.0285280 123.5978741
  33.4145051  72.5156344 118.4290713  32.7633031  73.1010424 118.0424727
  34.2089414  73.0462539 118.4885751  27.3400678  69.6045481 118.8277848
  28.1131554  69.0574468 118.6890723  27.6926077  70.4689730 119.0392309
  29.6766956  65.7638147 116.4596298  29.9292477  65.2419668 115.6979761
  28.7391515  65.6004292 116.5622981  34.7210239  64.7673925 124.2671041
  35.5073328  64.3493348 123.9161458  34.9848943  65.6720018 124.4352689
  34.8920316  70.2046776 118.9659698  34.2566149  70.2781402 119.6780602
  34.5617723  70.7940374 118.2878777  40.1218666  64.7049159 125.1704019
  40.8543838  64.1348375 125.4041849  39.3658022  64.3170759 125.6110525
  29.3963245  67.6666253 118.6620673  29.2799503  66.9911156 119.3301757
  29.5065505  67.1798627 117.8452826  31.7394786  67.1276400 122.3667362
  31.3752993  66.6007021 123.0780283  32.5961902  66.7374869 122.1933847
  31.3800273  62.1566300 117.3628710  31.5474675  63.0246536 117.7299181
  31.1897442  62.3193581 116.4390000  31.3589494  64.6123957 118.3475377
  31.2389119  65.0581008 119.1860857  30.6642082  64.9609275 117.7888915
  37.0574560  65.0845430 119.1755711  37.9692416  65.3172817 119.0003409
  36.5484207  65.6682475 118.6130790  35.6644142  70.0671249 126.5669293
  35.0353005  70.2316963 125.8645360  35.2769804  70.4812858 127.3380257
  39.5433374  71.0025687 123.9213656  38.8584412  71.3824588 123.3710690
  39.6277223  71.6121013 124.6545604  31.2172104  69.8045657 123.8319378
  31.6810450  70.0833360 123.0424000  30.9528902  68.9029102 123.6492468
  30.1540990  65.9268809 120.6408943  30.8565034  66.3789853 121.1082869
  29.8221619  65.2852628 121.2688836  37.9130134  71.5257601 128.6931357
  38.7347577  71.1237788 128.4114039  37.9092537  71.4225835 129.6447473
  46.0036127  67.8696350 125.0416329  45.2499835  67.3003748 124.8860333
  46.1383668  67.8359014 125.9886963  31.3934755  72.7409752 120.7171048
  31.2580430  73.5861288 121.1455896  31.9344567  72.9429030 119.9536982
  34.7077501  66.2548925 117.7542377  34.1924125  67.0253530 117.9930764
  34.4354810  65.5814061 118.3775438  39.6811775  69.0081280 119.6895550
  38.9041218  68.6692439 119.2450712  40.3603256  69.0133903 119.0150515
  34.4963804  64.1276017 119.5802158  34.1913940  64.4422166 120.4312301
  35.4494246  64.2057437 119.6229491  32.9410236  70.2866240 121.2295112
  32.4131598  69.5519000 120.9168349  32.4397739  71.0640917 120.9835080
  37.9203082  68.4815261 126.3462158  37.2626757  69.1714522 126.4342287
  38.7243481  68.8711693 126.6896144  36.7308541  66.8359633 124.3966100
  37.2440423  67.4689625 124.8987810  37.3809765  66.2360829 124.0309460
  27.9998551  62.9790368 117.6097609  27.1635863  63.3165054 117.9306883
  27.8603320  62.8439347 116.6724746  31.0862836  68.1046451 114.2330085
  30.1789898  67.8735704 114.4321234  31.5833868  67.3084070 114.4204066
  33.9930915  76.8143958 117.1526771  33.3192614  77.1175655 117.7611729
  34.3796737  77.6173038 116.8032228  33.9924420  65.7100505 121.7727121
  34.7396238  66.2221902 121.4634243  34.2616009  65.3884557 122.6331514
  32.2651070  68.2059045 118.7554075  31.3562289  67.9218078 118.8526545
  32.2946154  68.6258124 117.8957382  37.4970337  71.8165635 122.5245242
  37.0432664  70.9756545 122.5810433  36.8664304  72.4527033 122.8620023
  35.9403276  73.6542132 123.4595061  36.2326251  74.2147189 122.7407426
  36.4501897  73.9470693 124.2148220  31.9627158  69.7467789 116.0942154
  31.5246587  69.0303648 115.6347791  32.7037598  69.9743904 115.5327245
  40.0800272  68.0224986 122.1518472  39.9418171  68.2126582 121.2239661
  39.7236491  68.7844369 122.6086523  40.1069652  70.0901513 127.1629744
  40.5406159  69.9976802 128.0112798  40.8201233  70.0659014 126.5249760
  25.3285466  65.4528593 120.4210229  24.3983054  65.3913049 120.6380191
  25.4242938  64.9304546 119.6246871  32.1922130  76.9823630 119.3673850
  32.3673886  76.5111673 120.1819473  31.5054918  77.6089396 119.5955111
  33.1479193  71.2596136 125.4137151  32.8129026  71.2196906 126.3094801
  32.6483139  70.5940852 124.9407562  36.0838385  68.6052171 115.6874211
  35.4667556  67.8798999 115.5907264  35.6154874  69.3661531 115.3441285
  27.8736931  62.8237595 114.8095515  26.9966397  62.7026396 114.4457762
  28.3494684  62.0323673 114.5574404  31.0600857  75.1763885 122.0558036
  30.2768379  75.7185566 122.1496260  31.7593602  75.6937865 122.4552277
  42.2227265  66.6898880 126.3410533  42.2117141  67.5723596 125.9704466
  41.3544644  66.3370431 126.1465070  35.4527288  69.7430202 122.2730665
  34.5183567  69.8631665 122.1035369  35.6303956  68.8402669 122.0090675
  38.8399839  65.5847521 122.8080699  39.3060291  66.4175513 122.7341001
  39.2907340  65.1192503 123.5125957  36.9076070  71.9291343 119.8066851
  37.1835914  71.8147937 120.7160725  36.0380569  71.5308828 119.7679024
  33.5430134  76.1777694 123.4499664  33.7252529  75.3599349 123.9127417
  34.3663120  76.3945386 123.0124554  33.8772300  75.1045879 120.7114713
  34.4060066  74.5938333 120.0984875  34.1400519  74.7888409 121.5760246
  33.5783045  73.7348451 124.8842732  33.4308008  72.8065158 125.0650302
  34.4036539  73.7568541 124.3999807  37.1817167  74.5577009 125.9707604
  38.1063715  74.3519871 125.8332056  37.0132471  74.3093411 126.8796946
  29.4313437  60.8841139 118.9416517  30.1521799  61.2622392 118.4380233
  28.8078741  61.6030016 119.0451495  33.5744560  61.5886288 119.8774849
  33.7908174  62.4710926 119.5763677  33.0938627  61.1972502 119.1480491
  36.9712483  75.0762677 121.3269696  37.1449361  74.5109099 120.5743548
  37.4641375  75.8763572 121.1449186  42.8251875  67.8399100 122.9459996
  43.2683021  67.0906425 122.5479119  41.9478385  67.8309236 122.5633728
  37.9587656  74.3929441 118.4266594  38.6538560  75.0136134 118.6453909
  38.3010806  73.5424792 118.7018972  39.8579079  71.8429147 119.9553925
  40.3830403  72.1816420 119.2303245  39.7701432  70.9076162 119.7717060
  28.5507119  72.0043063 119.8629940  28.6995239  72.6878527 119.2096613
  29.3573562  71.9848153 120.3779396  42.3684739  69.3104338 125.3382443
  43.2031631  69.7494142 125.5020004  42.5043868  68.8342991 124.5190689
  26.3059752  68.0308240 120.8691009  26.0605794  67.1270570 121.0671219
  26.4755666  68.0325391 119.9270487  25.5755399  63.7636598 118.3677171
  24.8824644  63.8380953 117.7117207  25.3307151  62.9996941 118.8898688
  32.0502524  74.4991193 117.3341688  31.4776491  75.1181380 116.8812160
  32.6235318  75.0490555 117.8681610  35.2699784  74.7828343 118.4650270
  36.2030457  74.7173905 118.6683146  35.1822997  75.6184610 118.0064803
  37.8987801  74.0994213 115.4254218  37.8201432  73.7654077 116.3189976
  38.7197468  74.5915981 115.4245690  32.4349323  65.8352006 114.6757740
  33.3808428  65.7058214 114.7446158  32.0563568  65.0966668 115.1527168
  46.4142542  68.0271960 127.7736573  47.1445930  67.7657248 128.3344276
  45.8049487  67.2900682 127.8138641  44.4957839  66.1679822 128.3711024
  43.7691003  66.0335787 127.7627516  44.0805126  66.4756651 129.1767742
  30.6192240  63.7601982 114.6112626  29.7123695  63.4635095 114.6875339
  30.8968221  63.4631800 113.7446912  29.3891025  60.6188917 114.7524605
  30.2510189  60.9443816 115.0120422  29.5741369  59.8320413 114.2397671
  37.5423661  59.4917444 121.8959828  36.9622330  60.1502248 121.5137880
  37.2759594  58.6694788 121.4847245  36.3248539  61.6517534 120.9516176
  35.4374394  61.9367185 120.7336371  36.7402528  61.4911298 120.1043453
  35.4691753  71.4162209 115.0464196  36.1727603  71.6212211 115.6621852
  34.7454401  71.9838971 115.3113279  36.2989563  67.1672070 121.1666466
  36.2424764  67.6240622 120.3274099  36.8517905  66.4062755 120.9889309
  40.1094369  62.9561802 121.9916586  39.8531303  62.5558438 122.8224793
  39.4847237  63.6705596 121.8666725  44.4206707  65.6957875 124.4987877
  43.8606265  65.7651065 125.2719439  43.8150210  65.5198860 123.7787373
  37.3778450  71.8544738 117.0962656  38.2124054  71.4225937 116.9140131
  37.2162793  71.6826752 118.0239550  37.0324342  68.3576851 118.4618995
  36.9773146  68.1921123 117.5207439  36.4070397  69.0652884 118.6181185
  30.3420468  57.8584960 118.0404314  30.3299137  58.8026800 118.1972585
  31.2343889  57.6755106 117.7463775  38.6739247  84.1777294 123.1176248
  38.1104112  84.0867231 122.3492536  38.5591642  83.3577198 123.5978741
  44.2538806  87.8448261 118.4290713  43.6026786  88.4302342 118.0424727
  45.0483169  88.3754456 118.4885751  38.1794433  84.9337399 118.8277848
  38.9525309  84.3866386 118.6890723  38.5319832  85.7981648 119.0392309
  40.5160711  81.0930065 116.4596298  40.7686231  80.5711586 115.6979761
  39.5785270  80.9296210 116.5622981  45.5603994  80.0965843 124.2671041
  46.3467083  79.6785266 123.9161458  45.8242698  81.0011935 124.4352689
  45.7314071  85.5338693 118.9659698  45.0959904  85.6073320 119.6780602
  45.4011477  86.1232292 118.2878777  40.2356999  82.9958171 118.6620673
  40.1193258  82.3203074 119.3301757  40.3459259  82.5090545 117.8452826
  42.5788540  82.4568318 122.3667362  42.2146748  81.9298939 123.0780283
  43.4355656  82.0666787 122.1933847  42.2194027  77.4858217 117.3628710
  42.3868430  78.3538454 117.7299181  42.0291196  77.6485499 116.4390000
  42.1983248  79.9415875 118.3475377  42.0782873  80.3872926 119.1860857
  41.5035837  80.2901193 117.7888915  47.8968314  80.4137348 119.1755711
  48.8086171  80.6464735 119.0003409  47.3877961  80.9974392 118.6130790
  45.2404289  76.5895384 127.4245572  44.3788768  76.8876638 127.7162310
  45.2666724  76.8065783 126.4926605  42.0565859  85.1337575 123.8319378
  42.5204204  85.4125278 123.0424000  41.7922657  84.2321019 123.6492468
  40.9934745  81.2560727 120.6408943  41.6958788  81.7081771 121.1082869
  40.6615373  80.6144546 121.2688836  36.6874824  79.8788859 122.9009553
  35.8905987  79.9907553 123.4193049  36.4600416  80.2175511 122.0350444
  42.2328509  88.0701670 120.7171048  42.0974184  88.9153205 121.1455896
  42.7738322  88.2720947 119.9536982  45.5820973  71.5932231 129.2469942
  45.2385242  72.4833873 129.1709052  45.9499935  71.4033889 128.3839527
  45.5471256  81.5840843 117.7542377  45.0317879  82.3545447 117.9930764
  45.2748564  80.9105979 118.3775438  43.1318367  76.4290543 122.8127615
  42.2759963  76.0397394 122.6333254  43.5445318  76.5082504 121.9527401
  44.6617513  73.9636887 127.2119175  44.1582309  73.9267022 126.3986980
  44.9548120  74.8729629 127.2715831  40.9060399  74.0475616 126.2185357
  41.7713396  73.8518425 125.8591246  40.9737908  73.8185968 127.1454713
  50.5205530  84.3373197 119.6895550  49.7434972  83.9984357 119.2450712
  51.1997011  84.3425820 119.0150515  45.3357559  79.4567935 119.5802158
  45.0307694  79.7714084 120.4312301  46.2888001  79.5349355 119.6229491
  43.7803991  85.6158158 121.2295112  43.2525352  84.8810918 120.9168349
  43.2791493  86.3932834 120.9835080  38.5122718  76.2777824 123.5901723
  39.0866470  76.0553006 122.8574916  39.0993701  76.3466519 124.3430325
  38.8392305  78.3082285 117.6097609  38.0029618  78.6456972 117.9306883
  38.6997075  78.1731265 116.6724746  40.8145386  73.1519073 122.3176793
  40.1609798  72.8368090 121.6933408  40.7725860  72.5294814 123.0436616
  41.9256591  83.4338368 114.2330085  41.0183652  83.2027622 114.4321234
  42.4227623  82.6375988 114.4204066  44.8324670  92.1435875 117.1526771
  44.1586368  92.4467572 117.7611729  45.2190492  92.9464956 116.8032228
  44.8318174  81.0392422 121.7727121  45.5789993  81.5513820 121.4634243
  45.1009764  80.7176475 122.6331514  43.1044824  83.5350963 118.7554075
  42.1956043  83.2509996 118.8526545  43.1339908  83.9550042 117.8957382
  47.2797011  78.0749539 123.7545910  46.5419768  77.5626925 124.0856153
  47.5323785  77.6349920 122.9429187  47.3808638  70.8525791 124.3487679
  47.6867515  69.9923154 124.0613594  48.1061243  71.4443411 124.1486673
  41.6529718  81.1479584 124.8563870  41.7078328  80.1953420 124.7806347
  40.8420920  81.3039023 125.3405169  42.8020912  85.0759707 116.0942154
  42.3640342  84.3595566 115.6347791  43.5431353  85.3035822 115.5327245
  39.5922078  79.7656643 122.6154249  38.7789944  80.0650814 123.0219441
  40.0881072  79.3712332 123.3328731  39.0836153  77.3374999 128.2315484
  39.7235532  77.1963758 127.5338447  38.2513683  77.0509512 127.8554086
  36.1679220  80.7820511 120.4210229  35.2376808  80.7204967 120.6380191
  36.2636692  80.2596464 119.6246871  36.0864769  77.3075324 123.0088471
  36.3471587  78.2220657 122.8997631  36.9081942  76.8399767 123.1585084
  46.9232140  83.9344088 115.6874211  46.3061310  83.2090917 115.5907264
  46.4548628  84.6953449 115.3441285  38.7130686  78.1529513 114.8095515
  37.8360152  78.0318314 114.4457762  39.1888439  77.3615591 114.5574404
  45.2091262  76.3150433 124.6992241  45.7059961  75.5620395 124.3793312
  44.4378243  76.3514749 124.1335451  41.7926230  78.4567816 124.4263926
  41.4224018  77.9038856 125.1144831  42.2885323  77.8525949 123.8738926
  47.6510256  73.2820026 126.8471600  46.7373336  73.5124253 127.0153807
  48.0803358  73.3658470 127.6985633  33.4409379  79.7471368 120.2508421
  33.7362820  78.8382046 120.1975475  32.5397415  79.7259107 119.9289423
  35.1697221  77.4285466 120.3747746  34.8409927  76.5482845 120.1922852
  35.5236592  77.3733134 121.2624135  38.2839044  77.7158435 120.7423224
  38.6235117  78.2444357 120.0201832  38.7311165  78.0538842 121.5181790
  41.6298957  73.1844799 128.6453615  42.4525026  72.7105277 128.5232505
  41.8737020  73.9635282 129.1452301  40.2707191  76.2133057 118.9416517
  40.9915554  76.5914310 118.4380233  39.6472495  76.9321934 119.0451495
  44.4138314  76.9178206 119.8774849  44.6301929  77.8002844 119.5763677
  43.9332381  76.5264419 119.1480491  41.0133918  76.8666467 126.5026483
  40.9995487  75.9707561 126.1658781  41.7306347  76.8737131 127.1364769
  40.4170814  75.7480848 121.7714053  40.5386726  74.8197494 121.9704941
  40.1272857  75.7619533 120.8592369  43.2862005  73.4335758 124.9080773
  43.3083702  73.4975091 123.9532753  43.7030064  72.5940267 125.1021279
  39.3900873  87.3334980 119.8629940  39.5388994  88.0170445 119.2096613
  40.1967317  87.3140070 120.3779396  37.1453506  83.3600158 120.8691009
  36.8999548  82.4562488 121.0671219  37.3149421  83.3617308 119.9270487
  36.4149154  79.0928515 118.3677171  35.7218399  79.1672870 117.7117207
  36.1700906  78.3288859 118.8898688  45.0862810  70.6524117 125.7716661
  45.3664564  69.9847306 126.3977088  45.8713417  70.8453212 125.2591325
  42.8896279  89.8283111 117.3341688  42.3170246  90.4473298 116.8812160
  43.4629072  90.3782472 117.8681610  46.1093539  90.1120261 118.4650270
  47.0424212  90.0465822 118.6683146  46.0216751  90.9476528 118.0064803
  48.7381555  89.4286131 115.4254218  48.6595187  89.0945995 116.3189976
  49.5591222  89.9207899 115.4245690  43.2743077  81.1643923 114.6757740
  44.2202182  81.0350131 114.7446158  42.8957322  80.4258585 115.1527168
  49.2464962  72.8299929 124.6384632  49.0489783  72.5215018 125.5227964
  49.8564667  73.5561568 124.7682562  41.4585994  79.0893900 114.6112626
  40.5517450  78.7927012 114.6875339  41.7361975  78.7923718 113.7446912
  43.0748060  73.6330789 120.7656867  42.2648789  73.2877874 121.1412113
  43.7632477  73.3238333 121.3544478  45.0038608  72.7108836 122.3881163
  45.5569647  73.1304290 123.0471187  45.2408695  71.7844584 122.4304119
  40.2284779  75.9480835 114.7524605  41.0903943  76.2735733 115.0120422
  40.4135123  75.1612331 114.2397671  48.3817416  74.8209361 121.8959828
  47.8016085  75.4794165 121.5137880  48.1153348  73.9986706 121.4847245
  46.8320982  74.2214419 124.0981148  47.3320760  74.3330954 123.2895467
  47.4756590  73.9175472 124.7381956  47.1642294  76.9809452 120.9516176
  46.2768149  77.2659102 120.7336371  47.5796283  76.8203215 120.1043453
  46.3085507  86.7454127 115.0464196  47.0121357  86.9504129 115.6621852
  45.5848156  87.3130888 115.3113279  47.1383317  82.4963988 121.1666466
  47.0818519  82.9532539 120.3274099  47.6911660  81.7354672 120.9889309
  50.9488123  78.2853720 121.9916586  50.6925057  77.8850355 122.8224793
  50.3240991  78.9997514 121.8666725  48.2172204  87.1836656 117.0962656
  49.0517808  86.7517854 116.9140131  48.0556547  87.0118669 118.0239550
  47.8718097  83.6868769 118.4618995  47.8166900  83.5213040 117.5207439
  47.2464152  84.3944802 118.6181185  41.1814222  73.1876878 118.0404314
  41.1692892  74.1318718 118.1972585  42.0737644  73.0047023 117.7463775
  44.9966342  69.7819655 122.2950251  44.2298737  69.2278141 122.4406933
  45.4077047  69.8541523 123.1564402  49.5524440  93.4821430 114.8095515
  48.6753906  93.3610231 114.4457762  50.0282193  92.6907509 114.5574404
  51.0678534  91.2772753 114.7524605  51.9297698  91.6027651 115.0120422
  51.2528878  90.4904249 114.2397671  23.1537162  38.4914163 103.8772078
  22.4798861  38.7945859 104.4857035  23.5402984  39.2943243 103.5277535
  27.0594048  35.7764418 102.1499524  26.9807679  35.4424282 103.0435282
  27.8803714  36.2686186 102.1490997  24.6297999  33.0932414 101.7709503
  25.3333849  33.2982416 102.3867158  23.9060648  33.6609176 102.0358586
  27.8345494  45.8547499 109.8421555  27.2710359  45.7637436 109.0737843
  27.7197889  45.0347403 110.3224048  33.4145053  49.5218466 105.1536020
  32.7633032  50.1072547 104.7670034  34.2089415  50.0524661 105.2131057
  27.3400680  46.6107603 105.5523154  28.1131556  46.0636591 105.4136030
  27.6926079  47.4751853 105.7637616  29.6766958  42.7700270 103.1841604
  29.9292478  42.2481791 102.4225067  28.7391517  42.6066415 103.2868288
  34.7210240  41.7736048 110.9916347  35.5073330  41.3555471 110.6406764
  34.9848945  42.6782140 111.1597996  34.8920318  47.2108898 105.6905004
  34.2566151  47.2843525 106.4025909  34.5617724  47.8002497 105.0124083
  40.1218667  41.7111281 111.8949326  40.8543839  41.1410498 112.1287155
  39.3658023  41.3232882 112.3355832  29.3963246  44.6728376 105.3865979
  29.2799504  43.9973279 106.0547063  29.5065506  44.1860749 104.5698132
  31.7394787  44.1338523 109.0912668  31.3752994  43.6069144 109.8025590
  32.5961903  43.7436992 108.9179154  31.3800274  39.1628422 104.0874017
  31.5474676  40.0308659 104.4544488  31.1897443  39.3255704 103.1635306
  31.3589495  41.6186080 105.0720684  31.2389120  42.0643131 105.9106164
  30.6642083  41.9671397 104.5134222  29.1196387  54.3889722 108.7210815
  29.0420417  55.3397547 108.7999296  28.5158031  54.0435594 109.3785741
  37.0574561  42.0907553 105.9001018  37.9692417  42.3234940 105.7248715
  36.5484208  42.6744597 105.3376096  35.6644143  47.0733371 113.2914599
  35.0353006  47.2379086 112.5890667  35.2769806  47.4874981 114.0625563
  39.5433375  48.0087809 110.6458963  38.8584414  48.3886711 110.0955996
  39.6277225  48.6183136 111.3790911  31.2172105  46.8107780 110.5564684
  31.6810451  47.0895483 109.7669307  30.9528903  45.9091224 110.3737775
  30.1540991  42.9330932 107.3654249  30.8565035  43.3851976 107.8328176
  29.8221620  42.2914751 107.9934143  37.9130135  48.5319724 115.4176664
  38.7347579  48.1299911 115.1359346  37.9092538  48.4287958 116.3692780
  46.0036128  44.8758472 111.7661635  45.2499836  44.3065870 111.6105640
  46.1383669  44.8421137 112.7132270  31.3934756  49.7471875 107.4416355
  31.2580431  50.5923410 107.8701203  31.9344569  49.9491152 106.6782289
  24.8464153  47.2647313 108.0144280  25.3588674  48.0590563 108.1649844
  25.4986866  46.5673603 107.9477881  26.6559038  50.3813069 110.0967033
  26.8325666  51.3031034 109.9088017  27.4515872  50.0671488 110.5261413
  34.7077502  43.2611048 104.4787683  34.1924126  44.0315652 104.7176071
  34.4354811  42.5876184 105.1020745  39.6811776  46.0143402 106.4140857
  38.9041219  45.6754562 105.9696019  40.3603257  46.0196025 105.7395822
  34.4963805  41.1338140 106.3047464  34.1913941  41.4484289 107.1557608
  35.4494248  41.2119559 106.3474797  32.9410237  47.2928363 107.9540418
  32.4131599  46.5581122 107.6413656  32.4397740  48.0703039 107.7080387
  37.9203083  45.4877383 113.0707465  37.2626758  46.1776645 113.1587593
  38.7243483  45.8773815 113.4141451  36.7308542  43.8421756 111.1211406
  37.2440424  44.4751748 111.6233116  37.3809766  43.2422952 110.7554767
  27.9998552  39.9852490 104.3342915  27.1635864  40.3227177 104.6552190
  27.8603322  39.8501470 103.3970052  31.0862838  45.1108573 100.9575391
  30.1789899  44.8797827 101.1566540  31.5833870  44.3146192 101.1449373
  33.9930916  53.8206080 103.8772078  33.3192615  54.1237777 104.4857035
  34.3796738  54.6235161 103.5277535  33.9924421  42.7162627 108.4972427
  34.7396240  43.2284025 108.1879549  34.2616010  42.3946680 109.3576821
  32.2651071  45.2121168 105.4799382  31.3562290  44.9280201 105.5771851
  32.2946155  45.6320247 104.6202688  37.4970338  48.8227758 109.2490549
  37.0432665  47.9818667 109.3055740  36.8664305  49.4589156 109.5865329
  35.9403278  50.6604254 110.1840367  36.2326252  51.2209311 109.4652733
  36.4501898  50.9532815 110.9393526  31.9627159  46.7529912 102.8187460
  31.5246589  46.0365771 102.3593097  32.7037600  46.9806027 102.2572552
  30.9036903  51.4384605 111.2733820  30.8613082  51.6645452 110.3442352
  31.8199602  51.2047980 111.4219622  40.0800274  45.0287109 108.8763779
  39.9418172  45.2188705 107.9484968  39.7236492  45.7906492 109.3331830
  40.1069653  47.0963636 113.8875050  40.5406160  47.0038925 114.7358104
  40.8201234  47.0721136 113.2495066  29.0202704  48.3147634 111.0695783
  29.8143302  47.8197954 110.8678358  28.3094396  47.7865497 110.7063489
  33.8397548  50.6965730 115.4208151  33.8934570  51.2656666 116.1885867
  32.9712329  50.8667615 115.0562188  25.3285467  42.4590716 107.1455536
  24.3983055  42.3975172 107.3625498  25.4242939  41.9366669 106.3492177
  32.1922132  53.9885753 106.0919157  32.3673887  53.5173796 106.9064779
  31.5054920  54.6151519 106.3200418  33.1479195  48.2658259 112.1382458
  32.8129027  48.2259029 113.0340108  32.6483140  47.6002975 111.6652868
  36.0838386  45.6114293 102.4119518  35.4667557  44.8861122 102.3152570
  35.6154875  46.3723654 102.0686592  26.7583217  57.1375116 112.8659017
  26.9979815  57.7693640 113.5438036  25.9152413  56.7863156 113.1524376
  27.8736932  39.8299718 101.5340822  26.9966399  39.7088518 101.1703069
  28.3494685  39.0385796 101.2819711  31.2711079  52.9454238 115.2700521
  31.1981250  53.7509210 115.7819826  30.8288472  53.1446204 114.4448542
  31.0600858  52.1826008 108.7803343  30.2768380  52.7247688 108.8741567
  31.7593604  52.6999988 109.1797584  42.2227266  43.6961003 113.0655839
  42.2117142  44.5785718 112.6949773  41.3544645  43.3432554 112.8710376
  35.4527289  46.7492325 108.9975971  34.5183568  46.8693787 108.8280676
  35.6303958  45.8464791 108.7335981  38.8399840  42.5909644 109.5326005
  39.3060293  43.4237636 109.4586308  39.2907341  42.1254626 110.2371264
  36.9076072  48.9353465 106.5312157  37.1835915  48.8210060 107.4406032
  36.0380570  48.5370950 106.4924331  33.5430136  53.1839816 110.1744971
  33.7252530  52.3661472 110.6372723  34.3663122  53.4007508 109.7369861
  33.8772301  52.1108001 107.4360020  34.4060068  51.6000456 106.8230182
  34.1400521  51.7950531 108.3005553  27.2328049  53.1623118 110.1957796
  26.5638424  53.6469246 109.7121836  27.0940919  53.4092338 111.1101174
  31.3733318  55.1966861 116.7940454  31.9251626  55.3598483 117.5589539
  31.7139511  55.7871299 116.1220479  34.5101705  53.1448837 113.7804136
  34.3852844  52.3438577 113.2715082  35.1680796  53.6395030 113.2918106
  36.5736613  50.9457857 115.4083686  35.6266949  50.8263208 115.3362013
  36.9219386  50.0580355 115.4909948  33.5783047  50.7410573 111.6088038
  33.4308009  49.8127281 111.7895608  34.4036540  50.7630664 111.1245114
  37.1817168  51.5639132 112.6952911  38.1063716  51.3581993 112.5577362
  37.0132472  51.3155533 113.6042253  29.4313438  37.8903262 105.6661823
  30.1521801  38.2684515 105.1625540  28.8078742  38.6092139 105.7696801
  33.5744561  38.5948411 106.6020156  33.7908175  39.4773049 106.3008984
  33.0938628  38.2034624 105.8725798  36.9712485  52.0824799 108.0515003
  37.1449362  51.5171222 107.2988855  37.4641376  52.8825694 107.8694493
  42.8251876  44.8461222 109.6705302  43.2683022  44.0968548 109.2724426
  41.9478386  44.8371359 109.2879034  37.9587657  51.3991564 105.1511901
  38.6538562  52.0198257 105.3699215  38.3010807  50.5486915 105.4264279
  39.8579080  48.8491269 106.6799232  40.3830404  49.1878542 105.9548552
  39.7701433  47.9138285 106.4962366  31.5419741  54.9163253 111.0394485
  31.1024731  54.4239631 111.7327342  32.2927858  54.3736220 110.7986560
  24.0212080  51.1074794 111.0419113  24.8470100  50.8078565 110.6617756
  23.6706132  50.3382416 111.4908902  28.9893613  50.4601262 113.1116786
  28.3673622  49.7971967 112.8119014  29.6598480  50.4862394 112.4290434
  28.5507120  49.0105185 106.5875247  28.6995240  49.6940649 105.9341920
  29.3573564  48.9910275 107.1024703  42.3684741  46.3166461 112.0627750
  43.2031632  46.7556265 112.2265310  42.5043869  45.8405114 111.2435996
  26.3059753  45.0370363 107.5936316  26.0605795  44.1332693 107.7916526
  26.4755668  45.0387513 106.6515794  25.5755401  40.7698720 105.0922477
  24.8824646  40.8443075 104.4362513  25.3307152  40.0059064 105.6143994
  32.0502526  51.5053316 104.0586994  31.4776493  52.1243503 103.6057466
  32.6235319  52.0552677 104.5926916  35.2699785  51.7890466 105.1895577
  36.2030459  51.7236027 105.3928452  35.1822998  52.6246733 104.7310109
  37.8987802  51.1056336 102.1499524  37.8201434  50.7716200 103.0435282
  38.7197469  51.5978104 102.1490997  32.4349324  42.8414128 101.4003047
  33.3808429  42.7120336 101.4691465  32.0563569  42.1028790 101.8772475
  46.4142543  45.0334082 114.4981880  47.1445932  44.7719370 115.0589583
  45.8049489  44.2962804 114.5383948  44.4957840  43.1741945 115.0956331
  43.7691004  43.0397910 114.4872822  44.0805127  43.4818773 115.9013049
  30.6192241  40.7664105 101.3357932  29.7123697  40.4697217 101.4120646
  30.8968222  40.4693923 100.4692218  29.3891026  37.6251040 101.4769911
  30.2510190  37.9505938 101.7365729  29.5741370  36.8382536 100.9642977
  37.5423662  36.4979566 108.6205134  36.9622331  37.1564370 108.2383187
  37.2759595  35.6756911 108.2092552  36.3248540  38.6579657 107.6761483
  35.4374395  38.9429307 107.4581677  36.7402529  38.4973420 106.8288760
  24.3332791  53.2387408 112.7632927  24.1987259  52.4787809 112.1970925
  23.9164853  53.9628308 112.2961716  35.4691754  48.4224331 101.7709503
  36.1727604  48.6274334 102.3867158  34.7454403  48.9901093 102.0358586
  36.2989564  44.1734193 107.8911773  36.2424766  44.6302744 107.0519405
  36.8517907  43.4124877 107.7134616  40.1094370  39.9623925 108.7161892
  39.8531304  39.5620560 109.5470100  39.4847238  40.6767718 108.5912031
  44.4206708  42.7019998 111.2233184  43.8606266  42.7713187 111.9964746
  43.8150211  42.5260982 110.5032680  27.4901917  54.1356725 112.9751370
  27.3734301  55.0802157 112.8730060  26.6694363  53.8330286 113.3637169
  37.3778451  48.8606861 103.8207963  38.2124055  48.4288059 103.6385437
  37.2162794  48.6888874 104.7484857  37.0324343  45.3638974 105.1864302
  36.9773147  45.1983245 104.2452746  36.4070399  46.0715007 105.3426492
  30.3420469  34.8647083 104.7649620  30.3299139  35.8088923 104.9217891
  31.2343891  34.6817228 104.4709082  30.2710033  53.5415973 112.8517377
  29.3205664  53.5417835 112.7381749  30.5742519  52.7948708 112.3353412
  46.0062726  59.3776512 113.9163139  46.6441136  59.2583259 113.2126479
  45.8883569  60.3257356 113.9751092  42.8152433  59.3303940 113.8524664
  42.4770944  59.2145005 112.9645199  43.6842201  58.9295105 113.8325670
  38.6739248  61.1839416 109.8421555  38.1104113  61.0929353 109.0737843
  38.5591643  60.3639321 110.3224048  43.2972216  60.4838792 119.8110870
  43.2860856  60.0891590 118.9391373  43.4592855  59.7504864 120.4044641
  36.2203680  62.6790608 112.6805775  37.0124972  62.3381433 112.2652075
  36.4600330  62.7885583 113.6007929  44.2538807  64.8510384 105.1536020
  43.6026787  65.4364464 104.7670034  45.0483170  65.3816579 105.2131057
  38.1794434  61.9399521 105.5523154  38.9525310  61.3928508 105.4136030
  38.5319833  62.8043770 105.7637616  40.0179477  63.2675903 118.7590054
  39.7269343  64.1721534 118.6436720  40.6536461  63.3092431 119.4734123
  40.9435684  60.6452752 115.3491413  41.5399256  60.4208774 114.6348376
  41.0010655  59.9037497 115.9516861  40.5160712  58.0992187 103.1841604
  40.7686233  57.5773709 102.4225067  39.5785271  57.9358333 103.2868288
  45.5603995  57.1027966 110.9916347  46.3467084  56.6847389 110.6406764
  45.8242699  58.0074058 111.1597996  45.7314072  62.5400816 105.6905004
  45.0959905  62.6135442 106.4025909  45.4011479  63.1294415 105.0124083
  50.9612422  57.0403199 111.8949326  51.6937594  56.4702416 112.1287155
  50.2051778  56.6524799 112.3355832  40.2357001  60.0020293 105.3865979
  40.1193259  59.3265197 106.0547063  40.3459261  59.5152667 104.5698132
  42.5788542  59.4630440 109.0912668  42.2146749  58.9361061 109.8025590
  43.4355658  59.0728909 108.9179154  48.4837842  50.7524773 116.3543935
  48.1521167  51.6220184 116.1305150  47.8883456  50.4361057 117.0337965
  42.2194029  54.4920340 104.0874017  42.3868431  55.3600576 104.4544488
  42.0291198  54.6547622 103.1635306  44.9769362  62.9537319 115.7539847
  44.6770085  63.8562358 115.6455655  44.6320421  62.6869502 116.6061000
  38.4281843  59.4051116 111.7876552  37.5032340  59.2727330 111.9954243
  38.6766257  60.1845335 112.2846494  48.3766506  55.4719859 113.4337285
  47.4683383  55.4035268 113.1396046  48.3254101  55.9491804 114.2619110
  42.1983250  56.9477997 105.0720684  42.0782875  57.3935048 105.9106164
  41.5035838  57.2963315 104.5134222  35.7890654  59.0484389 112.6220341
  35.9183036  59.3018868 113.5359752  35.1088106  59.6412097 112.3024996
  39.9590142  69.7181639 108.7210815  39.8814171  70.6689464 108.7999296
  39.3551785  69.3727512 109.3785741  42.4507371  56.8909505 121.3772182
  41.6740705  57.4503425 121.3675047  43.0897934  57.3766288 121.8987052
  50.2428152  53.6736297 115.2115159  49.6002532  53.9668831 114.5654953
  49.7383081  53.5589218 116.0168355  47.8968316  57.4199471 105.9001018
  48.8086172  57.6526857 105.7248715  47.3877963  58.0036515 105.3376096
  40.7053744  59.6994958 120.9390149  41.4468428  60.2380002 120.6624972
  39.9990729  60.3261247 121.0961701  46.1809083  61.8424098 119.5362310
  46.5892439  61.4006509 118.7916943  45.4586345  61.2676726 119.7896503
  42.5340153  56.7796705 116.9095867  43.3801349  57.2036119 117.0530516
  42.4738791  56.1230330 117.6034430  46.5037898  62.4025289 113.2914599
  45.8746760  62.5671003 112.5890667  46.1163560  62.8166899 114.0625563
  50.3827130  63.3379727 110.6458963  49.6978168  63.7178628 110.0955996
  50.4670979  63.9475054 111.3790911  45.6839599  54.4401074 118.5677041
  45.4400531  55.1943134 118.0311317  45.9599529  54.8186421 119.4024288
  47.6378061  60.9839686 117.2454307  47.8494957  61.6271446 116.5688688
  47.5907810  60.1502003 116.7776237  45.2404290  53.5957507 114.1490879
  44.3788769  53.8938760 114.4407616  45.2666725  53.8127906 113.2171911
  42.0565860  62.1399697 110.5564684  42.5204205  62.4187400 109.7669307
  41.7922658  61.2383142 110.3737775  38.9489941  61.6871179 113.4944448
  39.5191298  62.1158447 112.8561932  39.5398053  61.4053763 114.1928633
  40.9934746  58.2622850 107.3654249  41.6958789  58.7143893 107.8328176
  40.6615374  57.6206668 107.9934143  39.4415107  56.8534606 121.7405459
  38.8113768  57.5350887 121.9740856  39.3351195  56.7417688 120.7958597
  34.7360080  56.5206402 112.6671383  33.9459134  56.7763931 112.1911494
  35.2271327  57.3354740 112.7723424  48.7523889  63.8611641 115.4176664
  49.5741333  63.4591829 115.1359346  48.7486292  63.7579876 116.3692780
  36.6874825  56.8850981 109.6254860  35.8905989  56.9969676 110.1438355
  36.4600417  57.2237634 108.7595750  42.5180493  63.4095685 117.5737374
  42.5824925  63.8716092 118.4095546  41.8091417  62.7793050 117.7019684
  33.0197783  56.7736893 115.0986374  33.2705821  57.6583903 115.3643950
  33.5557331  56.5941494 114.3261466  56.8429882  60.2050390 111.7661635
  56.0893591  59.6357788 111.6105640  56.9777424  60.1713054 112.7132270
  42.2328511  65.0763792 107.4416355  42.0974185  65.9215328 107.8701203
  42.7738323  65.2783070 106.6782289  35.6857908  62.5939230 108.0144280
  36.1982428  63.3882480 108.1649844  36.3380621  61.8965521 107.9477881
  37.4952793  65.7104987 110.0967033  37.6719421  66.6322951 109.9088017
  38.2909626  65.3963406 110.5261413  36.7805149  57.7569618 119.9729196
  36.6658664  56.8554876 120.2736295  35.9249667  58.0033315 119.6214013
  43.8596987  65.6987359 121.5716697  43.4160841  64.9123737 121.2537601
  44.5214200  65.8866509 120.9060588  38.6184108  67.2283160 116.0977375
  39.1691533  67.1000224 115.3254369  37.7795584  67.5278049 115.7472268
  45.9578225  65.9790159 119.5998098  45.9396700  66.7999040 119.1078367
  46.8798145  65.8544234 119.8248239  42.4151279  63.4934288 120.4421606
  42.9479616  62.7322576 120.2120914  41.8865360  63.2007940 121.1845761
  45.5820974  48.5994354 115.9715248  45.2385243  49.4895996 115.8954359
  45.9499937  48.4096012 115.1084833  33.6506825  60.9227885 108.7903850
  34.4882047  61.3324893 108.5737558  33.8285092  59.9827327 108.7604044
  45.5471257  58.5902965 104.4787683  45.0317880  59.3607570 104.7176071
  45.2748565  57.9168101 105.1020745  43.1318368  53.4352666 109.5372922
  42.2759964  53.0459516 109.3578560  43.5445320  53.5144627 108.6772707
  44.6617514  50.9699009 113.9364481  44.1582310  50.9329144 113.1232287
  44.9548121  51.8791752 113.9961138  40.9060400  51.0537739 112.9430663
  41.7713397  50.8580548 112.5836553  40.9737909  50.8248091 113.8700020
  50.5205531  61.3435320 106.4140857  49.7434974  61.0046479 105.9696019
  51.1997012  61.3487943 105.7395822  45.3357560  56.4630057 106.3047464
  45.0307696  56.7776206 107.1557608  46.2888002  56.5411477 106.3474797
  43.7803992  62.6220281 107.9540418  43.2525353  61.8873040 107.6413656
  43.2791495  63.3994957 107.7080387  48.7596838  60.8169301 113.0707465
  48.1020512  61.5068562 113.1587593  49.5637237  61.2065733 113.4141451
  38.5122719  53.2839947 110.3147030  39.0866471  53.0615128 109.5820223
  39.0993702  53.3528641 111.0675631  47.5702297  59.1713674 111.1211406
  48.0834178  59.8043666 111.6233116  48.2203521  58.5714869 110.7554767
  38.8392307  55.3144408 104.3342915  38.0029619  55.6519094 104.6552190
  38.6997076  55.1793388 103.3970052  40.8145387  50.1581196 109.0422099
  40.1609799  49.8430213 108.4178714  40.7725861  49.5356936 109.7681922
  41.9256592  60.4400491 100.9575391  41.0183654  60.2089744 101.1566540
  42.4227624  59.6438110 101.1449373  44.8324671  69.1497998 103.8772078
  44.1586370  69.4529695 104.4857035  45.2190493  69.9527078 103.5277535
  44.0483128  56.6463129 113.3669747  43.1305689  56.8678076 113.2091435
  44.4643271  56.7209440 112.5081454  44.8318175  58.0454545 108.4972427
  45.5789994  58.5575942 108.1879549  45.1009765  57.7238598 109.3576821
  43.1044825  60.5413086 105.4799382  42.1956045  60.2572119 105.5771851
  43.1339909  60.9612164 104.6202688  48.3364093  64.1519675 109.2490549
  47.8826420  63.3110585 109.3055740  47.7058060  64.7881074 109.5865329
  47.2797012  55.0811661 110.4791217  46.5419769  54.5689047 110.8101459
  47.5323786  54.6412043 109.6674493  46.7797032  65.9896172 110.1840367
  47.0720006  66.5501229 109.4652733  47.2895653  66.2824733 110.9393526
  47.3808640  47.8587913 111.0732986  47.6867517  46.9985277 110.7858901
  48.1061245  48.4505533 110.8731980  33.6732996  58.2618600 109.4614584
  33.4757396  57.6687961 108.7365650  33.1179660  57.9570810 110.1790523
  41.6529719  58.1541706 111.5809177  41.7078329  57.2015543 111.5051653
  40.8420922  58.3101145 112.0650475  42.8020913  62.0821829 102.8187460
  42.3640343  61.3657688 102.3593097  43.5431354  62.3097944 102.2572552
  39.5922079  56.7718766 109.3399556  38.7789945  57.0712937 109.7464748
  40.0881074  56.3774455 110.0574038  41.7430657  66.7676523 111.2733820
  41.7006836  66.9937369 110.3442352  42.6593356  66.5339898 111.4219622
  45.1896291  57.2360591 118.1714450  45.5445679  57.4632064 119.0308915
  45.8368422  57.5678967 117.5491705  50.9194028  60.3579026 108.8763779
  50.7811927  60.5480622 107.9484968  50.5630247  61.1198409 109.3331830
  39.0836154  54.3437122 114.9560791  39.7235533  54.2025881 114.2583754
  38.2513685  54.0571635 114.5799393  50.9463408  62.4255553 113.8875050
  51.3799914  62.3330843 114.7358104  51.6594988  62.4013054 113.2495066
  39.8596458  63.6439552 111.0695783  40.6537057  63.1489872 110.8678358
  39.1488150  63.1157415 110.7063489  44.6791303  66.0257648 115.4208151
  44.7328325  66.5948584 116.1885867  43.8106084  66.1959533 115.0562188
  36.1679222  57.7882634 107.1455536  35.2376810  57.7267089 107.3625498
  36.2636694  57.2658587 106.3492177  36.0864771  54.3137447 109.7333778
  36.3471588  55.2282780 109.6242938  36.9081943  53.8461889 109.8830390
  37.5589696  55.7275204 116.9032602  38.2312749  55.5192566 116.2545251
  36.7319482  55.5297290 116.4637834  51.8078957  62.4679254 116.4207936
  52.0014847  63.3725065 116.6667211  51.7079575  62.0086673 117.2546521
  43.4615268  52.3537145 118.9198263  42.8143183  53.0527094 118.8262739
  44.2316283  52.7873289 119.2874511  46.8694066  62.6185997 121.9948816
  46.7179572  62.3896549 121.0778900  46.8598745  63.5756598 122.0080161
  43.6379402  60.1917910 116.9795083  44.5671462  60.3429069 116.8064050
  43.2170432  60.2801930 116.1243729  42.4367734  64.2168574 114.7493620
  42.2978820  63.8487358 115.6219558  41.6482330  64.7316213 114.5777578
  43.0315886  69.3177670 106.0919157  43.2067642  68.8465714 106.9064779
  42.3448674  69.9443437 106.3200418  43.9872949  63.5950177 112.1382458
  43.6522782  63.5550947 113.0340108  43.4876895  62.9294893 111.6652868
  37.9617193  59.0017807 117.6635039  37.8236991  58.2698046 118.2646578
  38.8722117  58.9126707 117.3819227  46.9232141  60.9406211 102.4119518
  46.3061312  60.2153039 102.3152570  46.4548629  61.7015571 102.0686592
  40.5899494  58.7137766 117.1518719  41.2999112  58.0730958 117.1105337
  40.5468802  58.9650661 118.0744900  48.5786273  65.6505119 120.0725298
  48.5198819  64.9664340 119.4055881  48.9805791  66.3924109 119.6205924
  39.3028428  55.7002984 118.9714358  38.7665785  55.2493722 119.6235955
  38.7145136  55.8348893 118.2284823  37.5976971  72.4667033 112.8659017
  37.8373570  73.0985557 113.5438036  36.7546168  72.1155073 113.1524376
  38.7130687  55.1591635 101.5340822  37.8360153  55.0380436 101.1703069
  39.1888440  54.3677714 101.2819711  48.5803680  63.6144703 118.3039278
  47.6930459  63.2770625 118.4265677  49.1502231  62.8827735 118.5408043
  30.2332827  59.9468795 111.6282329  30.9203867  59.6330525 111.0403344
  30.0780956  60.8510160 111.3549581  35.0367549  54.8358992 116.0567353
  34.9525738  54.2284661 115.3217763  34.2150255  55.3268010 116.0576849
  42.1104833  68.2746156 115.2700521  42.0375005  69.0801127 115.7819826
  41.6682226  68.4738122 114.4448542  41.8994613  67.5117926 108.7803343
  41.1162135  68.0539606 108.8741567  42.5987358  68.0291905 109.1797584
  45.2091263  53.3212555 111.4237548  45.7059962  52.5682517 111.1038618
  44.4378244  53.3576872 110.8580757  53.0621020  59.0252921 113.0655839
  53.0510897  59.9077636 112.6949773  52.1938400  58.6724472 112.8710376
  44.5703517  68.1732990 117.4258680  45.2831489  68.8080455 117.3534581
  44.0793545  68.2696856 116.6098681  46.2921044  62.0784242 108.9975971
  45.3577322  62.1985705 108.8280676  46.4697712  61.1756709 108.7335981
  41.7926232  55.4629938 111.1509232  41.4224019  54.9100979 111.8390138
  42.2885324  54.8588072 110.5984233  49.6793595  57.9201562 109.5326005
  50.1454047  58.7529553 109.4586308  50.1301095  57.4546543 110.2371264
  39.6215430  65.9227433 118.2464250  40.3224890  66.5563916 118.3993645
  39.1510545  66.2642165 117.4859890  47.7469826  64.2645383 106.5312157
  48.0229670  64.1501978 107.4406032  46.8774325  63.8662868 106.4924331
  47.6510258  50.2882149 113.5716907  46.7373338  50.5186376 113.7399114
  48.0803359  50.3720593 114.4230939  47.4216716  58.4772041 116.0716801
  46.7688166  58.7247948 115.4169254  47.7997096  57.6636179 115.7379278
  44.3823890  68.5131734 110.1744971  44.5646285  67.6953390 110.6372723
  45.2056876  68.7299426 109.7369861  44.7166056  67.4399919 107.4360020
  45.2453822  66.9292374 106.8230182  44.9794275  67.1242449 108.3005553
  43.4704289  59.2191852 122.5582838  42.7944926  59.1185981 123.2285213
  44.2931923  59.0631065 123.0218835  35.2183148  65.4563788 115.1795353
  35.8036585  64.7107476 115.3123257  35.0207987  65.7667745 116.0632017
  38.0721804  68.4915036 110.1957796  37.4032179  68.9761163 109.7121836
  37.9334673  68.7384256 111.1101174  29.8100803  58.0269388 113.8999796
  29.8484903  57.4932979 114.6936914  29.3041096  57.5004594 113.2810773
  42.2127072  70.5258779 116.7940454  42.7645380  70.6890401 117.5589539
  42.5533266  71.1163217 116.1220479  37.1891565  52.8733929 117.3962339
  37.2532892  53.7348760 116.9839736  37.1258686  52.2607931 116.6634697
  47.0637946  65.3520037 122.6489108  47.6077850  65.9649995 122.1544063
  46.4824791  65.9099615 123.1656121  33.4409381  56.7533491 106.9753728
  33.7362822  55.8444169 106.9220781  32.5397416  56.7321230 106.6534730
  45.3495459  68.4740755 113.7804136  45.2246599  67.6730495 113.2715082
  46.0074551  68.9686948 113.2918106  36.9703628  54.8289487 112.9581276
  36.2490213  55.4425455 112.8188750  37.7596883  55.3647252 112.8797922
  47.4130368  66.2749775 115.4083686  46.4660703  66.1555126 115.3362013
  47.7613141  65.3872273 115.4909948  35.1697222  54.4347588 107.0993053
  34.8409928  53.5544967 106.9168159  35.5236593  54.3795257 107.9869442
  44.4176801  66.0702491 111.6088038  44.2701764  65.1419198 111.7895608
  45.2430295  66.0922582 111.1245114  38.2839045  54.7220558 107.4668531
  38.6235118  55.2506479 106.7447139  38.7311166  55.0600964 108.2427097
  48.0210923  66.8931050 112.6952911  48.9457470  66.6873911 112.5577362
  47.8526226  66.6447451 113.6042253  40.9782486  53.1057609 116.9171599
  40.6379307  52.3065422 117.3192278  40.2721492  53.4059320 116.3448432
  41.6298958  50.1906921 115.3698922  42.4525027  49.7167399 115.2477812
  41.8737022  50.9697405 115.8697608  40.2707193  53.2195180 105.6661823
  40.9915555  53.5976432 105.1625540  39.6472497  53.9384056 105.7696801
  44.4138315  53.9240329 106.6020156  44.6301930  54.8064966 106.3008984
  43.9332383  53.5326542 105.8725798  39.1537537  56.8826042 113.1790900
  39.0082117  57.1966345 114.0715182  38.6762740  57.5010942 112.6261799
  41.0133920  53.8728590 113.2271790  40.9995488  52.9769683 112.8904088
  41.7306348  53.8799254 113.8610076  42.8660050  54.3065930 115.2724917
  42.6077828  55.2283001 115.2709248  42.3345091  53.9096365 115.9625381
  47.8106239  67.4116717 108.0515003  47.9843117  66.8463140 107.2988855
  48.3035130  68.2117612 107.8694493  33.6283199  59.4231386 116.1178561
  33.0836667  60.1991194 116.2498836  34.5062549  59.7702191 115.9597683
  40.4170816  52.7542970 108.4959360  40.5386727  51.8259616 108.6950247
  40.1272858  52.7681656 107.5837675  43.2862006  50.4397881 111.6326080
  43.3083703  50.5037214 110.6778059  43.7030065  49.6002389 111.8266586
  53.6645630  60.1753140 109.6705302  54.1076776  59.4260465 109.2724426
  52.7872141  60.1663276 109.2879034  48.7981412  66.7283482 105.1511901
  49.4932316  67.3490174 105.3699215  49.1404562  65.8778833 105.4264279
  34.4149221  58.5501282 119.0108718  33.6730957  58.6983918 119.5973349
  34.0941965  58.8109548 118.1475468  50.6972835  64.1783187 106.6799232
  51.2224159  64.5170460 105.9548552  50.6095187  63.2430202 106.4962366
  42.3592883  68.0917261 118.8089108  42.6680010  67.8466407 119.6811808
  43.1568365  68.2963899 118.3207978  42.3813495  70.2455170 111.0394485
  41.9418486  69.7531549 111.7327342  43.1321612  69.7028138 110.7986560
  34.8605834  66.4366711 111.0419113  35.6863854  66.1370483 110.6617756
  34.5099886  65.6674334 111.4908902  39.8287368  65.7893179 113.1116786
  39.2067377  65.1263884 112.8119014  40.4992235  65.8154311 112.4290434
  33.0614440  64.3553038 112.0008046  32.2246348  63.9275212 111.8192048
  33.0338085  64.5485481 112.9378838  50.3866741  64.8116091 121.9850430
  49.5962285  64.7940230 121.4454929  50.1500095  65.3504384 122.7399466
  50.5064616  61.6608557 119.2983158  50.5562621  61.4958565 120.2398681
  50.3978539  60.7935816 118.9081039  39.3900875  64.3397103 106.5875247
  39.5388995  65.0232567 105.9341920  40.1967318  64.3202193 107.1024703
  47.7968378  57.6439485 120.6142465  48.6978241  57.5045950 120.3226463
  47.8716353  57.8093940 121.5540642  42.1311184  55.0206340 119.4595651
  41.2614493  55.3139906 119.1878240  42.3670664  55.6046785 120.1802915
  52.0082813  64.0805499 119.5425180  51.7167621  64.4435479 120.3788641
  51.3954944  63.3672507 119.3638512  53.2078495  61.6458378 112.0627750
  54.0425386  62.0848182 112.2265310  53.3437624  61.1697032 111.2435996
  50.2570001  59.2038113 118.0105238  50.7324123  59.3965760 117.2024089
  49.3335566  59.2597299 117.7648621  37.1453508  60.3662280 107.5936316
  36.8999549  59.4624610 107.7916526  37.3149422  60.3679431 106.6515794
  44.8350217  51.2385957 116.9761072  45.3532161  51.9746984 116.6507560
  44.4805350  51.5449950 117.8107831  36.4149155  56.0990638 105.0922477
  35.7218400  56.1734993 104.4362513  36.1700907  55.3350982 105.6143994
  45.0862812  47.6586239 112.4961968  45.3664565  46.9909428 113.1222395
  45.8713419  47.8515335 111.9836632  42.8896280  66.8345233 104.0586994
  42.3170247  67.4535420 103.6057466  43.4629074  67.3844595 104.5926916
  48.9571670  56.0803873 116.2433543  49.9089093  56.1801971 116.2645767
  48.7875120  55.2882142 116.7531628  46.9786049  53.1659457 116.4292944
  46.3835982  53.4464469 115.7339433  46.6935746  53.6553357 117.2009685
  46.1093540  67.1182383 105.1895577  47.0424213  67.0527945 105.3928452
  46.0216753  67.9538650 104.7310109  48.7381557  66.4348254 102.1499524
  48.6595188  66.1008117 103.0435282  49.5591223  66.9270022 102.1490997
  51.4359748  59.3009993 115.3575843  51.4036068  58.3625994 115.5435527
  52.0460371  59.3794030 114.6241668  43.2743079  58.1706046 101.4003047
  44.2202183  58.0412254 101.4691465  42.8957324  57.4320708 101.8772475
  51.5854236  56.0921036 115.4034126  51.0693285  55.3079493 115.2164055
  52.4694185  55.7639753 115.5680646  49.2464963  49.8362052 111.3629939
  49.0489784  49.5277140 112.2473271  49.8564669  50.5623691 111.4927869
  57.2536298  60.3626000 114.4981880  57.9839686  60.1011288 115.0589583
  56.6443243  59.6254722 114.5383948  55.3351595  58.5033862 115.0956331
  54.6084758  58.3689827 114.4872822  54.9198882  58.8110691 115.9013049
  43.1581771  62.2223792 122.8603704  44.0784781  62.4002391 123.0543750
  43.1231354  61.2779837 122.7083403  41.4585996  56.0956022 101.3357932
  40.5517451  55.7989135 101.4120646  41.7361977  55.7985840 100.4692218
  32.3763936  57.4162386 111.7856979  32.0566720  56.5627694 111.4931353
  31.8297364  57.6310964 112.5414946  36.1543844  60.1324827 115.5026485
  36.3729853  61.0641935 115.5214519  36.5669617  59.7732801 116.2881289
  43.0748061  50.6392912 107.4902173  42.2648790  50.2939997 107.8657420
  43.7632478  50.3300456 108.0789785  45.0038610  49.7170959 109.1126470
  45.5569648  50.1366412 109.7716493  45.2408696  48.7906707 109.1549426
  40.2284780  52.9542958 101.4769911  41.0903944  53.2797856 101.7365729
  40.4135125  52.1674453 100.9642977  32.2452196  61.0365297 113.7550100
  31.5515668  60.6219250 113.2420055  32.9925187  61.0785834 113.1583519
  48.3817417  51.8271484 108.6205134  47.8016086  52.4856288 108.2383187
  48.1153350  51.0048829 108.2092552  46.8320983  51.2276542 110.8226455
  47.3320762  51.3393076 110.0140774  47.4756591  50.9237595 111.4627263
  40.8902979  59.1355171 123.7094296  40.4070061  59.9355531 123.9158185
  40.9763918  59.1463116 122.7561740  34.1588939  60.9683551 111.6316115
  34.1359627  61.0671238 110.6797998  34.4689575  61.8148702 111.9533281
  36.8176317  63.0259706 115.7462729  37.7719570  62.9943648 115.6792661
  36.6188840  62.5650330 116.5612955  37.4075699  61.5960822 118.3133527
  38.2268588  62.0904901 118.3368364  37.6812506  60.6792790 118.2851095
  47.1642295  53.9871574 107.6761483  46.2768150  54.2721225 107.4581677
  47.5796284  53.8265338 106.8288760  50.5156831  54.0118095 111.3915822
  51.2917221  54.5014548 111.6640439  49.7904965  54.4376150 111.8487691
  52.9529390  54.7245715 112.4489762  53.5473880  54.4841451 111.7383071
  53.0255973  54.0052845 113.0763299  35.1726545  68.5679326 112.7632927
  35.0381013  67.8079726 112.1970925  34.7558608  69.2920225 112.2961716
  46.3085508  63.7516249 101.7709503  47.0121358  63.9566252 102.3867158
  45.5848157  64.3193011 102.0358586  47.1383319  59.5026110 107.8911773
  47.0818520  59.9594662 107.0519405  47.6911661  58.7416795 107.7134616
  50.9488125  55.2915842 108.7161892  50.6925059  54.8912478 109.5470100
  50.3240993  56.0059636 108.5912031  55.2600462  58.0311915 111.2233184
  54.7000020  58.1005105 111.9964746  54.6543966  57.8552900 110.5032680
  38.3295671  69.4648643 112.9751370  38.2128055  70.4094075 112.8730060
  37.5088117  69.1622204 113.3637169  48.2172206  64.1898778 103.8207963
  49.0517810  63.7579977 103.6385437  48.0556549  64.0180792 104.7484857
  47.8718098  60.6930892 105.1864302  47.8166902  60.5275163 104.2452746
  47.2464153  61.4006925 105.3426492  45.1864005  62.9979803 124.5117865
  46.0555165  63.1720456 124.1504500  44.7070757  63.8174220 124.3893594
  41.1814223  50.1939001 104.7649620  41.1692893  51.1380841 104.9217891
  42.0737645  50.0109146 104.4709082  39.3550185  70.1176904 116.1907298
  40.2577432  70.1500515 116.5073793  39.1287555  69.1877355 116.2053634
  41.1103787  68.8707891 112.8517377  40.1599418  68.8709753 112.7381749
  41.4136273  68.1240626 112.3353412  44.9966343  46.7881777 109.0195557
  44.2298739  46.2340264 109.1652240  45.4077048  46.8603646 109.8809709
  56.8456481  74.7068429 113.9163139  57.4834891  74.5875177 113.2126479
  56.7277324  75.6549273 113.9751092  53.6546187  74.6595858 113.8524664
  53.3164699  74.5436922 112.9645199  54.5235955  74.2587023 113.8325670
  49.5133003  76.5131334 109.8421555  48.9497868  76.4221271 109.0737843
  49.3985398  75.6931238 110.3224048  54.1365970  75.8130709 119.8110870
  54.1254611  75.4183508 118.9391373  54.2986610  75.0796782 120.4044641
  47.0597435  78.0082526 112.6805775  47.8518727  77.6673350 112.2652075
  47.2994085  78.1177501 113.6007929  55.0932562  80.1802302 105.1536020
  54.4420541  80.7656382 104.7670034  55.8876924  80.7108497 105.2131057
  49.0188189  77.2691439 105.5523154  49.7919065  76.7220426 105.4136030
  49.3713588  78.1335688 105.7637616  50.8573231  78.5967821 118.7590054
  50.5663097  79.5013452 118.6436720  51.4930216  78.6384349 119.4734123
  51.7829438  75.9744670 115.3491413  52.3793010  75.7500692 114.6348376
  51.8404410  75.2329415 115.9516861  51.3554466  73.4284105 103.1841604
  51.6079987  72.9065626 102.4225067  50.4179026  73.2650250 103.2868288
  56.3997749  72.4319883 110.9916347  57.1860839  72.0139306 110.6406764
  56.6636454  73.3365975 111.1597996  56.5707827  77.8692734 105.6905004
  55.9353660  77.9427360 106.4025909  56.2405233  78.4586332 105.0124083
  61.8006176  72.3695116 111.8949326  62.5331348  71.7994333 112.1287155
  61.0445532  71.9816717 112.3355832  51.0750755  75.3312211 105.3865979
  50.9587013  74.6557114 106.0547063  51.1853015  74.8444585 104.5698132
  53.4182296  74.7922358 109.0912668  53.0540503  74.2652979 109.8025590
  54.2749412  74.4020827 108.9179154  59.3231597  66.0816691 116.3543935
  58.9914922  66.9512102 116.1305150  58.7277210  65.7652975 117.0337965
  53.0587783  69.8212258 104.0874017  53.2262185  70.6892494 104.4544488
  52.8684952  69.9839539 103.1635306  55.8163116  78.2829237 115.7539847
  55.5163839  79.1854275 115.6455655  55.4714176  78.0161420 116.6061000
  49.2675598  74.7343033 111.7876552  48.3426094  74.6019248 111.9954243
  49.5160011  75.5137253 112.2846494  59.2160260  70.8011777 113.4337285
  58.3077137  70.7327185 113.1396046  59.1647856  71.2783722 114.2619110
  53.0377004  72.2769915 105.0720684  52.9176629  72.7226966 105.9106164
  52.3429592  72.6255233 104.5134222  46.6284409  74.3776307 112.6220341
  46.7576790  74.6310786 113.5359752  45.9481860  74.9704015 112.3024996
  50.7983896  85.0473557 108.7210815  50.7207926  85.9981382 108.7999296
  50.1945540  84.7019429 109.3785741  53.2901126  72.2201422 121.3772182
  52.5134460  72.7795342 121.3675047  53.9291689  72.7058205 121.8987052
  61.0821906  69.0028215 115.2115159  60.4396287  69.2960748 114.5654953
  60.5776835  68.8881135 116.0168355  58.7362070  72.7491388 105.9001018
  59.6479926  72.9818775 105.7248715  58.2271717  73.3328433 105.3376096
  51.5447498  75.0286876 120.9390149  52.2862183  75.5671920 120.6624972
  50.8384484  75.6553164 121.0961701  57.0202838  77.1716016 119.5362310
  57.4286194  76.7298427 118.7916943  56.2980099  76.5968644 119.7896503
  53.3733908  72.1088623 116.9095867  54.2195103  72.5328036 117.0530516
  53.3132546  71.4522247 117.6034430  57.3431652  77.7317207 113.2914599
  56.7140515  77.8962921 112.5890667  56.9557315  78.1458816 114.0625563
  61.2220884  78.6671645 110.6458963  60.5371923  79.0470546 110.0955996
  61.3064734  79.2766971 111.3790911  56.5233353  69.7692991 118.5677041
  56.2794285  70.5235052 118.0311317  56.7993284  70.1478339 119.4024288
  58.4771816  76.3131604 117.2454307  58.6888711  76.9563364 116.5688688
  58.4301564  75.4793920 116.7776237  56.0798045  68.9249424 114.1490879
  55.2182524  69.2230678 114.4407616  56.1060480  69.1419823 113.2171911
  52.8959614  77.4691615 110.5564684  53.3597960  77.7479318 109.7669307
  52.6316412  76.5675059 110.3737775  49.7883695  77.0163096 113.4944448
  50.3585052  77.4450365 112.8561932  50.3791807  76.7345681 114.1928633
  51.8328500  73.5914767 107.3654249  52.5352544  74.0435811 107.8328176
  51.5009129  72.9498586 107.9934143  50.2808862  72.1826524 121.7405459
  49.6507523  72.8642805 121.9740856  50.1744950  72.0709605 120.7958597
  45.5753834  71.8498320 112.6671383  44.7852888  72.1055848 112.1911494
  46.0665082  72.6646658 112.7723424  59.5917644  79.1903559 115.4176664
  60.4135088  78.7883746 115.1359346  59.5880047  79.0871793 116.3692780
  47.5268580  72.2142899 109.6254860  46.7299743  72.3261593 110.1438355
  47.2994172  72.5529551 108.7595750  53.3574247  78.7387602 117.5737374
  53.4218680  79.2008010 118.4095546  52.6485171  78.1084967 117.7019684
  43.8591537  72.1028810 115.0986374  44.1099576  72.9875820 115.3643950
  44.3951086  71.9233412 114.3261466  67.6823637  75.5342308 111.7661635
  66.9287345  74.9649706 111.6105640  67.8171178  75.5004972 112.7132270
  53.0722265  80.4055710 107.4416355  52.9367940  81.2507246 107.8701203
  53.6132078  80.6074988 106.6782289  49.5589605  66.4847290 124.1030710
  49.1656550  65.9313488 124.7778354  50.3755745  66.7957868 124.4937227
  46.5251662  77.9231148 108.0144280  47.0376183  78.7174398 108.1649844
  47.1774375  77.2257438 107.9477881  48.3346547  81.0396904 110.0967033
  48.5113175  81.9614869 109.9088017  49.1303381  80.7255323 110.5261413
  52.4757566  67.9005169 121.6950966  53.2167279  68.5012322 121.6155429
  52.7075488  67.1582807 121.1369009  47.6198904  73.0861536 119.9729196
  47.5052419  72.1846793 120.2736295  46.7643421  73.3325233 119.6214013
  49.4577863  82.5575078 116.0977375  50.0085288  82.4292141 115.3254369
  48.6189338  82.8569967 115.7472268  56.7971979  81.3082076 119.5998098
  56.7790455  82.1290957 119.1078367  57.7191900  81.1836152 119.8248239
  53.2545034  78.8226206 120.4421606  53.7873370  78.0614494 120.2120914
  52.7259115  78.5299858 121.1845761  56.4214729  63.9286272 115.9715248
  56.0778998  64.8187913 115.8954359  56.7893691  63.7387929 115.1084833
  44.4900579  76.2519802 108.7903850  45.3275801  76.6616811 108.5737558
  44.6678847  75.3119244 108.7604044  56.3865011  73.9194883 104.4787683
  55.8711635  74.6899487 104.7176071  56.1142320  73.2460019 105.1020745
  53.9712122  68.7644584 109.5372922  53.1153719  68.3751434 109.3578560
  54.3839074  68.8436544 108.6772707  55.5011269  66.2990927 113.9364481
  54.9976065  66.2621062 113.1232287  55.7941876  67.2083670 113.9961138
  51.7454155  66.3829657 112.9430663  52.6107152  66.1872465 112.5836553
  51.8131664  66.1540008 113.8700020  61.3599285  76.6727238 106.4140857
  60.5828728  76.3338397 105.9696019  62.0390766  76.6779861 105.7395822
  56.1751314  71.7921975 106.3047464  55.8701450  72.1068124 107.1557608
  57.1281757  71.8703395 106.3474797  54.6197746  77.9512198 107.9540418
  54.0919108  77.2164958 107.6413656  54.1185249  78.7286875 107.7080387
  59.5990592  76.1461219 113.0707465  58.9414267  76.8360480 113.1587593
  60.4030992  76.5357651 113.4141451  49.3516474  68.6131865 110.3147030
  49.9260226  68.3907046 109.5820223  49.9387456  68.6820559 111.0675631
  58.4096051  74.5005591 111.1211406  58.9227933  75.1335583 111.6233116
  59.0597275  73.9006787 110.7554767  49.6786061  70.6436326 104.3342915
  48.8423373  70.9811012 104.6552190  49.5390831  70.5085305 103.3970052
  51.6539142  65.4873113 109.0422099  51.0003554  65.1722131 108.4178714
  51.6119616  64.8648854 109.7681922  52.7650347  75.7692409 100.9575391
  51.8577408  75.5381662 101.1566540  53.2621378  74.9730028 101.1449373
  55.6718425  84.4789916 103.8772078  54.9980124  84.7821612 104.4857035
  56.0584247  85.2818996 103.5277535  54.8876882  71.9755047 113.3669747
  53.9699443  72.1969994 113.2091435  55.3037026  72.0501357 112.5081454
  55.6711930  73.3746463 108.4972427  56.4183749  73.8867860 108.1879549
  55.9403519  73.0530515 109.3576821  53.9438580  75.8705003 105.4799382
  53.0349799  75.5864036 105.5771851  53.9733664  76.2904082 104.6202688
  59.1757847  79.4811593 109.2490549  58.7220174  78.6402503 109.3055740
  58.5451814  80.1172991 109.5865329  58.1190767  70.4103579 110.4791217
  57.3813524  69.8980965 110.8101459  58.3717540  69.9703961 109.6674493
  57.6190787  81.3188090 110.1840367  57.9113761  81.8793147 109.4652733
  58.1289407  81.6116651 110.9393526  58.2202394  63.1879831 111.0732986
  58.5261271  62.3277194 110.7858901  58.9454999  63.7797451 110.8731980
  44.5126750  73.5910518 109.4614584  44.3151150  72.9979878 108.7365650
  43.9573414  73.2862728 110.1790523  52.4923474  73.4833624 111.5809177
  52.5472084  72.5307460 111.5051653  51.6814676  73.6393063 112.0650475
  53.6414668  77.4113747 102.8187460  53.2034098  76.6949606 102.3593097
  54.3825109  77.6389862 102.2572552  50.4315834  72.1010684 109.3399556
  49.6183699  72.4004854 109.7464748  50.9274828  71.7066373 110.0574038
  52.5824412  82.0968441 111.2733820  52.5400591  82.3229287 110.3442352
  53.4987111  81.8631815 111.4219622  56.0290046  72.5652508 118.1714450
  56.3839433  72.7923981 119.0308915  56.6762177  72.8970885 117.5491705
  61.7587783  75.6870944 108.8763779  61.6205681  75.8772540 107.9484968
  61.4024001  76.4490327 109.3331830  49.9229909  69.6729039 114.9560791
  50.5629288  69.5317798 114.2583754  49.0907439  69.3863553 114.5799393
  61.7857162  77.7547471 113.8875050  62.2193669  77.6622760 114.7358104
  62.4988743  77.7304972 113.2495066  50.6990213  78.9731470 111.0695783
  51.4930811  78.4781790 110.8678358  49.9881905  78.4449333 110.7063489
  55.5185057  81.3549565 115.4208151  55.5722079  81.9240502 116.1885867
  54.6499838  81.5251450 115.0562188  47.0072976  73.1174551 107.1455536
  46.0770564  73.0559007 107.3625498  47.1030448  72.5950504 106.3492177
  46.9258525  69.6429364 109.7333778  47.1865342  70.5574698 109.6242938
  47.7475697  69.1753807 109.8830390  48.3983450  71.0567121 116.9032602
  49.0706504  70.8484484 116.2545251  47.5713237  70.8589207 116.4637834
  62.6472712  77.7971172 116.4207936  62.8408602  78.7016982 116.6667211
  62.5473330  77.3378591 117.2546521  54.3009022  67.6829062 118.9198263
  53.6536937  68.3819012 118.8262739  55.0710038  68.1165206 119.2874511
  54.4773157  75.5209827 116.9795083  55.4065217  75.6720987 116.8064050
  54.0564187  75.6093848 116.1243729  53.2761489  79.5460492 114.7493620
  53.1372574  79.1779276 115.6219558  52.4876085  80.0608131 114.5777578
  53.8709641  84.6469588 106.0919157  54.0461396  84.1757631 106.9064779
  53.1842429  85.2735354 106.3200418  54.8266704  78.9242094 112.1382458
  54.4916536  78.8842864 113.0340108  54.3270649  78.2586810 111.6652868
  48.8010948  74.3309724 117.6635039  48.6630746  73.5989963 118.2646578
  49.7115871  74.2418625 117.3819227  57.7625895  76.2698129 102.4119518
  57.1455066  75.5444957 102.3152570  57.2942384  77.0307489 102.0686592
  51.4293248  74.0429684 117.1518719  52.1392867  73.4022876 117.1105337
  51.3862556  74.2942579 118.0744900  50.1422182  71.0294902 118.9714358
  49.6059539  70.5785640 119.6235955  49.5538891  71.1640810 118.2284823
  48.4370726  87.7958951 112.8659017  48.6767324  88.4277475 113.5438036
  47.5939922  87.4446991 113.1524376  49.5524441  70.4883553 101.5340822
  48.6753908  70.3672354 101.1703069  50.0282194  69.6969631 101.2819711
  59.4197434  78.9436621 118.3039278  58.5324213  78.6062543 118.4265677
  59.9895985  78.2119652 118.5408043  41.0726581  75.2760713 111.6282329
  41.7597621  74.9622443 111.0403344  40.9174710  76.1802077 111.3549581
  45.8761304  70.1650909 116.0567353  45.7919492  69.5576579 115.3217763
  45.0544010  70.6559928 116.0576849  52.9498588  83.6038073 115.2700521
  52.8768759  84.4093045 115.7819826  52.5075981  83.8030039 114.4448542
  52.7388367  82.8409843 108.7803343  51.9555889  83.3831524 108.8741567
  53.4381112  83.3583823 109.1797584  56.0485017  68.6504473 111.4237548
  56.5453717  67.8974435 111.1038618  55.2771999  68.6868790 110.8580757
  63.9014775  74.3544838 113.0655839  63.8904651  75.2369554 112.6949773
  63.0332154  74.0016389 112.8710376  55.4097271  83.5024907 117.4258680
  56.1225243  84.1372372 117.3534581  54.9187300  83.5988773 116.6098681
  57.1314798  77.4076160 108.9975971  56.1971077  77.5277623 108.8280676
  57.3091467  76.5048627 108.7335981  52.6319986  70.7921856 111.1509232
  52.2617774  70.2392896 111.8390138  53.1279079  70.1879989 110.5984233
  60.5187349  73.2493479 109.5326005  60.9847802  74.0821471 109.4586308
  60.9694850  72.7838461 110.2371264  50.4609185  81.2519351 118.2464250
  51.1618644  81.8855834 118.3993645  49.9904300  81.5934082 117.4859890
  58.5863581  79.5937301 106.5312157  58.8623424  79.4793895 107.4406032
  57.7168079  79.1954785 106.4924331  58.4904012  65.6174066 113.5716907
  57.5767092  65.8478293 113.7399114  58.9197114  65.7012510 114.4230939
  58.2610471  73.8063958 116.0716801  57.6081921  74.0539866 115.4169254
  58.6390851  72.9928096 115.7379278  55.2217645  83.8423651 110.1744971
  55.4040039  83.0245307 110.6372723  56.0450631  84.0591344 109.7369861
  55.5559810  82.7691837 107.4360020  56.0847577  82.2584291 106.8230182
  55.8188030  82.4534367 108.3005553  54.3098044  74.5483769 122.5582838
  53.6338681  74.4477899 123.2285213  55.1325678  74.3922983 123.0218835
  46.0576903  80.7855706 115.1795353  46.6430340  80.0399394 115.3123257
  45.8601741  81.0959663 116.0632017  48.9115558  83.8206953 110.1957796
  48.2425933  84.3053081 109.7121836  48.7728428  84.0676174 111.1101174
  40.6494558  73.3561306 113.8999796  40.6878657  72.8224897 114.6936914
  40.1434850  72.8296512 113.2810773  53.0520827  85.8550697 116.7940454
  53.6039135  86.0182318 117.5589539  53.3927020  86.4455135 116.1220479
  48.0285320  68.2025847 117.3962339  48.0926646  69.0640678 116.9839736
  47.9652440  67.5899848 116.6634697  47.5037592  70.2748979 121.0435373
  48.1309631  69.8926056 121.6572897  46.6465511  70.0563181 121.4091065
  44.2803135  72.0825408 106.9753728  44.5756576  71.1736087 106.9220781
  43.3791171  72.0613148 106.6534730  56.1889214  83.8032672 113.7804136
  56.0640353  83.0022412 113.2715082  56.8468305  84.2978866 113.2918106
  47.8097382  70.1581405 112.9581276  47.0883968  70.7717373 112.8188750
  48.5990638  70.6939170 112.8797922  58.2524122  81.6041692 115.4083686
  57.3054458  81.4847044 115.3362013  58.6006895  80.7164190 115.4909948
  50.6123696  67.4935831 119.2321928  51.1358097  67.7398128 119.9948237
  50.3936029  68.3255866 118.8125065  46.0090977  69.7639506 107.0993053
  45.6803683  68.8836885 106.9168159  46.3630347  69.7087175 107.9869442
  55.2570556  81.3994409 111.6088038  55.1095518  80.4711116 111.7895608
  56.0824049  81.4214499 111.1245114  49.1232800  70.0512476 107.4668531
  49.4628872  70.5798397 106.7447139  49.5704920  70.3892882 108.2427097
  58.8604677  82.2222967 112.6952911  59.7851225  82.0165829 112.5577362
  58.6919981  81.9739369 113.6042253  51.8176241  68.4349526 116.9171599
  51.4773061  67.6357340 117.3192278  51.1115247  68.7351237 116.3448432
  52.4692712  65.5198839 115.3698922  53.2918782  65.0459317 115.2477812
  52.7130776  66.2989323 115.8697608  51.1100947  68.5487097 105.6661823
  51.8309309  68.9268350 105.1625540  50.4866251  69.2675974 105.7696801
  55.2532070  69.2532246 106.6020156  55.4695684  70.1356884 106.3008984
  54.7726137  68.8618460 105.8725798  49.9931291  72.2117960 113.1790900
  49.8475872  72.5258263 114.0715182  49.5156495  72.8302860 112.6261799
  51.8527674  69.2020507 113.2271790  51.8389243  68.3061601 112.8904088
  52.5700102  69.2091171 113.8610076  53.7053805  69.6357848 115.2724917
  53.4471583  70.5574918 115.2709248  53.1738845  69.2388282 115.9625381
  58.6499994  82.7408635 108.0515003  58.8236871  82.1755057 107.2988855
  59.1428885  83.5409530 107.8694493  44.4676953  74.7523304 116.1178561
  43.9230421  75.5283112 116.2498836  45.3456303  75.0994108 115.9597683
  51.2564570  68.0834888 108.4959360  51.3780481  67.1551534 108.6950247
  50.9666612  68.0973574 107.5837675  54.1255760  65.7689798 111.6326080
  54.1477457  65.8329131 110.6778059  54.5423819  64.9294307 111.8266586
  64.5039385  75.5045058 109.6705302  64.9470531  74.7552383 109.2724426
  63.6265895  75.4955194 109.2879034  59.6375166  82.0575399 105.1511901
  60.3326071  82.6782092 105.3699215  59.9798316  81.2070750 105.4264279
  45.2542975  73.8793200 119.0108718  44.5124711  74.0275836 119.5973349
  44.9335720  74.1401466 118.1475468  61.5366589  79.5075105 106.6799232
  62.0617913  79.8462378 105.9548552  61.4488942  78.5722120 106.4962366
  53.1986638  83.4209178 118.8089108  53.5073764  83.1758325 119.6811808
  53.9962120  83.6255817 118.3207978  53.2207250  85.5747088 111.0394485
  52.7812240  85.0823467 111.7327342  53.9715367  85.0320056 110.7986560
  45.6999589  81.7658629 111.0419113  46.5257609  81.4662401 110.6617756
  45.3493641  80.9966251 111.4908902  50.6681122  81.1185097 113.1116786
  50.0461131  80.4555802 112.8119014  51.3385989  81.1446229 112.4290434
  43.9008194  79.6844955 112.0008046  43.0640102  79.2567130 111.8192048
  43.8731839  79.8777399 112.9378838  50.7405650  69.5966885 122.7049293
  50.7893805  70.4729008 122.3227062  51.2828164  69.0544278 122.1320936
  61.3458370  76.9900475 119.2983158  61.3956375  76.8250482 120.2398681
  61.2372294  76.1227734 118.9081039  50.2294629  79.6689020 106.5875247
  50.3782749  80.3524485 105.9341920  51.0361072  79.6494111 107.1024703
  58.6362133  72.9731403 120.6142465  59.5371995  72.8337868 120.3226463
  58.7110107  73.1385858 121.5540642  52.9704938  70.3498258 119.4595651
  52.1008247  70.6431824 119.1878240  53.2064418  70.9338703 120.1802915
  64.0472249  76.9750296 112.0627750  64.8819141  77.4140100 112.2265310
  64.1831378  76.4988949 111.2435996  61.0963755  74.5330031 118.0105238
  61.5717877  74.7257677 117.2024089  60.1729321  74.5889217 117.7648621
  47.9847262  75.6954198 107.5936316  47.7393304  74.7916528 107.7916526
  48.1543177  75.6971349 106.6515794  55.6743972  66.5677874 116.9761072
  56.1925916  67.3038901 116.6507560  55.3199105  66.8741868 117.8107831
  47.2542910  71.4282556 105.0922477  46.5612154  71.5026911 104.4362513
  47.0094661  70.6642899 105.6143994  55.9256566  62.9878157 112.4961968
  56.2058320  62.3201346 113.1222395  56.7107173  63.1807253 111.9836632
  53.7290035  82.1637151 104.0586994  53.1564002  82.7827338 103.6057466
  54.3022828  82.7136513 104.5926916  59.7965424  71.4095791 116.2433543
  60.7482847  71.5093889 116.2645767  59.6268875  70.6174060 116.7531628
  57.8179804  68.4951374 116.4292944  57.2229736  68.7756387 115.7339433
  57.5329501  68.9845275 117.2009685  56.9487294  82.4474301 105.1895577
  57.8817968  82.3819863 105.3928452  56.8610507  83.2830568 104.7310109
  59.5775311  81.7640171 102.1499524  59.4988943  81.4300035 103.0435282
  60.3984978  82.2561939 102.1490997  62.2753502  74.6301911 115.3575843
  62.2429822  73.6917911 115.5435527  62.8854126  74.7085947 114.6241668
  54.1136833  73.4997964 101.4003047  55.0595938  73.3704172 101.4691465
  53.7351078  72.7612626 101.8772475  62.4247991  71.4212954 115.4034126
  61.9087039  70.6371411 115.2164055  63.3087939  71.0931671 115.5680646
  60.0858718  65.1653970 111.3629939  59.8883539  64.8569058 112.2473271
  60.6958423  65.8915609 111.4927869  68.0930052  75.6917918 114.4981880
  68.8233441  75.4303206 115.0589583  67.4836998  74.9546639 114.5383948
  66.1745349  73.8325780 115.0956331  65.4478513  73.6981745 114.4872822
  65.7592636  74.1402609 115.9013049  52.2979750  71.4247940 101.3357932
  51.3911206  71.1281053 101.4120646  52.5755731  71.1277758 100.4692218
  43.2157691  72.7454303 111.7856979  42.8960475  71.8919612 111.4931353
  42.6691119  72.9602882 112.5414946  46.9937598  75.4616744 115.5026485
  47.2123608  76.3933852 115.5214519  47.4063372  75.1024719 116.2881289
  53.9141816  65.9684830 107.4902173  53.1042544  65.6231915 107.8657420
  54.6026233  65.6592373 108.0789785  55.8432364  65.0462877 109.1126470
  56.3963403  65.4658330 109.7716493  56.0802451  64.1198625 109.1549426
  51.8665463  71.0349950 124.8929234  51.7662190  71.9844307 124.8241325
  51.6487006  70.7068189 124.0205304  51.0678535  68.2834875 101.4769911
  51.9297699  68.6089774 101.7365729  51.2528879  67.4966371 100.9642977
  43.0845951  76.3657215 113.7550100  42.3909422  75.9511168 113.2420055
  43.8318942  76.4077751 113.1583519  59.2211171  67.1563402 108.6205134
  58.6409840  67.8148206 108.2383187  58.9547104  66.3340746 108.2092552
  57.6714738  66.5568459 110.8226455  58.1714516  66.6684994 110.0140774
  58.3150346  66.2529512 111.4627263  51.7296734  74.4647089 123.7094296
  51.2463815  75.2647449 123.9158185  51.8157673  74.4755034 122.7561740
  44.9982693  76.2975469 111.6316115  44.9753381  76.3963156 110.6797998
  45.3083330  77.1440620 111.9533281  47.6570071  78.3551624 115.7462729
  48.6113325  78.3235566 115.6792661  47.4582595  77.8942247 116.5612955
  48.2469453  76.9252740 118.3133527  49.0662342  77.4196818 118.3368364
  48.5206261  76.0084708 118.2851095  58.0036049  69.3163492 107.6761483
  57.1161904  69.6013143 107.4581677  58.4190038  69.1557255 106.8288760
  61.3550585  69.3410013 111.3915822  62.1310976  69.8306466 111.6640439
  60.6298720  69.7668067 111.8487691  63.7923144  70.0537632 112.4489762
  64.3867635  69.8133368 111.7383071  63.8649728  69.3344763 113.0763299
  46.0120300  83.8971243 112.7632927  45.8774768  83.1371644 112.1970925
  45.5952362  84.6212143 112.2961716  57.1479263  79.0808167 101.7709503
  57.8515113  79.2858169 102.3867158  56.4241912  79.6484929 102.0358586
  57.9777073  74.8318028 107.8911773  57.9212274  75.2886579 107.0519405
  58.5305416  74.0708713 107.7134616  61.7881879  70.6207760 108.7161892
  61.5318813  70.2204396 109.5470100  61.1634747  71.3351554 108.5912031
  66.0994217  73.3603833 111.2233184  65.5393775  73.4297022 111.9964746
  65.4937720  73.1844818 110.5032680  49.1689426  84.7940560 112.9751370
  49.0521810  85.7385993 112.8730060  48.3481872  84.4914122 113.3637169
  59.0565960  79.5190696 103.8207963  59.8911564  79.0871894 103.6385437
  58.8950303  79.3472710 104.7484857  58.7111852  76.0222809 105.1864302
  58.6560656  75.8567081 104.2452746  58.0857908  76.7298842 105.3426492
  43.5004367  71.2590874 119.0125724  44.1463231  70.7489828 119.5012949
  43.2921518  71.9959555 119.5869149  52.0207978  65.5230918 104.7649620
  52.0086648  66.4672758 104.9217891  52.9131400  65.3401064 104.4709082
  50.1943940  85.4468822 116.1907298  51.0971186  85.4792432 116.5073793
  49.9681310  84.5169273 116.2053634  51.9497542  84.1999809 112.8517377
  50.9993173  84.2001670 112.7381749  52.2530028  83.4532543 112.3353412
  55.8360097  62.1173695 109.0195557  55.0692493  61.5632182 109.1652240
  56.2470802  62.1895564 109.8809709  47.8401858  68.4058491 123.1100738
  48.7033320  68.0495296 123.3204063  47.2667269  68.0672386 123.7976143
  60.3526757  91.8423252 109.8421555  59.7891622  91.7513189 109.0737843
  60.2379152  91.0223156 110.3224048  65.9326316  95.5094219 105.1536020
  65.2814296  96.0948300 104.7670034  66.7270679  96.0400414 105.2131057
  59.8581943  92.5983356 105.5523154  60.6312819  92.0512344 105.4136030
  60.2107342  93.4627606 105.7637616  62.1948221  88.7576023 103.1841604
  62.4473742  88.2357544 102.4225067  61.2572780  88.5942168 103.2868288
  67.2391504  87.7611801 110.9916347  68.0254593  87.3431224 110.6406764
  67.5030208  88.6657893 111.1597996  67.4101581  93.1984651 105.6905004
  66.7747414  93.2719278 106.4025909  67.0798988  93.7878250 105.0124083
  61.9144510  90.6604129 105.3865979  61.7980768  89.9849032 106.0547063
  62.0246770  90.1736502 104.5698132  64.2576051  90.1214276 109.0912668
  63.8934258  89.5944897 109.8025590  65.1143167  89.7312745 108.9179154
  63.8981538  85.1504175 104.0874017  64.0655940  86.0184412 104.4544488
  63.7078707  85.3131457 103.1635306  60.1069352  90.0634951 111.7876552
  59.1819849  89.9311165 111.9954243  60.3553765  90.8429170 112.2846494
  63.8770758  87.6061833 105.0720684  63.7570384  88.0518884 105.9106164
  63.1823347  87.9547151 104.5134222  57.4678163  89.7068225 112.6220341
  57.5970544  89.9602704 113.5359752  56.7875615  90.2995933 112.3024996
  69.5755825  88.0783306 105.9001018  70.4873681  88.3110693 105.7248715
  69.0665472  88.6620350 105.3376096  66.9191799  84.2541342 114.1490879
  66.0576278  84.5522596 114.4407616  66.9454234  84.4711741 113.2171911
  63.7353369  92.7983533 110.5564684  64.1991714  93.0771236 109.7669307
  63.4710167  91.8966977 110.3737775  62.6722255  88.9206685 107.3654249
  63.3746298  89.3727729 107.8328176  62.3402883  88.2790504 107.9934143
  56.4147589  87.1790238 112.6671383  55.6246643  87.4347766 112.1911494
  56.9058836  87.9938575 112.7723424  58.3662334  87.5434817 109.6254860
  57.5693498  87.6553511 110.1438355  58.1387926  87.8821469 108.7595750
  54.6985292  87.4320728 115.0986374  54.9493330  88.3167738 115.3643950
  55.2344840  87.2525330 114.3261466  63.9116020  95.7347628 107.4416355
  63.7761694  96.5799163 107.8701203  64.4525832  95.9366905 106.6782289
  57.3645417  93.2523066 108.0144280  57.8769937  94.0466316 108.1649844
  58.0168130  92.5549356 107.9477881  67.2608483  79.2578189 115.9715248
  66.9172752  80.1479831 115.8954359  67.6287446  79.0679847 115.1084833
  55.3294334  91.5811720 108.7903850  56.1669556  91.9908728 108.5737558
  55.5072601  90.6411162 108.7604044  67.2258766  89.2486801 104.4787683
  66.7105389  90.0191405 104.7176071  66.9536074  88.5751937 105.1020745
  64.8105877  84.0936501 109.5372922  63.9547473  83.7043352 109.3578560
  65.2232829  84.1728462 108.6772707  66.3405023  81.6282845 113.9364481
  65.8369819  81.5912980 113.1232287  66.6335630  82.5375587 113.9961138
  62.5847909  81.7121574 112.9430663  63.4500906  81.5164383 112.5836553
  62.6525418  81.4831926 113.8700020  72.1993040  92.0019155 106.4140857
  71.4222483  91.6630315 105.9696019  72.8784521  92.0071778 105.7395822
  67.0145069  87.1213893 106.3047464  66.7095205  87.4360042 107.1557608
  67.9675511  87.1995313 106.3474797  65.4591501  93.2804116 107.9540418
  64.9312862  92.5456876 107.6413656  64.9579004  94.0578792 107.7080387
  60.1910228  83.9423782 110.3147030  60.7653980  83.7198964 109.5820223
  60.7781211  84.0112477 111.0675631  60.5179816  85.9728243 104.3342915
  59.6817128  86.3102930 104.6552190  60.3784585  85.8377223 103.3970052
  62.4932896  80.8165031 109.0422099  61.8397308  80.5014048 108.4178714
  62.4513370  80.1940772 109.7681922  63.6044101  91.0984326 100.9575391
  62.6971163  90.8673580 101.1566540  64.1015133  90.3021945 101.1449373
  66.5112180  99.8081833 103.8772078  65.8373879 100.1113530 104.4857035
  66.8978002 100.6110914 103.5277535  66.5105684  88.7038380 108.4972427
  67.2577503  89.2159778 108.1879549  66.7797274  88.3822433 109.3576821
  64.7832334  91.1996921 105.4799382  63.8743554  90.9155954 105.5771851
  64.8127418  91.6196000 104.6202688  68.9584521  85.7395497 110.4791217
  68.2207278  85.2272883 110.8101459  69.2111295  85.2995878 109.6674493
  69.0596149  78.5171749 111.0732986  69.3655026  77.6569112 110.7858901
  69.7848754  79.1089369 110.8731980  55.3520505  88.9202435 109.4614584
  55.1544905  88.3271796 108.7365650  54.7967169  88.6154645 110.1790523
  63.3317228  88.8125542 111.5809177  63.3865838  87.8599378 111.5051653
  62.5208431  88.9684981 112.0650475  64.4808422  92.7405665 102.8187460
  64.0427852  92.0241524 102.3593097  65.2218863  92.9681780 102.2572552
  61.2709588  87.4302601 109.3399556  60.4577454  87.7296772 109.7464748
  61.7668583  87.0358290 110.0574038  60.7623663  85.0020957 114.9560791
  61.4023042  84.8609716 114.2583754  59.9301194  84.7155470 114.5799393
  57.8466731  88.4466469 107.1455536  56.9164319  88.3850925 107.3625498
  57.9424203  87.9242422 106.3492177  57.7652280  84.9721282 109.7333778
  58.0259097  85.8866615 109.6242938  58.5869452  84.5045725 109.8830390
  68.6019650  91.5990046 102.4119518  67.9848820  90.8736875 102.3152570
  68.1336138  92.3599407 102.0686592  60.3918196  85.8175471 101.5340822
  59.5147662  85.6964271 101.1703069  60.8675949  85.0261549 101.2819711
  51.9120336  90.6052630 111.6282329  52.5991376  90.2914360 111.0403344
  51.7568465  91.5093995 111.3549581  56.7155058  85.4942827 116.0567353
  56.6313247  84.8868497 115.3217763  55.8937764  85.9851845 116.0576849
  66.8878772  83.9796391 111.4237548  67.3847471  83.2266353 111.1038618
  66.1165753  84.0160707 110.8580757  63.4713741  86.1213774 111.1509232
  63.1011528  85.5684814 111.8390138  63.9672833  85.5171907 110.5984233
  69.3297767  80.9465984 113.5716907  68.4160846  81.1770211 113.7399114
  69.7590868  81.0304428 114.4230939  51.4888312  88.6853224 113.8999796
  51.5272412  88.1516814 114.6936914  50.9828605  88.1588429 113.2810773
  58.8679074  83.5317764 117.3962339  58.9320401  84.3932595 116.9839736
  58.8046195  82.9191766 116.6634697  55.1196890  87.4117326 106.9753728
  55.4150331  86.5028004 106.9220781  54.2184925  87.3905065 106.6534730
  58.6491137  85.4873323 112.9581276  57.9277722  86.1009290 112.8188750
  59.4384392  86.0231087 112.8797922  56.8484731  85.0931424 107.0993053
  56.5197437  84.2128803 106.9168159  57.2024102  85.0379092 107.9869442
  59.9626554  85.3804393 107.4668531  60.3022627  85.9090315 106.7447139
  60.4098675  85.7184800 108.2427097  63.3086467  80.8490757 115.3698922
  64.1312536  80.3751235 115.2477812  63.5524531  81.6281240 115.8697608
  61.9494701  83.8779015 105.6661823  62.6703064  84.2560268 105.1625540
  61.3260006  84.5967892 105.7696801  66.0925824  84.5824164 106.6020156
  66.3089439  85.4648802 106.3008984  65.6119892  84.1910377 105.8725798
  60.8325046  87.5409877 113.1790900  60.6869626  87.8550180 114.0715182
  60.3550249  88.1594778 112.6261799  62.6921429  84.5312425 113.2271790
  62.6782997  83.6353518 112.8904088  63.4093857  84.5383089 113.8610076
  62.0958325  83.4126805 108.4959360  62.2174236  82.4843452 108.6950247
  61.8060367  83.4265491 107.5837675  64.9649515  81.0981716 111.6326080
  64.9871212  81.1621049 110.6778059  65.3817574  80.2586225 111.8266586
  56.5393343  97.0950547 111.0419113  57.3651363  96.7954318 110.6617756
  56.1887395  96.3258169 111.4908902  54.7401948  95.0136873 112.0008046
  53.9033857  94.5859047 111.8192048  54.7125594  95.2069316 112.9378838
  61.0688384  94.9980938 106.5875247  61.2176504  95.6816403 105.9341920
  61.8754827  94.9786028 107.1024703  58.8241017  91.0246116 107.5936316
  58.5787058  90.1208446 107.7916526  58.9936931  91.0263266 106.6515794
  58.0936664  86.7574473 105.0922477  57.4005909  86.8318828 104.4362513
  57.8488416  85.9934817 105.6143994  66.7650321  78.3170075 112.4961968
  67.0452074  77.6493264 113.1222395  67.5500927  78.5099170 111.9836632
  64.5683789  97.4929069 104.0586994  63.9957756  98.1119256 103.6057466
  65.1416583  98.0428430 104.5926916  67.7881049  97.7766219 105.1895577
  68.7211722  97.7111780 105.3928452  67.7004262  98.6122486 104.7310109
  70.4169066  97.0932089 102.1499524  70.3382697  96.7591953 103.0435282
  71.2378732  97.5853857 102.1490997  64.9530588  88.8289881 101.4003047
  65.8989692  88.6996089 101.4691465  64.5744833  88.0904543 101.8772475
  70.9252472  80.4945887 111.3629939  70.7277293  80.1860976 112.2473271
  71.5352178  81.2207526 111.4927869  63.1373505  86.7539858 101.3357932
  62.2304960  86.4572970 101.4120646  63.4149486  86.4569676 100.4692218
  54.0551445  88.0746221 111.7856979  53.7354229  87.2211529 111.4931353
  53.5084873  88.2894799 112.5414946  64.7535570  81.2976747 107.4902173
  63.9436299  80.9523832 107.8657420  65.4419987  80.9884291 108.0789785
  66.6826119  80.3754794 109.1126470  67.2357157  80.7950248 109.7716493
  66.9196205  79.4490542 109.1549426  61.9072289  83.6126793 101.4769911
  62.7691453  83.9381691 101.7365729  62.0922633  82.8258289 100.9642977
  53.9239705  91.6949133 113.7550100  53.2303177  91.2803085 113.2420055
  54.6712696  91.7369669 113.1583519  70.0604926  82.4855319 108.6205134
  69.4803595  83.1440123 108.2383187  69.7940858  81.6632664 108.2092552
  68.5108492  81.8860377 110.8226455  69.0108271  81.9976912 110.0140774
  69.1544100  81.5821430 111.4627263  55.8376448  91.6267386 111.6316115
  55.8147136  91.7255074 110.6797998  56.1477084  92.4732537 111.9533281
  68.8429804  84.6455410 107.6761483  67.9555659  84.9305060 107.4581677
  69.2583793  84.4849173 106.8288760  67.9873017  94.4100084 101.7709503
  68.6908867  94.6150087 102.3867158  67.2635666  94.9776846 102.0358586
  68.8170828  90.1609946 107.8911773  68.7606029  90.6178497 107.0519405
  69.3699170  89.4000630 107.7134616  72.6275633  85.9499678 108.7161892
  72.3712568  85.5496313 109.5470100  72.0028502  86.6643472 108.5912031
  69.8959715  94.8482614 103.8207963  70.7305319  94.4163812 103.6385437
  69.7344058  94.6764627 104.7484857  69.5505607  91.3514727 105.1864302
  69.4954411  91.1858998 104.2452746  68.9251662  92.0590760 105.3426492
  62.8601732  80.8522836 104.7649620  62.8480402  81.7964676 104.9217891
  63.7525154  80.6692981 104.4709082  66.6753852  77.4465613 109.0195557
  65.9086248  76.8924099 109.1652240  67.0864557  77.5187481 109.8809709
  71.2311950 101.1467388 101.5340822  70.3541417 101.0256189 101.1703069
  71.7069703 100.3553467 101.2819711  72.7466044  98.9418711 101.4769911
  73.6085208  99.2673609 101.7365729  72.9316388  98.1550207 100.9642977
  23.1537163  15.4976285  90.6017384  22.4798862  15.8007982  91.2102342
  23.5402985  16.3005366  90.2522841  27.0594049  12.7826541  88.8744831
  26.9807680  12.4486405  89.7680589  27.8803716  13.2748309  88.8736303
  24.6298001  10.0994536  88.4954809  25.3333851  10.3044539  89.1112465
  23.9060649  10.6671298  88.7603893  27.8345495  22.8609621  96.5666862
  27.2710360  22.7699558  95.7983149  27.7197890  22.0409526  97.0469354
  33.4145054  26.5280589  91.8781327  32.7633034  27.1134669  91.4915340
  34.2089417  27.0586784  91.9376364  27.3400681  23.6169726  92.2768461
  28.1131557  23.0698713  92.1381337  27.6926080  24.4813975  92.4882922
  29.6766959  19.7762392  89.9086911  29.9292479  19.2543913  89.1470374
  28.7391518  19.6128538  90.0113594  34.7210242  18.7798171  97.7161654
  35.5073331  18.3617594  97.3652071  34.9848946  19.6844263  97.8843302
  34.8920319  24.2171021  92.4150311  34.2566152  24.2905647  93.1271216
  34.5617725  24.8064620  91.7369390  40.1218669  18.7173404  98.6194633
  40.8543841  18.1472621  98.8532462  39.3658024  18.3295004  99.0601138
  29.3963247  21.6790498  92.1111286  29.2799506  21.0035401  92.7792370
  29.5065507  21.1922872  91.2943439  31.7394788  21.1400645  95.8157975
  31.3752996  20.6131266  96.5270897  32.5961904  20.7499114  95.6424460
  31.3800275  16.1690545  90.8119324  31.5474678  17.0370781  91.1789795
  31.1897444  16.3317827  89.8880613  31.3589496  18.6248202  91.7965990
  31.2389121  19.0705253  92.6351471  30.6642085  18.9733520  91.2379529
  29.1196388  31.3951844  95.4456122  29.0420418  32.3459669  95.5244602
  28.5158032  31.0497717  96.1031048  37.0574562  19.0969676  92.6246324
  37.9692419  19.3297062  92.4494022  36.5484210  19.6806720  92.0621403
  35.6644145  24.0795494 100.0159906  35.0353007  24.2441208  99.3135974
  35.2769807  24.4937104 100.7870870  39.5433377  25.0149932  97.3704270
  38.8584415  25.3948833  96.8201303  39.6277226  25.6245259  98.1036217
  31.2172107  23.8169902  97.2809991  31.6810452  24.0957605  96.4914613
  30.9528905  22.9153347  97.0983082  30.1540993  19.9393054  94.0899556
  30.8565036  20.3914098  94.5573482  29.8221621  19.2976873  94.7179449
  37.9130136  25.5381846 102.1421971  38.7347580  25.1362034 101.8604652
  37.9092539  25.4350080 103.0938086  46.0036129  21.8820595  98.4906942
  45.2499838  21.3127993  98.3350946  46.1383670  21.8483259  99.4377577
  31.3934757  26.7533997  94.1661661  31.2580432  27.5985533  94.5946509
  31.9344570  26.9553275  93.4027595  24.8464155  24.2709435  94.7389586
  25.3588675  25.0652685  94.8895151  25.4986868  23.5735726  94.6723188
  26.6559039  27.3875191  96.8212340  26.8325668  28.3093156  96.6333324
  27.4515873  27.0733611  97.2506719  34.7077504  20.2673170  91.2032990
  34.1924127  21.0377775  91.4421377  34.4354812  19.5938306  91.8266051
  39.6811778  23.0205525  93.1386163  38.9041220  22.6816684  92.6941325
  40.3603259  23.0258148  92.4641128  34.4963807  18.1400262  93.0292771
  34.1913942  18.4546411  93.8802914  35.4494249  18.2181682  93.0720104
  32.9410239  24.2990486  94.6785725  32.4131600  23.5643245  94.3658963
  32.4397741  25.0765162  94.4325693  37.9203085  22.4939506  99.7952771
  37.2626759  23.1838767  99.8832900  38.7243484  22.8835938 100.1386758
  36.7308543  20.8483879  97.8456713  37.2440425  21.4813871  98.3478423
  37.3809767  20.2485074  97.4800073  27.9998553  16.9914613  91.0588222
  27.1635866  17.3289299  91.3797497  27.8603323  16.8563593  90.1215359
  31.0862839  22.1170696  87.6820698  30.1789901  21.8859949  87.8811847
  31.5833871  21.3208315  87.8694680  33.9930918  30.8268203  90.6017384
  33.3192616  31.1299900  91.2102342  34.3796740  31.6297283  90.2522841
  33.9924422  19.7224750  95.2217734  34.7396241  20.2346147  94.9124856
  34.2616012  19.4008803  96.0822127  32.2651072  22.2183291  92.2044688
  31.3562291  21.9342323  92.3017158  32.2946156  22.6382369  91.3447995
  37.4970340  25.8289880  95.9735856  37.0432667  24.9880790  96.0301046
  36.8664306  26.4651279  96.3110636  35.9403279  27.6666377  96.9085674
  36.2326253  28.2271434  96.1898040  36.4501899  27.9594938  97.6638833
  31.9627160  23.7592034  89.5432767  31.5246590  23.0427893  89.0838404
  32.7037601  23.9868149  88.9817858  30.9036904  28.4446728  97.9979127
  30.8613083  28.6707574  97.0687659  31.8199603  28.2110103  98.1464928
  40.0800275  22.0349231  95.6009085  39.9418173  22.2250827  94.6730275
  39.7236494  22.7968614  96.0577136  40.1069654  24.1025758 100.6120357
  40.5406161  24.0101047 101.4603411  40.8201235  24.0783259  99.9740373
  29.0202705  25.3209757  97.7941090  29.8143303  24.8260077  97.5923665
  28.3094397  24.7927620  97.4308795  33.8397549  27.7027852 102.1453457
  33.8934572  28.2718789 102.9131173  32.9712331  27.8729738 101.7807495
  25.3285468  19.4652839  93.8700843  24.3983056  19.4037294  94.0870805
  25.4242940  18.9428791  93.0737484  32.1922133  30.9947875  92.8164463
  32.3673889  30.5235919  93.6310086  31.5054921  31.6213642  93.0445724
  33.1479196  25.2720382  98.8627765  32.8129029  25.2321152  99.7585415
  32.6483142  24.6065098  98.3898175  36.0838388  22.6176416  89.1364824
  35.4667558  21.8923244  89.0397877  35.6154876  23.3785776  88.7931899
  26.7583218  34.1437238  99.5904324  26.9979816  34.7755762 100.2683342
  25.9152415  33.7925278  99.8769683  27.8736934  16.8361840  88.2586129
  26.9966400  16.7150641  87.8948375  28.3494687  16.0447919  88.0065017
  31.2711080  29.9516361 101.9945828  31.1981251  30.7571332 102.5065132
  30.8288473  30.1508326 101.1693849  31.0600860  29.1888131  95.5048649
  30.2768381  29.7309811  95.5986874  31.7593605  29.7062110  95.9042890
  42.2227267  20.7023126  99.7901146  42.2117143  21.5847841  99.4195079
  41.3544647  20.3494676  99.5955683  35.4527290  23.7554447  95.7221278
  34.5183569  23.8755910  95.5525982  35.6303959  22.8526914  95.4581288
  38.8399842  19.5971767  96.2571312  39.3060294  20.4299758  96.1831615
  39.2907342  19.1316748  96.9616571  36.9076073  25.9415588  93.2557464
  37.1835917  25.8272182  94.1651338  36.0380572  25.5433073  93.2169637
  33.5430137  30.1901939  96.8990278  33.7252531  29.3723595  97.3618030
  34.3663123  30.4069631  96.4615168  33.8772302  29.1170124  94.1605326
  34.4060069  28.6062578  93.5475488  34.1400522  28.8012654  95.0250859
  27.2328050  30.1685241  96.9203102  26.5638426  30.6531368  96.4367142
  27.0940920  30.4154461  97.8346481  31.3733319  32.2028984 103.5185761
  31.9251627  32.3660606 104.2834846  31.7139512  32.7933422 102.8465785
  34.5101706  30.1510960 100.5049443  34.3852846  29.3500699  99.9960388
  35.1680797  30.6457153 100.0163413  36.5736615  27.9519980 102.1328993
  35.6266950  27.8325331 102.0607319  36.9219388  27.0642478 102.2155254
  33.5783048  27.7472696  98.3333345  33.4308010  26.8189403  98.5140915
  34.4036541  27.7692787  97.8490420  37.1817170  28.5701255  99.4198218
  38.1063717  28.3644116  99.2822669  37.0132473  28.3217656 100.3287559
  29.4313439  14.8965385  92.3907130  30.1521802  15.2746637  91.8870847
  28.8078743  15.6154261  92.4942108  33.5744562  15.6010534  93.3265462
  33.7908177  16.4835171  93.0254290  33.0938629  15.2096747  92.5971104
  36.9712486  29.0886922  94.7760309  37.1449363  28.5233345  94.0234162
  37.4641377  29.8887817  94.5939799  42.8251877  21.8523345  96.3950609
  43.2683023  21.1030670  95.9969732  41.9478387  21.8433481  96.0124341
  37.9587658  28.4053686  91.8757207  38.6538563  29.0260379  92.0944522
  38.3010809  27.5549038  92.1509585  39.8579082  25.8553392  93.4044538
  40.3830406  26.1940665  92.6793858  39.7701434  24.9200407  93.2207673
  31.5419742  31.9225375  97.7639791  31.1024733  31.4301754  98.4572648
  32.2927859  31.3798343  97.5231867  24.0212081  28.1136916  97.7664420
  24.8470101  27.8140688  97.3863063  23.6706133  27.3444539  98.2154208
  28.9893614  27.4663384  99.8362093  28.3673624  26.8034089  99.5364321
  29.6598481  27.4924516  99.1535741  28.5507121  26.0167308  93.3120554
  28.6995242  26.7002772  92.6587226  29.3573565  25.9972398  93.8270009
  42.3684742  23.3228583  98.7873057  43.2031633  23.7618387  98.9510617
  42.5043871  22.8467237  97.9681302  26.3059754  22.0432485  94.3181623
  26.0605796  21.1394815  94.5161833  26.4755669  22.0449636  93.3761101
  25.5755402  17.7760843  91.8167784  24.8824647  17.8505198  91.1607820
  25.3307154  17.0121187  92.3389301  32.0502527  28.5115438  90.7832301
  31.4776494  29.1305625  90.3302773  32.6235321  29.0614800  91.3172223
  35.2699787  28.7952588  91.9140883  36.2030460  28.7298150  92.1173759
  35.1822999  29.6308855  91.4555416  37.8987803  28.1118459  88.8744831
  37.8201435  27.7778322  89.7680589  38.7197470  28.6040227  88.8736303
  32.4349325  19.8476251  88.1248354  33.3808430  19.7182459  88.1936772
  32.0563570  19.1090913  88.6017782  46.4142544  22.0396205 101.2227186
  47.1445933  21.7781493 101.7834890  45.8049490  21.3024927 101.2629254
  44.4957841  20.1804067 101.8201638  43.7691005  20.0460032 101.2118129
  44.0805128  20.4880896 102.6258356  30.6192242  17.7726227  88.0603239
  29.7123698  17.4759340  88.1365952  30.8968224  17.4756045  87.1937525
  29.3891027  14.6313163  88.2015218  30.2510191  14.9568061  88.4611035
  29.5741371  13.8444658  87.6888284  37.5423664  13.5041689  95.3450441
  36.9622333  14.1626493  94.9628493  37.2759596  12.6819034  94.9337858
  36.3248542  15.6641779  94.4006789  35.4374397  15.9491430  94.1826984
  36.7402531  15.5035543  93.5534066  24.3332792  30.2449530  99.4878234
  24.1987260  29.4849931  98.9216232  23.9164854  30.9690430  99.0207023
  35.4691755  25.4286454  88.4954809  36.1727605  25.6336457  89.1112465
  34.7454404  25.9963216  88.7603893  36.2989565  21.1796315  94.6157079
  36.2424767  21.6364867  93.7764712  36.8517908  20.4187000  94.4379922
  40.1094371  16.9686047  95.4407199  39.8531306  16.5682683  96.2715407
  39.4847239  17.6829841  95.3157338  44.4206709  19.7082120  97.9478490
  43.8606267  19.7775310  98.7210052  43.8150212  19.5323105  97.2277987
  27.4901918  31.1418848  99.6996677  27.3734302  32.0864280  99.5975367
  26.6694364  30.8392409 100.0882476  37.3778452  25.8668983  90.5453269
  38.2124056  25.4350182  90.3630744  37.2162795  25.6950997  91.4730164
  37.0324345  22.3701097  91.9109609  36.9773148  22.2045368  90.9698053
  36.4070400  23.0777129  92.0671798  30.3420470  11.8709206  91.4894927
  30.3299140  12.8151045  91.6463198  31.2343892  11.6879351  91.1954388
  30.2710034  30.5478096  99.5762684  29.3205665  30.5479958  99.4627056
  30.5742520  29.8010831  99.0598718  46.0062728  36.3838634 100.6408446
  46.6441138  36.2645382  99.9371786  45.8883570  37.3319478 100.6996398
  42.8152434  36.3366062 100.5769971  42.4770945  36.2207127  99.6890506
  43.6842202  35.9357228 100.5570977  38.6739250  38.1901539  96.5666862
  38.1104115  38.0991476  95.7983149  38.5591645  37.3701443  97.0469354
  43.2972217  37.4900914 106.5356176  43.2860858  37.0953712 105.6636680
  43.4592856  36.7566987 107.1289948  36.2203681  39.6852730  99.4051082
  37.0124973  39.3443555  98.9897381  36.4600332  39.7947706 100.3253235
  44.2538808  41.8572507  91.8781327  43.6026788  42.4426587  91.4915340
  45.0483171  42.3878701  91.9376364  38.1794435  38.9461644  92.2768461
  38.9525311  38.3990631  92.1381337  38.5319834  39.8105893  92.4882922
  40.0179478  40.2738026 105.4835360  39.7269344  41.1783657 105.3682027
  40.6536462  40.3154554 106.1979430  40.9435685  37.6514874 102.0736720
  41.5399257  37.4270897 101.3593683  41.0010656  36.9099620 102.6762168
  40.5160713  35.1054310  89.9086911  40.7686234  34.5835831  89.1470374
  39.5785272  34.9420455  90.0113594  45.5603996  34.1090088  97.7161654
  46.3467085  33.6909511  97.3652071  45.8242700  35.0136180  97.8843302
  45.7314073  39.5462938  92.4150311  45.0959906  39.6197565  93.1271216
  45.4011480  40.1356537  91.7369390  50.9612423  34.0465321  98.6194633
  51.6937595  33.4764538  98.8532462  50.2051779  33.6586922  99.0601138
  40.2357002  37.0082416  92.1111286  40.1193260  36.3327319  92.7792370
  40.3459262  36.5214790  91.2943439  42.5788543  36.4692563  95.8157975
  42.2146750  35.9423184  96.5270897  43.4355659  36.0791032  95.6424460
  48.4837844  27.7586895 103.0789241  48.1521168  28.6282306 102.8550456
  47.8883457  27.4423179 103.7583272  42.2194030  31.4982463  90.8119324
  42.3868432  32.3662699  91.1789795  42.0291199  31.6609744  89.8880613
  44.9769363  39.9599441 102.4785154  44.6770086  40.8624480 102.3700961
  44.6320423  39.6931625 103.3306307  38.4281845  36.4113238  98.5121858
  37.5032341  36.2789452  98.7199550  38.6766258  37.1907458  99.0091801
  48.3766507  32.4781982 100.1582591  47.4683384  32.4097390  99.8641352
  48.3254103  32.9553927 100.9864417  42.1983251  33.9540120  91.7965990
  42.0782876  34.3997171  92.6351471  41.5035839  34.3025438  91.2379529
  35.7890656  36.0546512  99.3465647  35.9183037  36.3080991 100.2605059
  35.1088107  36.6474220  99.0270302  39.9590143  46.7243762  95.4456122
  39.8814173  47.6751587  95.5244602  39.3551786  46.3789634  96.1031048
  42.4507373  33.8971627 108.1017489  41.6740707  34.4565547 108.0920353
  43.0897936  34.3828410 108.6232359  50.2428153  30.6798420 101.9360465
  49.6002534  30.9730953 101.2900260  49.7383082  30.5651340 102.7413662
  47.8968317  34.4261593  92.6246324  48.8086173  34.6588980  92.4494022
  47.3877964  35.0098637  92.0621403  40.7053745  36.7057081 107.6635456
  41.4468429  37.2442125 107.3870279  39.9990730  37.3323369 107.8207007
  46.1809085  38.8486221 106.2607617  46.5892441  38.4068632 105.5162249
  45.4586346  38.2738849 106.5141810  42.5340155  33.7858828 103.6341174
  43.3801350  34.2098241 103.7775823  42.4738792  33.1292452 104.3279737
  46.5037899  39.4087412 100.0159906  45.8746762  39.5733126  99.3135974
  46.1163561  39.8229021 100.7870870  50.3827131  40.3441850  97.3704270
  49.6978169  40.7240751  96.8201303  50.4670980  40.9537176  98.1036217
  45.6839600  31.4463196 105.2922348  45.4400532  32.2005257 104.7556623
  45.9599530  31.8248544 106.1269595  47.6378063  37.9901809 103.9699613
  47.8494958  38.6333568 103.2933994  47.5907811  37.1564125 103.5021543
  45.2404292  30.6019629 100.8736185  44.3788771  30.9000883 101.1652923
  45.2666726  30.8190028  99.9417218  42.0565861  39.1461820  97.2809991
  42.5204207  39.4249523  96.4914613  41.7922659  38.2445264  97.0983082
  38.9489942  38.6933301 100.2189754  39.5191299  39.1220570  99.5807239
  39.5398054  38.4115886 100.9173940  40.9934747  35.2684972  94.0899556
  41.6958791  35.7206016  94.5573482  40.6615376  34.6268791  94.7179449
  39.4415109  33.8596729 108.4650766  38.8113769  34.5413010 108.6986162
  39.3351197  33.7479810 107.5203904  34.7360081  33.5268525  99.3916690
  33.9459135  33.7826053  98.9156800  35.2271329  34.3416863  99.4968730
  48.7523891  40.8673764 102.1421971  49.5741334  40.4653951 101.8604652
  48.7486294  40.7641998 103.0938086  36.6874827  33.8913104  96.3500166
  35.8905990  34.0031798  96.8683662  36.4600419  34.2299756  95.4841057
  42.5180494  40.4157807 104.2982681  42.5824927  40.8778215 105.1340853
  41.8091418  39.7855172 104.4264991  33.0197784  33.7799015 101.8231680
  33.2705823  34.6646025 102.0889256  33.5557333  33.6003617 101.0506772
  56.8429884  37.2112512  98.4906942  56.0893592  36.6419911  98.3350946
  56.9777425  37.1775177  99.4377577  42.2328512  42.0825915  94.1661661
  42.0974187  42.9277451  94.5946509  42.7738324  42.2845192  93.4027595
  35.6857909  39.6001353  94.7389586  36.1982430  40.3944603  94.8895151
  36.3380622  38.9027643  94.6723188  37.4952794  42.7167109  96.8212340
  37.6719422  43.6385074  96.6333324  38.2909627  42.4025528  97.2506719
  36.7805150  34.7631741 106.6974503  36.6658666  33.8616998 106.9981602
  35.9249668  35.0095438 106.3459319  43.8596988  42.7049481 108.2962003
  43.4160842  41.9185860 107.9782908  44.5214202  42.8928632 107.6305894
  38.6184109  44.2345283 102.8222682  39.1691534  44.1062346 102.0499676
  37.7795585  44.5340172 102.4717575  45.9578226  42.9852281 106.3243405
  45.9396702  43.8061162 105.8323674  46.8798146  42.8606356 106.5493546
  42.4151280  40.4996411 107.1666913  42.9479617  39.7384699 106.9366221
  41.8865361  40.2070063 107.9091068  45.5820975  25.6056477 102.6960555
  45.2385245  26.4958118 102.6199665  45.9499938  25.4158134 101.8330140
  33.6506826  37.9290007  95.5149157  34.4882048  38.3387015  95.2982865
  33.8285094  36.9889449  95.4849351  45.5471258  35.5965088  91.2032990
  45.0317882  36.3669692  91.4421377  45.2748567  34.9230224  91.8266051
  43.1318369  30.4414789  96.2618228  42.2759965  30.0521639  96.0823867
  43.5445321  30.5206749  95.4018014  44.6617516  27.9761132 100.6609788
  44.1582311  27.9391267  99.8477593  44.9548123  28.8853875 100.7206445
  40.9060402  28.0599862  99.6675970  41.7713398  27.8642670  99.3081859
  40.9737911  27.8310213 100.5945327  50.5205532  38.3497442  93.1386163
  49.7434975  38.0108602  92.6941325  51.1997013  38.3550066  92.4641128
  45.3357561  33.4692180  93.0292771  45.0307697  33.7838329  93.8802914
  46.2888003  33.5473600  93.0720104  43.7803993  39.6282403  94.6785725
  43.2525355  38.8935163  94.3658963  43.2791496  40.4057080  94.4325693
  48.7596839  37.8231424  99.7952771  48.1020514  38.5130685  99.8832900
  49.5637238  38.2127856 100.1386758  38.5122721  30.2902069  97.0392337
  39.0866473  30.0677251  96.3065530  39.0993703  30.3590764  97.7920938
  47.5702298  36.1775796  97.8456713  48.0834180  36.8105788  98.3478423
  48.2203522  35.5776992  97.4800073  38.8392308  32.3206531  91.0588222
  38.0029620  32.6581217  91.3797497  38.6997077  32.1855510  90.1215359
  40.8145388  27.1643318  95.7667406  40.1609801  26.8492336  95.1424021
  40.7725863  26.5419059  96.4927229  41.9256593  37.4462613  87.6820698
  41.0183655  37.2151867  87.8811847  42.4227625  36.6500233  87.8694680
  44.8324672  46.1560121  90.6017384  44.1586371  46.4591817  91.2102342
  45.2190494  46.9589201  90.2522841  44.0483129  33.6525252 100.0915054
  43.1305690  33.8740199  99.9336742  44.4643272  33.7271562  99.2326761
  44.8318177  35.0516668  95.2217734  45.5789995  35.5638065  94.9124856
  45.1009766  34.7300720  96.0822127  43.1044827  37.5475208  92.2044688
  42.1956046  37.2634241  92.3017158  43.1339911  37.9674287  91.3447995
  48.3364094  41.1581798  95.9735856  47.8826421  40.3172708  96.0301046
  47.7058061  41.7943196  96.3110636  47.2797014  32.0873784  97.2036523
  46.5419770  31.5751170  97.5346766  47.5323787  31.6474165  96.3919800
  46.7797033  42.9958295  96.9085674  47.0720008  43.5563352  96.1898040
  47.2895654  43.2886856  97.6638833  47.3808641  24.8650036  97.7978292
  47.6867518  24.0047399  97.5104208  48.1061246  25.4567656  97.5977286
  33.6732997  35.2680722  96.1859890  33.4757397  34.6750083  95.4610957
  33.1179661  34.9632933  96.9035829  41.6529721  35.1603829  98.3054484
  41.7078331  34.2077665  98.2296960  40.8420923  35.3163268  98.7895782
  42.8020915  39.0883952  89.5432767  42.3640344  38.3719811  89.0838404
  43.5431355  39.3160067  88.9817858  39.5922081  33.7780889  96.0644862
  38.7789946  34.0775059  96.4710055  40.0881075  33.3836577  96.7819345
  41.7430659  43.7738646  97.9979127  41.7006837  43.9999492  97.0687659
  42.6593357  43.5402020  98.1464928  45.1896292  34.2422713 104.8959756
  45.5445680  34.4694186 105.7554222  45.8368424  34.5741090 104.2737012
  50.9194029  37.3641149  95.6009085  50.7811928  37.5542745  94.6730275
  50.5630248  38.1260532  96.0577136  39.0836155  31.3499244 101.6806097
  39.7235535  31.2088003 100.9829061  38.2513686  31.0633758 101.3044699
  50.9463409  39.4317676 100.6120357  51.3799916  39.3392965 101.4603411
  51.6594990  39.4075177  99.9740373  39.8596459  40.6501675  97.7941090
  40.6537058  40.1551995  97.5923665  39.1488152  40.1219538  97.4308795
  44.6791304  43.0319770 102.1453457  44.7328326  43.6010706 102.9131173
  43.8106085  43.2021655 101.7807495  36.1679223  34.7944756  93.8700843
  35.2376811  34.7329212  94.0870805  36.2636695  34.2720709  93.0737484
  36.0864772  31.3199569  96.4579084  36.3471589  32.2344902  96.3488245
  36.9081944  30.8524012  96.6075697  37.5589697  32.7337326 103.6277909
  38.2312751  32.5254688 102.9790558  36.7319484  32.5359412 103.1883141
  51.8078958  39.4741377 103.1453242  52.0014849  40.3787187 103.3912517
  51.7079577  39.0148796 103.9791827  43.4615269  29.3599267 105.6443570
  42.8143184  30.0589217 105.5508046  44.2316285  29.7935411 106.0119818
  46.8694067  39.6248119 108.7194123  46.7179574  39.3958671 107.8024207
  46.8598747  40.5818721 108.7325468  43.6379404  37.1980032 103.7040389
  44.5671464  37.3491192 103.5309357  43.2170434  37.2864053 102.8489036
  42.4367735  41.2230697 101.4738927  42.2978821  40.8549481 102.3464865
  41.6482332  41.7378336 101.3022885  43.0315887  46.3239793  92.8164463
  43.2067643  45.8527836  93.6310086  42.3448675  46.9505559  93.0445724
  43.9872950  40.6012299  98.8627765  43.6522783  40.5613069  99.7585415
  43.4876896  39.9357015  98.3898175  37.9617194  36.0079929 104.3880346
  37.8236992  35.2760168 104.9891885  38.8722118  35.9188829 104.1064534
  46.9232142  37.9468334  89.1364824  46.3061313  37.2215162  89.0397877
  46.4548631  38.7077694  88.7931899  40.5899495  35.7199889 103.8764026
  41.2999114  35.0793081 103.8350644  40.5468803  35.9712783 104.7990206
  48.5786274  42.6567242 106.7970605  48.5198820  41.9726462 106.1301188
  48.9805792  43.3986232 106.3451231  39.3028429  32.7065107 105.6959665
  38.7665786  32.2555845 106.3481261  38.7145138  32.8411015 104.9530129
  37.5976973  49.4729156  99.5904324  37.8373571  50.1047680 100.2683342
  36.7546169  49.1217196  99.8769683  38.7130688  32.1653758  88.2586129
  37.8360154  32.0442559  87.8948375  39.1888441  31.3739836  88.0065017
  48.5803681  40.6206826 105.0284584  47.6930460  40.2832748 105.1510983
  49.1502232  39.8889857 105.2653350  30.2332828  36.9530918  98.3527636
  30.9203868  36.6392648  97.7648651  30.0780957  37.8572282  98.0794887
  35.0367550  31.8421114 102.7812659  34.9525739  31.2346784 102.0463069
  34.2150257  32.3330133 102.7822156  42.1104834  45.2808278 101.9945828
  42.0375006  46.0863250 102.5065132  41.6682228  45.4800244 101.1693849
  41.8994614  44.5180048  95.5048649  41.1162136  45.0601728  95.5986874
  42.5987359  45.0354028  95.9042890  45.2091264  30.3274678  98.1482855
  45.7059964  29.5744640  97.8283925  44.4378246  30.3638994  97.5826064
  53.0621022  36.0315043  99.7901146  53.0510898  36.9139759  99.4195079
  52.1938401  35.6786594  99.5955683  44.5703518  45.1795112 104.1503986
  45.2831490  45.8142577 104.0779888  44.0793547  45.2758978 103.3343988
  46.2921045  39.0846365  95.7221278  45.3577324  39.2047827  95.5525982
  46.4697713  38.1818832  95.4581288  41.7926233  32.4692061  97.8754539
  41.4224020  31.9163101  98.5635445  42.2885325  31.8650194  97.3229539
  49.6793596  34.9263684  96.2571312  50.1454048  35.7591676  96.1831615
  50.1301097  34.4608666  96.9616571  39.6215432  42.9289556 104.9709557
  40.3224891  43.5626039 105.1238951  39.1510547  43.2704287 104.2105196
  47.7469827  41.2707506  93.2557464  48.0229671  41.1564100  94.1651338
  46.8774326  40.8724990  93.2169637  47.6510259  27.2944271 100.2962213
  46.7373339  27.5248498 100.4644420  48.0803360  27.3782715 101.1476246
  47.4216717  35.4834163 102.7962107  46.7688168  35.7310071 102.1414560
  47.7997097  34.6698301 102.4624585  44.3823891  45.5193856  96.8990278
  44.5646286  44.7015512  97.3618030  45.2056877  45.7361549  96.4615168
  44.7166057  44.4462042  94.1605326  45.2453823  43.9354496  93.5475488
  44.9794276  44.1304572  95.0250859  43.4704290  36.2253974 109.2828145
  42.7944928  36.1248104 109.9530520  44.2931924  36.0693188 109.7464142
  35.2183150  42.4625911 101.9040660  35.8036586  41.7169599 102.0368564
  35.0207988  42.7729868 102.7877324  38.0721805  45.4977158  96.9203102
  37.4032180  45.9823286  96.4367142  37.9334674  45.7446379  97.8346481
  29.8100804  35.0331511 100.6245103  29.8484904  34.4995102 101.4182221
  29.3041097  34.5066717 100.0056080  42.2127073  47.5320902 103.5185761
  42.7645381  47.6952523 104.2834846  42.5533267  48.1225340 102.8465785
  37.1891567  29.8796052 104.1207645  37.2532893  30.7410882 103.7085043
  37.1258687  29.2670053 103.3880004  47.0637948  42.3582159 109.3734415
  47.6077852  42.9712118 108.8789370  46.4824793  42.9161738 109.8901428
  33.4409382  33.7595613  93.6999034  33.7362823  32.8506292  93.6466088
  32.5397418  33.7383353  93.3780037  45.3495461  45.4802877 100.5049443
  45.2246600  44.6792617  99.9960388  46.0074552  45.9749071 100.0163413
  36.9703629  31.8351610  99.6826583  36.2490215  32.4487577  99.5434056
  37.7596885  32.3709375  99.6043229  47.4130369  43.2811897 102.1328993
  46.4660705  43.1617249 102.0607319  47.7613142  42.3934395 102.2155254
  35.1697223  31.4409711  93.8238359  34.8409930  30.5607090  93.6413465
  35.5236594  31.3857380  94.7114749  44.4176802  43.0764614  98.3333345
  44.2701765  42.1481321  98.5140915  45.2430296  43.0984704  97.8490420
  38.2839047  31.7282681  94.1913837  38.6235119  32.2568602  93.4692445
  38.7311167  32.0663087  94.9672404  48.0210924  43.8993172  99.4198218
  48.9457472  43.6936034  99.2822669  47.8526228  43.6509573 100.3287559
  40.9782487  30.1119731 103.6416905  40.6379308  29.3127544 104.0437585
  40.2721494  30.4121442 103.0693738  41.6298959  27.1969044 102.0944228
  42.4525029  26.7229522 101.9723119  41.8737023  27.9759528 102.5942915
  40.2707194  30.2257302  92.3907130  40.9915556  30.6038555  91.8870847
  39.6472498  30.9446179  92.4942108  44.4138317  30.9302451  93.3265462
  44.6301931  31.8127089  93.0254290  43.9332384  30.5388665  92.5971104
  39.1537538  33.8888164  99.9036207  39.0082119  34.2028467 100.7960488
  38.6762742  34.5073065  99.3507105  41.0133921  30.8790712  99.9517096
  40.9995490  29.9831806  99.6149394  41.7306349  30.8861376 100.5855382
  42.8660052  31.3128053 101.9970224  42.6077829  32.2345123 101.9954554
  42.3345092  30.9158487 102.6870688  47.8106240  44.4178840  94.7760309
  47.9843118  43.8525262  94.0234162  48.3035132  45.2179735  94.5939799
  33.6283200  36.4293509 102.8423868  33.0836668  37.2053317 102.9744142
  34.5062550  36.7764313 102.6842989  40.4170817  29.7605093  95.2204667
  40.5386728  28.8321739  95.4195554  40.1272859  29.7743779  94.3082982
  43.2862007  27.4460003  98.3571386  43.3083704  27.5099336  97.4023366
  43.7030066  26.6064512  98.5511893  53.6645632  37.1815263  96.3950609
  54.1076778  36.4322588  95.9969732  52.7872142  37.1725399  96.0124341
  48.7981413  43.7345604  91.8757207  49.4932318  44.3552297  92.0944522
  49.1404563  42.8840955  92.1509585  34.4149222  35.5563405 105.7354025
  33.6730958  35.7046040 106.3218655  34.0941966  35.8171671 104.8720774
  50.6972836  41.1845310  93.4044538  51.2224160  41.5232582  92.6793858
  50.6095189  40.2492325  93.2207673  42.3592885  45.0979383 105.5334415
  42.6680011  44.8528530 106.4057114  43.1568367  45.3026022 105.0453285
  42.3813497  47.2517293  97.7639791  41.9418487  46.7593672  98.4572648
  43.1321614  46.7090261  97.5231867  34.8605836  43.4428834  97.7664420
  35.6863856  43.1432606  97.3863063  34.5099888  42.6736456  98.2154208
  39.8287369  42.7955302  99.8362093  39.2067378  42.1326007  99.5364321
  40.4992236  42.8216434  99.1535741  33.0614441  41.3615160  98.7253353
  32.2246349  40.9337335  98.5437354  33.0338086  41.5547604  99.6624144
  50.3866742  41.8178213 108.7095736  49.5962286  41.8002352 108.1700236
  50.1500097  42.3566507 109.4644773  50.5064617  38.6670680 106.0228465
  50.5562622  38.5020687 106.9643988  50.3978540  37.7997939 105.6326346
  39.3900876  41.3459225  93.3120554  39.5388996  42.0294690  92.6587226
  40.1967319  41.3264315  93.8270009  47.7968380  34.6501608 107.3387771
  48.6978242  34.5108073 107.0471769  47.8716354  34.8156063 108.2785949
  42.1311185  32.0268462 106.1840958  41.2614494  32.3202029 105.9123546
  42.3670665  32.6108907 106.9048221  52.0082814  41.0867621 106.2670486
  51.7167622  41.4497602 107.1033947  51.3954945  40.3734629 106.0883818
  53.2078496  38.6520501  98.7873057  54.0425388  39.0910305  98.9510617
  53.3437625  38.1759154  97.9681302  50.2570002  36.2100236 104.7350544
  50.7324124  36.4027882 103.9269396  49.3335568  36.2659422 104.4893928
  37.1453509  37.3724403  94.3181623  36.8999551  36.4686733  94.5161833
  37.3149423  37.3741553  93.3761101  44.8350219  28.2448079 103.7006378
  45.3532163  28.9809106 103.3752867  44.4805351  28.5512073 104.5353137
  36.4149156  33.1052761  91.8167784  35.7218401  33.1797116  91.1607820
  36.1700908  32.3413104  92.3389301  45.0862813  24.6648362  99.2207275
  45.3664567  23.9971551  99.8467701  45.8713420  24.8577458  98.7081939
  42.8896281  43.8407356  90.7832301  42.3170248  44.4597543  90.3302773
  43.4629075  44.3906718  91.3172223  48.9571671  33.0865996 102.9678850
  49.9089094  33.1864094 102.9891074  48.7875122  32.2944264 103.4776934
  46.9786051  30.1721579 103.1538251  46.3835983  30.4526592 102.4584739
  46.6935747  30.6615480 103.9254992  46.1093541  44.1244506  91.9140883
  47.0424214  44.0590068  92.1173759  46.0216754  44.9600773  91.4555416
  48.7381558  43.4410376  88.8744831  48.6595189  43.1070240  89.7680589
  49.5591225  43.9332144  88.8736303  51.4359749  36.3072116 102.0821150
  51.4036069  35.3688116 102.2680833  52.0460373  36.3856152 101.3486974
  43.2743080  35.1768169  88.1248354  44.2202185  35.0474377  88.1936772
  42.8957325  34.4382830  88.6017782  51.5854237  33.0983159 102.1279433
  51.0693286  32.3141616 101.9409362  52.4694186  32.7701876 102.2925952
  49.2464964  26.8424175  98.0875245  49.0489786  26.5339263  98.9718577
  49.8564670  27.5685814  98.2173175  57.2536299  37.3688122 101.2227186
  57.9839687  37.1073411 101.7834890  56.6443244  36.6316844 101.2629254
  55.3351596  35.5095985 101.8201638  54.6084760  35.3751950 101.2118129
  54.9198883  35.8172814 102.6258356  43.1581772  39.2285915 109.5849011
  44.0784782  39.4064514 109.7789057  43.1231355  38.2841960 109.4328710
  41.4585997  33.1018145  88.0603239  40.5517452  32.8051258  88.1365952
  41.7361978  32.8047963  87.1937525  32.3763937  34.4224508  98.5102285
  32.0566722  33.5689817  98.2176659  31.8297366  34.6373087  99.2660253
  36.1543845  37.1386949 102.2271792  36.3729855  38.0704057 102.2459826
  36.5669619  36.7794924 103.0126596  43.0748063  27.6455035  94.2147480
  42.2648791  27.3002120  94.5902726  43.7632480  27.3362578  94.8035092
  45.0038611  26.7233081  95.8371777  45.5569650  27.1428535  96.4961800
  45.2408697  25.7968830  95.8794733  40.2284782  29.9605080  88.2015218
  41.0903946  30.2859979  88.4611035  40.4135126  29.1736576  87.6888284
  32.2452197  38.0427420 100.4795407  31.5515669  37.6281373  99.9665361
  32.9925188  38.0847956  99.8828826  48.3817418  28.8333607  95.3450441
  47.8016087  29.4918411  94.9628493  48.1153351  28.0110951  94.9337858
  46.8320984  28.2338664  97.5471761  47.3320763  28.3455199  96.7386080
  47.4756592  27.9299717  98.1872570  40.8902980  36.1417294 110.4339602
  40.4070062  36.9417654 110.6403491  40.9763919  36.1525239 109.4807046
  34.1588940  37.9745674  98.3561422  34.1359628  38.0733361  97.4043305
  34.4689576  38.8210824  98.6778588  36.8176318  40.0321829 102.4708036
  37.7719571  40.0005771 102.4037968  36.6188841  39.5712452 103.2858262
  37.4075700  38.6022945 105.0378834  38.2268589  39.0967023 105.0613671
  37.6812508  37.6854913 105.0096401  47.1642296  30.9933697  94.4006789
  46.2768151  31.2783348  94.1826984  47.5796285  30.8327460  93.5534066
  50.5156832  31.0180218  98.1161128  51.2917222  31.5076670  98.3885745
  49.7904966  31.4438272  98.5732998  52.9529391  31.7307837  99.1735069
  53.5473882  31.4903573  98.4628377  53.0255975  31.0114968  99.8008605
  35.1726547  45.5741448  99.4878234  35.0381014  44.8141849  98.9216232
  34.7558609  46.2982348  99.0207023  46.3085510  40.7578372  88.4954809
  47.0121360  40.9628374  89.1112465  45.5848158  41.3255134  88.7603893
  47.1383320  36.5088233  94.6157079  47.0818521  36.9656784  93.7764712
  47.6911662  35.7478918  94.4379922  50.9488126  32.2977965  95.4407199
  50.6925060  31.8974600  96.2715407  50.3240994  33.0121759  95.3157338
  55.2600464  35.0374038  97.9478490  54.7000022  35.1067227  98.7210052
  54.6543967  34.8615023  97.2277987  38.3295672  46.4710765  99.6996677
  38.2128057  47.4156198  99.5975367  37.5088119  46.1684327 100.0882476
  48.2172207  41.1960901  90.5453269  49.0517811  40.7642099  90.3630744
  48.0556550  41.0242915  91.4730164  47.8718099  37.6993014  91.9109609
  47.8166903  37.5337286  90.9698053  47.2464154  38.4069047  92.0671798
  45.1864006  40.0041926 111.2363171  46.0555166  40.1782578 110.8749806
  44.7070758  40.8236343 111.1138901  41.1814225  27.2001123  91.4894927
  41.1692894  28.1442963  91.6463198  42.0737646  27.0171269  91.1954388
  39.3550187  47.1239027 102.9152605  40.2577433  47.1562637 103.2319100
  39.1287557  46.1939478 102.9298941  41.1103789  45.8770014  99.5762684
  40.1599420  45.8771875  99.4627056  41.4136275  45.1302748  99.0598718
  44.9966344  23.7943900  95.7440864  44.2298740  23.2402387  95.8897546
  45.4077049  23.8665769  96.6055015  56.8456482  51.7130552 100.6408446
  57.4834892  51.5937299  99.9371786  56.7277325  52.6611396 100.6996398
  53.6546188  51.6657980 100.5769971  53.3164700  51.5499045  99.6890506
  54.5235957  51.2649145 100.5570977  49.5133004  53.5193457  96.5666862
  48.9497869  53.4283393  95.7983149  49.3985399  52.6993361  97.0469354
  54.1365971  52.8192832 106.5356176  54.1254612  52.4245630 105.6636680
  54.2986611  52.0858904 107.1289948  47.0597436  55.0144648  99.4051082
  47.8518728  54.6735473  98.9897381  47.2994086  55.1239623 100.3253235
  55.0932563  57.1864424  91.8781327  54.4420543  57.7718505  91.4915340
  55.8876926  57.7170619  91.9376364  49.0188190  54.2753561  92.2768461
  49.7919066  53.7282548  92.1381337  49.3713589  55.1397811  92.4882922
  50.8573232  55.6029944 105.4835360  50.5663098  56.5075574 105.3682027
  51.4930217  55.6446471 106.1979430  51.7829439  52.9806792 102.0736720
  52.3793012  52.7562815 101.3593683  51.8404411  52.2391538 102.6762168
  51.3554468  50.4346228  89.9086911  51.6079988  49.9127749  89.1470374
  50.4179027  50.2712373  90.0113594  56.3997751  49.4382006  97.7161654
  57.1860840  49.0201429  97.3652071  56.6636455  50.3428098  97.8843302
  56.5707828  54.8754856  92.4150311  55.9353661  54.9489483  93.1271216
  56.2405234  55.4648455  91.7369390  61.8006178  49.3757239  98.6194633
  62.5331350  48.8056456  98.8532462  61.0445533  48.9878840  99.0601138
  51.0750756  52.3374333  92.1111286  50.9587015  51.6619237  92.7792370
  51.1853016  51.8506707  91.2943439  53.4182297  51.7984481  95.8157975
  53.0540505  51.2715102  96.5270897  54.2749413  51.4082950  95.6424460
  59.3231598  43.0878813 103.0789241  58.9914923  43.9574224 102.8550456
  58.7277211  42.7715097 103.7583272  53.0587784  46.8274380  90.8119324
  53.2262187  47.6954617  91.1789795  52.8684953  46.9901662  89.8880613
  55.8163118  55.2891359 102.4785154  55.5163841  56.1916398 102.3700961
  55.4714177  55.0223542 103.3306307  49.2675599  51.7405156  98.5121858
  48.3426096  51.6081370  98.7199550  49.5160012  52.5199375  99.0091801
  59.2160261  47.8073899 100.1582591  58.3077139  47.7389308  99.8641352
  59.1647857  48.2845844 100.9864417  53.0377005  49.2832038  91.7965990
  52.9176630  49.7289089  92.6351471  52.3429594  49.6317355  91.2379529
  46.6284410  51.3838430  99.3465647  46.7576791  51.6372908 100.2605059
  45.9481861  51.9766138  99.0270302  50.7983897  62.0535680  95.4456122
  50.7207927  63.0043505  95.5244602  50.1945541  61.7081552  96.1031048
  53.2901127  49.2263545 108.1017489  52.5134461  49.7857465 108.0920353
  53.9291690  49.7120328 108.6232359  61.0821908  46.0090338 101.9360465
  60.4396288  46.3022871 101.2900260  60.5776836  45.8943258 102.7413662
  58.7362071  49.7553511  92.6246324  59.6479928  49.9880898  92.4494022
  58.2271718  50.3390555  92.0621403  51.5447499  52.0348998 107.6635456
  52.2862184  52.5734042 107.3870279  50.8384485  52.6615287 107.8207007
  57.0202839  54.1778139 106.2607617  57.4286195  53.7360549 105.5162249
  56.2980101  53.6030766 106.5141810  53.3733909  49.1150746 103.6341174
  54.2195104  49.5390159 103.7775823  53.3132547  48.4584370 104.3279737
  57.3431654  54.7379329 100.0159906  56.7140516  54.9025044  99.3135974
  56.9557316  55.1520939 100.7870870  61.2220886  55.6733767  97.3704270
  60.5371924  56.0532669  96.8201303  61.3064735  56.2829094  98.1036217
  56.5233354  46.7755114 105.2922348  56.2794286  47.5297174 104.7556623
  56.7993285  47.1540461 106.1269595  58.4771817  53.3193726 103.9699613
  58.6888712  53.9625486 103.2933994  58.4301565  52.4856043 103.5021543
  56.0798046  45.9311547 100.8736185  55.2182525  46.2292800 101.1652923
  56.1060481  46.1481946  99.9417218  52.8959616  54.4753737  97.2809991
  53.3597961  54.7541440  96.4914613  52.6316414  53.5737182  97.0983082
  49.7883697  54.0225219 100.2189754  50.3585054  54.4512487  99.5807239
  50.3791809  53.7407804 100.9173940  51.8328502  50.5976890  94.0899556
  52.5352545  51.0497934  94.5573482  51.5009130  49.9560709  94.7179449
  50.2808863  49.1888646 108.4650766  49.6507524  49.8704927 108.6986162
  50.1744951  49.0771728 107.5203904  45.5753836  48.8560443  99.3916690
  44.7852890  49.1117971  98.9156800  46.0665083  49.6708780  99.4968730
  59.5917645  56.1965682 102.1421971  60.4135089  55.7945869 101.8604652
  59.5880048  56.0933916 103.0938086  47.5268581  49.2205022  96.3500166
  46.7299744  49.3323716  96.8683662  47.2994173  49.5591674  95.4841057
  53.3574249  55.7449725 104.2982681  53.4218681  56.2070132 105.1340853
  52.6485173  55.1147090 104.4264991  43.8591539  49.1090933 101.8231680
  44.1099577  49.9937943 102.0889256  44.3951087  48.9295534 101.0506772
  67.6823638  52.5404430  98.4906942  66.9287347  51.9711828  98.3350946
  67.8171179  52.5067095  99.4377577  53.0722266  57.4117832  94.1661661
  52.9367941  58.2569368  94.5946509  53.6132079  57.6137110  93.4027595
  49.5589606  43.4909412 110.8276017  49.1656551  42.9375611 111.5023661
  50.3755746  43.8019991 111.2182534  46.5251664  54.9293271  94.7389586
  47.0376184  55.7236521  94.8895151  47.1774376  54.2319561  94.6723188
  48.3346548  58.0459027  96.8212340  48.5113177  58.9676991  96.6333324
  49.1303382  57.7317446  97.2506719  52.4757567  44.9067291 108.4196273
  53.2167280  45.5074445 108.3400736  52.7075490  44.1644929 107.8614316
  47.6198905  50.0923659 106.6974503  47.5052420  49.1908916 106.9981602
  46.7643423  50.3387355 106.3459319  54.6990743  58.0341399 108.2962003
  54.2554597  57.2477778 107.9782908  55.3607956  58.2220549 107.6305894
  49.4577864  59.5637201 102.8222682  50.0085289  59.4354264 102.0499676
  48.6189340  59.8632090 102.4717575  56.7971981  58.3144199 106.3243405
  56.7790456  59.1353080 105.8323674  57.7191901  58.1898274 106.5493546
  53.2545035  55.8288328 107.1666913  53.7873372  55.0676617 106.9366221
  52.7259116  55.5361980 107.9091068  56.4214730  40.9348394 102.6960555
  56.0778999  41.8250036 102.6199665  56.7893692  40.7450052 101.8330140
  44.4900580  53.2581925  95.5149157  45.3275802  53.6678933  95.2982865
  44.6678848  52.3181367  95.4849351  56.3865013  50.9257005  91.2032990
  55.8711636  51.6961610  91.4421377  56.1142321  50.2522142  91.8266051
  53.9712124  45.7706706  96.2618228  53.1153720  45.3813557  96.0823867
  54.3839075  45.8498667  95.4018014  55.5011270  43.3053050 100.6609788
  54.9976066  43.2683185  99.8477593  55.7941877  44.2145792 100.7206445
  51.7454156  43.3891779  99.6675970  52.6107153  43.1934588  99.3081859
  51.8131665  43.1602131 100.5945327  61.3599287  53.6789360  93.1386163
  60.5828729  53.3400520  92.6941325  62.0390768  53.6841983  92.4641128
  56.1751316  48.7984098  93.0292771  55.8701451  49.1130247  93.8802914
  57.1281758  48.8765517  93.0720104  54.6197748  54.9574321  94.6785725
  54.0919109  54.2227080  94.3658963  54.1185250  55.7348997  94.4325693
  59.5990594  53.1523341  99.7952771  58.9414268  53.8422603  99.8832900
  60.4030993  53.5419773 100.1386758  49.3516475  45.6193987  97.0392337
  49.9260227  45.3969169  96.3065530  49.9387458  45.6882682  97.7920938
  58.4096052  51.5067714  97.8456713  58.9227934  52.1397706  98.3478423
  59.0597276  50.9068910  97.4800073  49.6786062  47.6498448  91.0588222
  48.8423375  47.9873135  91.3797497  49.5390832  47.5147428  90.1215359
  51.6539143  42.4935236  95.7667406  51.0003555  42.1784253  95.1424021
  51.6119617  41.8710977  96.4927229  52.7650348  52.7754531  87.6820698
  51.8577410  52.5443785  87.8811847  53.2621380  51.9792150  87.8694680
  55.6718427  61.4852038  90.6017384  54.9980125  61.7883735  91.2102342
  56.0584249  62.2881119  90.2522841  54.8876883  48.9817170 100.0915054
  53.9699445  49.2032117  99.9336742  55.3037027  49.0563480  99.2326761
  55.6711931  50.3808585  95.2217734  56.4183750  50.8929982  94.9124856
  55.9403521  50.0592638  96.0822127  53.9438581  52.8767126  92.2044688
  53.0349800  52.5926159  92.3017158  53.9733665  53.2966205  91.3447995
  59.1757849  56.4873715  95.9735856  58.7220176  55.6464625  96.0301046
  58.5451815  57.1235114  96.3110636  58.1190768  47.4165702  97.2036523
  57.3813525  46.9043088  97.5346766  58.3717542  46.9766083  96.3919800
  57.6190788  58.3250212  96.9085674  57.9113762  58.8855269  96.1898040
  58.1289408  58.6178773  97.6638833  58.2202395  40.1941954  97.7978292
  58.5261272  39.3339317  97.5104208  58.9455000  40.7859574  97.5977286
  44.5126752  50.5972640  96.1859890  44.3151151  50.0042001  95.4610957
  43.9573416  50.2924850  96.9035829  52.4923475  50.4895747  98.3054484
  52.5472085  49.5369583  98.2296960  51.6814677  50.6455186  98.7895782
  53.6414669  54.4175870  89.5432767  53.2034099  53.7011729  89.0838404
  54.3825110  54.6451984  88.9817858  50.4315835  49.1072806  96.0644862
  49.6183701  49.4066977  96.4710055  50.9274829  48.7128495  96.7819345
  52.5824413  59.1030563  97.9979127  52.5400592  59.3291410  97.0687659
  53.4987112  58.8693938  98.1464928  56.0290047  49.5714631 104.8959756
  56.3839435  49.7986104 105.7554222  56.6762178  49.9033008 104.2737012
  61.7587784  52.6933067  95.6009085  61.6205682  52.8834663  94.6730275
  61.4024003  53.4552450  96.0577136  49.9229910  46.6791162 101.6806097
  50.5629289  46.5379921 100.9829061  49.0907440  46.3925675 101.3044699
  61.7857163  54.7609594 100.6120357  62.2193670  54.6684883 101.4603411
  62.4988744  54.7367094  99.9740373  50.6990214  55.9793592  97.7941090
  51.4930812  55.4843912  97.5923665  49.9881906  55.4511455  97.4308795
  55.5185058  58.3611688 102.1453457  55.5722081  58.9302624 102.9131173
  54.6499840  58.5313573 101.7807495  47.0072977  50.1236674  93.8700843
  46.0770565  50.0621130  94.0870805  47.1030449  49.6012627  93.0737484
  46.9258526  46.6491487  96.4579084  47.1865344  47.5636820  96.3488245
  47.7475699  46.1815929  96.6075697  48.3983452  48.0629244 103.6277909
  49.0706505  47.8546606 102.9790558  47.5713238  47.8651330 103.1883141
  62.6472713  54.8033294 103.1453242  62.8408603  55.7079105 103.3912517
  62.5473331  54.3440713 103.9791827  54.3009024  44.6891185 105.6443570
  53.6536939  45.3881135 105.5508046  55.0710039  45.1227329 106.0119818
  57.7087822  54.9540037 108.7194123  57.5573328  54.7250589 107.8024207
  57.6992501  55.9110639 108.7325468  54.4773158  52.5271950 103.7040389
  55.4065218  52.6783109 103.5309357  54.0564188  52.6155971 102.8489036
  53.2761490  56.5522614 101.4738927  53.1372576  56.1841399 102.3464865
  52.4876086  57.0670254 101.3022885  53.8709642  61.6531711  92.8164463
  54.0461397  61.1819754  93.6310086  53.1842430  62.2797477  93.0445724
  54.8266705  55.9304217  98.8627765  54.4916538  55.8904987  99.7585415
  54.3270651  55.2648933  98.3898175  48.8010949  51.3371847 104.3880346
  48.6630747  50.6052086 104.9891885  49.7115872  51.2480747 104.1064534
  57.7625897  53.2760251  89.1364824  57.1455067  52.5507079  89.0397877
  57.2942385  54.0369612  88.7931899  51.4293250  51.0491806 103.8764026
  52.1392868  50.4084999 103.8350644  51.3862558  51.3004701 104.7990206
  59.4180028  57.9859160 106.7970605  59.3592574  57.3018380 106.1301188
  59.8199547  58.7278150 106.3451231  50.1422184  48.0357024 105.6959665
  49.6059541  47.5847763 106.3481261  49.5538892  48.1702933 104.9530129
  48.4370727  64.8021074  99.5904324  48.6767325  65.4339598 100.2683342
  47.5939924  64.4509114  99.8769683  49.5524443  47.4945676  88.2586129
  48.6753909  47.3734476  87.8948375  50.0282196  46.7031754  88.0065017
  59.4197436  55.9498744 105.0284584  58.5324214  55.6124665 105.1510983
  59.9895987  55.2181775 105.2653350  41.0726583  52.2822835  98.3527636
  41.7597623  51.9684565  97.7648651  40.9174711  53.1864200  98.0794887
  45.8761305  47.1713032 102.7812659  45.7919494  46.5638701 102.0463069
  45.0544011  47.6622050 102.7822156  52.9498589  60.6100196 101.9945828
  52.8768760  61.4155167 102.5065132  52.5075982  60.8092162 101.1693849
  52.7388369  59.8471966  95.5048649  51.9555890  60.3893646  95.5986874
  53.4381114  60.3645946  95.9042890  56.0485019  45.6566595  98.1482855
  56.5453718  44.9036558  97.8283925  55.2772000  45.6930912  97.5826064
  63.9014776  51.3606961  99.7901146  63.8904652  52.2431676  99.4195079
  63.0332156  51.0078512  99.5955683  55.4097272  60.5087030 104.1503986
  56.1225245  61.1434495 104.0779888  54.9187301  60.6050896 103.3343988
  57.1314799  54.4138283  95.7221278  56.1971078  54.5339745  95.5525982
  57.3091468  53.5110749  95.4581288  52.6319987  47.7983978  97.8754539
  52.2617775  47.2455019  98.5635445  53.1279080  47.1942112  97.3229539
  60.5187351  50.2555602  96.2571312  60.9847803  51.0883594  96.1831615
  60.9694851  49.7900584  96.9616571  50.4609186  58.2581473 104.9709557
  51.1618645  58.8917956 105.1238951  49.9904301  58.5996205 104.2105196
  58.5863582  56.5999423  93.2557464  58.8623426  56.4856018  94.1651338
  57.7168081  56.2016908  93.2169637  58.4904013  42.6236189 100.2962213
  57.5767093  42.8540416 100.4644420  58.9197115  42.7074633 101.1476246
  58.2610472  50.8126081 102.7962107  57.6081922  51.0601988 102.1414560
  58.6390852  49.9990219 102.4624585  55.2217646  60.8485774  96.8990278
  55.4040040  60.0307430  97.3618030  56.0450632  61.0653466  96.4615168
  55.5559811  59.7753959  94.1605326  56.0847578  59.2646414  93.5475488
  55.8188031  59.4596489  95.0250859  54.3098045  51.5545892 109.2828145
  53.6338682  51.4540021 109.9530520  55.1325679  51.3985106 109.7464142
  46.0576904  57.7917828 101.9040660  46.6430341  57.0461516 102.0368564
  45.8601743  58.1021785 102.7877324  48.9115559  60.8269076  96.9203102
  48.2425935  61.3115204  96.4367142  48.7728429  61.0738296  97.8346481
  40.6494559  50.3623429 100.6245103  40.6878658  49.8287019 101.4182221
  40.1434852  49.8358634 100.0056080  53.0520828  62.8612819 103.5185761
  53.6039136  63.0244441 104.2834846  53.3927021  63.4517257 102.8465785
  48.0285321  45.2087969 104.1207645  48.0926648  46.0702800 103.7085043
  47.9652441  44.5961971 103.3880004  47.5037594  47.2811102 107.7680679
  48.1309632  46.8988179 108.3818204  46.6465512  47.0625304 108.1336372
  57.9031702  57.6874077 109.3734415  58.4471606  58.3004035 108.8789370
  57.3218547  58.2453655 109.8901428  44.2803136  49.0887531  93.6999034
  44.5756577  48.1798209  93.6466088  43.3791172  49.0675270  93.3780037
  56.1889215  60.8094795 100.5049443  56.0640355  60.0084535  99.9960388
  56.8468306  61.3040988 100.0163413  47.8097383  47.1643527  99.6826583
  47.0883969  47.7779495  99.5434056  48.5990639  47.7001292  99.6043229
  58.2524124  58.6103815 102.1328993  57.3054459  58.4909166 102.0607319
  58.6006897  57.7226313 102.2155254  50.6123697  44.4997954 105.9567235
  51.1358099  44.7460250 106.7193544  50.3936030  45.3317989 105.5370372
  46.0090978  46.7701629  93.8238359  45.6803684  45.8899007  93.6413465
  46.3630349  46.7149297  94.7114749  55.2570557  58.4056531  98.3333345
  55.1095519  57.4773239  98.5140915  56.0824050  58.4276622  97.8490420
  49.1232801  47.0574598  94.1913837  49.4628874  47.5860520  93.4692445
  49.5704922  47.3955004  94.9672404  58.8604679  59.2285090  99.4198218
  59.7851226  59.0227951  99.2822669  58.6919982  58.9801491 100.3287559
  51.8176242  45.4411649 103.6416905  51.4773062  44.6419462 104.0437585
  51.1115248  45.7413360 103.0693738  52.4692714  42.5260961 102.0944228
  53.2918783  42.0521440 101.9723119  52.7130777  43.3051445 102.5942915
  51.1100948  45.5549220  92.3907130  51.8309311  45.9330473  91.8870847
  50.4866252  46.2738097  92.4942108  55.2532071  46.2594369  93.3265462
  55.4695686  47.1419007  93.0254290  54.7726138  45.8680582  92.5971104
  49.9931293  49.2180082  99.9036207  49.8475873  49.5320385 100.7960488
  49.5156496  49.8364982  99.3507105  51.8527675  46.2082630  99.9517096
  51.8389244  45.3123723  99.6149394  52.5700104  46.2153294 100.5855382
  53.7053806  46.6419970 101.9970224  53.4471584  47.5637041 101.9954554
  53.1738846  46.2450405 102.6870688  58.6499995  59.7470757  94.7760309
  58.8236872  59.1817180  94.0234162  59.1428886  60.5471652  94.5939799
  44.4676955  51.7585426 102.8423868  43.9230423  52.5345234 102.9744142
  45.3456305  52.1056231 102.6842989  51.2564571  45.0897010  95.2204667
  51.3780483  44.1613657  95.4195554  50.9666614  45.1035696  94.3082982
  54.1255762  42.7751921  98.3571386  54.1477459  42.8391254  97.4023366
  54.5423821  41.9356429  98.5511893  64.5039386  52.5107180  96.3950609
  64.9470532  51.7614506  95.9969732  63.6265896  52.5017317  96.0124341
  59.6375167  59.0637522  91.8757207  60.3326072  59.6844214  92.0944522
  59.9798318  58.2132873  92.1509585  45.2542977  50.8855323 105.7354025
  44.5124713  51.0337958 106.3218655  44.9335721  51.1463588 104.8720774
  61.5366590  56.5137227  93.4044538  62.0617915  56.8524500  92.6793858
  61.4488943  55.5784243  93.2207673  53.1986639  60.4271301 105.5334415
  53.5073766  60.1820448 106.4057114  53.9962121  60.6317939 105.0453285
  53.2207251  62.5809211  97.7639791  52.7812242  62.0885589  98.4572648
  53.9715368  62.0382178  97.5231867  45.6999590  58.7720751  97.7664420
  46.5257610  58.4724523  97.3863063  45.3493642  58.0028374  98.2154208
  50.6681123  58.1247220  99.8362093  50.0461133  57.4617925  99.5364321
  51.3385990  58.1508352  99.1535741  43.9008195  56.6907078  98.7253353
  43.0640104  56.2629252  98.5437354  43.8731841  56.8839521  99.6624144
  50.7405651  46.6029008 109.4294599  50.7893806  47.4791131 109.0472369
  51.2828165  46.0606401 108.8566242  61.2260497  57.1470131 108.7095736
  60.4356040  57.1294270 108.1700236  60.9893851  57.6858425 109.4644773
  61.3458372  53.9962597 106.0228465  61.3956377  53.8312605 106.9643988
  61.2372295  53.1289856 105.6326346  50.2294630  56.6751143  93.3120554
  50.3782751  57.3586607  92.6587226  51.0361074  56.6556233  93.8270009
  58.6362134  49.9793525 107.3387771  59.5371997  49.8399990 107.0471769
  58.7110109  50.1447980 108.2785949  52.9704939  47.3560380 106.1840958
  52.1008249  47.6493946 105.9123546  53.2064420  47.9400825 106.9048221
  62.8476568  56.4159539 106.2670486  62.5561377  56.7789519 107.1033947
  62.2348700  55.7026547 106.0883818  64.0472251  53.9812419  98.7873057
  64.8819142  54.4202223  98.9510617  64.1831380  53.5051072  97.9681302
  61.0963757  51.5392154 104.7350544  61.5717878  51.7319800 103.9269396
  60.1729322  51.5951339 104.4893928  47.9847263  52.7016321  94.3181623
  47.7393305  51.7978651  94.5161833  48.1543178  52.7033471  93.3761101
  55.6743973  43.5739997 103.7006378  56.1925917  44.3101024 103.3752867
  55.3199106  43.8803990 104.5353137  47.2542911  48.4344678  91.8167784
  46.5612156  48.5089033  91.1607820  47.0094663  47.6705022  92.3389301
  55.9256567  39.9940280  99.2207275  56.2058321  39.3263469  99.8467701
  56.7107174  40.1869375  98.7081939  53.7290036  59.1699273  90.7832301
  53.1564003  59.7889461  90.3302773  54.3022829  59.7198635  91.3172223
  59.7965426  48.4157914 102.9678850  60.7482849  48.5156011 102.9891074
  59.6268876  47.6236182 103.4776934  57.8179805  45.5013497 103.1538251
  57.2229737  45.7818510 102.4584739  57.5329502  45.9907398 103.9254992
  56.9487296  59.4536424  91.9140883  57.8817969  59.3881985  92.1173759
  56.8610508  60.2892690  91.4555416  59.5775312  58.7702294  88.8744831
  59.4988944  58.4362158  89.7680589  60.3984979  59.2624062  88.8736303
  62.2753503  51.6364033 102.0821150  62.2429824  50.6980034 102.2680833
  62.8854127  51.7148070 101.3486974  54.1136834  50.5060086  88.1248354
  55.0595939  50.3766294  88.1936772  53.7351079  49.7674748  88.6017782
  62.4247992  48.4275077 102.1279433  61.9087041  47.6433533 101.9409362
  63.3087940  48.0993793 102.2925952  60.0858719  42.1716092  98.0875245
  59.8883540  41.8631180  98.9718577  60.6958424  42.8977731  98.2173175
  68.0930053  52.6980040 101.2227186  68.8233442  52.4365328 101.7834890
  67.4836999  51.9608762 101.2629254  66.1745350  50.8387903 101.8201638
  65.4478514  50.7043868 101.2118129  65.7592637  51.1464731 102.6258356
  53.9975527  54.5577832 109.5849011  54.9178536  54.7356431 109.7789057
  53.9625110  53.6133878 109.4328710  52.2979751  48.4310063  88.0603239
  51.3911207  48.1343175  88.1365952  52.5755732  48.1339881  87.1937525
  43.2157692  49.7516426  98.5102285  42.8960476  48.8981734  98.2176659
  42.6691120  49.9665004  99.2660253  46.9937599  52.4678867 102.2271792
  47.2123609  53.3995975 102.2459826  47.4063373  52.1086841 103.0126596
  53.9141817  42.9746952  94.2147480  53.1042546  42.6294037  94.5902726
  54.6026234  42.6654496  94.8035092  55.8432365  42.0524999  95.8371777
  56.3963404  42.4720453  96.4961800  56.0802452  41.1260747  95.8794733
  51.8665465  48.0412073 111.6174541  51.7662192  48.9906430 111.5486632
  51.6487007  47.7130312 110.7450611  51.0678536  45.2896998  88.2015218
  51.9297700  45.6151896  88.4611035  51.2528880  44.5028494  87.6888284
  43.0845952  53.3719338 100.4795407  42.3909423  52.9573290  99.9665361
  43.8318943  53.4139874  99.8828826  59.2211173  44.1625524  95.3450441
  58.6409842  44.8210328  94.9628493  58.9547105  43.3402869  94.9337858
  57.6714739  43.5630582  97.5471761  58.1714517  43.6747117  96.7386080
  58.3150347  43.2591635  98.1872570  51.7296735  51.4709212 110.4339602
  51.2463816  52.2709572 110.6403491  51.8157674  51.4817157 109.4807046
  44.9982694  53.3037591  98.3561422  44.9753382  53.4025279  97.4043305
  45.3083331  54.1502742  98.6778588  47.6570072  55.3613746 102.4708036
  48.6113326  55.3297689 102.4037968  47.4582596  54.9004370 103.2858262
  48.2469454  53.9314862 105.0378834  49.0662343  54.4258941 105.0613671
  48.5206262  53.0146831 105.0096401  58.0036051  46.3225615  94.4006789
  57.1161906  46.6075265  94.1826984  58.4190040  46.1619378  93.5534066
  61.3550587  46.3472136  98.1161128  62.1310977  46.8368588  98.3885745
  60.6298721  46.7730190  98.5732998  63.7923145  47.0599755  99.1735069
  64.3867636  46.8195491  98.4628377  63.8649729  46.3406885  99.8008605
  46.0120301  60.9033366  99.4878234  45.8774769  60.1433767  98.9216232
  45.5952363  61.6274266  99.0207023  57.1479264  56.0870289  88.4954809
  57.8515114  56.2920292  89.1112465  56.4241913  56.6547051  88.7603893
  57.9777074  51.8380151  94.6157079  57.9212276  52.2948702  93.7764712
  58.5305417  51.0770835  94.4379922  61.7881880  47.6269883  95.4407199
  61.5318814  47.2266518  96.2715407  61.1634748  48.3413676  95.3157338
  66.0994218  50.3665956  97.9478490  65.5393776  50.4359145  98.7210052
  65.4937721  50.1906940  97.2277987  49.1689427  61.8002683  99.6996677
  49.0521811  62.7448115  99.5975367  48.3481873  61.4976244 100.0882476
  59.0565961  56.5252819  90.5453269  59.8911565  56.0934017  90.3630744
  58.8950304  56.3534832  91.4730164  58.7111854  53.0284932  91.9109609
  58.6560657  52.8629203  90.9698053  58.0857909  53.7360965  92.0671798
  43.5004369  48.2652996 105.7371031  44.1463232  47.7551950 106.2258256
  43.2921520  49.0021678 106.3114456  56.0257761  55.3333844 111.2363171
  56.8948920  55.5074496 110.8749806  55.5464512  56.1528261 111.1138901
  52.0207979  42.5293041  91.4894927  52.0086649  43.4734881  91.6463198
  52.9131401  42.3463186  91.1954388  50.1943941  62.4530945 102.9152605
  51.0971188  62.4854555 103.2319100  49.9681311  61.5231396 102.9298941
  51.9497543  61.2061931  99.5762684  50.9993174  61.2063793  99.4627056
  52.2530029  60.4594666  99.0598718  55.8360099  39.1235818  95.7440864
  55.0692494  38.5694304  95.8897546  56.2470804  39.1957686  96.6055015
  47.8401860  45.4120613 109.8346045  48.7033321  45.0557418 110.0449370
  47.2667270  45.0734508 110.5221449  67.6850237  67.0422470 100.6408446
  68.3228647  66.9229217  99.9371786  67.5671079  67.9903314 100.6996398
  64.4939943  66.9949898 100.5769971  64.1558454  66.8790962  99.6890506
  65.3629711  66.5941063 100.5570977  60.3526759  68.8485374  96.5666862
  59.7891624  68.7575311  95.7983149  60.2379154  68.0285279  97.0469354
  64.9759726  68.1484750 106.5356176  64.9648367  67.7537548 105.6636680
  65.1380365  67.4150822 107.1289948  57.8991190  70.3436566  99.4051082
  58.6912482  70.0027390  98.9897381  58.1387841  70.4531541 100.3253235
  65.9326317  72.5156342  91.8781327  65.2814297  73.1010422  91.4915340
  66.7270680  73.0462537  91.9376364  59.8581944  69.6045479  92.2768461
  60.6312820  69.0574466  92.1381337  60.2107343  70.4689728  92.4882922
  61.6966987  70.9321861 105.4835360  61.4056853  71.8367492 105.3682027
  62.3323971  70.9738389 106.1979430  62.6223194  68.3098710 102.0736720
  63.2186766  68.0854732 101.3593683  62.6798165  67.5683455 102.6762168
  62.1948222  65.7638145  89.9086911  62.4473743  65.2419666  89.1470374
  61.2572781  65.6004291  90.0113594  67.2391505  64.7673924  97.7161654
  68.0254594  64.3493347  97.3652071  67.5030209  65.6720016  97.8843302
  67.4101582  70.2046774  92.4150311  66.7747415  70.2781400  93.1271216
  67.0798989  70.7940373  91.7369390  72.6399932  64.7049157  98.6194633
  73.3725104  64.1348374  98.8532462  71.8839288  64.3170757  99.0601138
  61.9144511  67.6666251  92.1111286  61.7980769  66.9911155  92.7792370
  62.0246771  67.1798625  91.2943439  64.2576052  67.1276398  95.8157975
  63.8934259  66.6007019  96.5270897  65.1143168  66.7374867  95.6424460
  70.1625353  58.4170731 103.0789241  69.8308677  59.2866142 102.8550456
  69.5670966  58.1007015 103.7583272  63.8981539  62.1566298  90.8119324
  64.0655941  63.0246534  91.1789795  63.7078708  62.3193580  89.8880613
  66.6556872  70.6183277 102.4785154  66.3557595  71.5208316 102.3700961
  66.3107932  70.3515460 103.3306307  60.1069354  67.0697074  98.5121858
  59.1819850  66.9373288  98.7199550  60.3553767  67.8491293  99.0091801
  70.0554016  63.1365817 100.1582591  69.1470893  63.0681225  99.8641352
  70.0041612  63.6137762 100.9864417  63.8770760  64.6123955  91.7965990
  63.7570385  65.0581006  92.6351471  63.1823348  64.9609273  91.2379529
  57.4678165  66.7130347  99.3465647  57.5970546  66.9664826 100.2605059
  56.7875616  67.3058055  99.0270302  61.6377652  77.3827597  95.4456122
  61.5601682  78.3335422  95.5244602  61.0339295  77.0373470  96.1031048
  64.1294882  64.5555463 108.1017489  63.3528216  65.1149383 108.0920353
  64.7685445  65.0412246 108.6232359  71.9215662  61.3382255 101.9360465
  71.2790042  61.6314789 101.2900260  71.4170591  61.2235176 102.7413662
  69.5755826  65.0845429  92.6246324  70.4873682  65.3172815  92.4494022
  69.0665473  65.6682473  92.0621403  62.3841254  67.3640916 107.6635456
  63.1255938  67.9025960 107.3870279  61.6778239  67.9907205 107.8207007
  67.8596594  69.5070056 106.2607617  68.2679950  69.0652467 105.5162249
  67.1373855  68.9322684 106.5141810  64.2127664  64.4442663 103.6341174
  65.0588859  64.8682077 103.7775823  64.1526301  63.7876288 104.3279737
  68.1825408  70.0671247 100.0159906  67.5534271  70.2316961  99.3135974
  67.7951070  70.4812857 100.7870870  72.0614640  71.0025685  97.3704270
  71.3765678  71.3824586  96.8201303  72.1458489  71.6121012  98.1036217
  67.3627109  62.1047032 105.2922348  67.1188041  62.8589092 104.7556623
  67.6387039  62.4832379 106.1269595  69.3165572  68.6485644 103.9699613
  69.5282467  69.2917404 103.2933994  69.2695320  67.8147960 103.5021543
  66.9191801  61.2603465 100.8736185  66.0576280  61.5584718 101.1652923
  66.9454235  61.4773863  99.9417218  63.7353370  69.8045655  97.2809991
  64.1991716  70.0833358  96.4914613  63.4710168  68.9029100  97.0983082
  60.6277451  69.3517137 100.2189754  61.1978808  69.7804405  99.5807239
  61.2185563  69.0699721 100.9173940  62.6722256  65.9268808  94.0899556
  63.3746299  66.3789851  94.5573482  62.3402885  65.2852626  94.7179449
  61.1202618  64.5180564 108.4650766  60.4901278  65.1996845 108.6986162
  61.0138706  64.4063646 107.5203904  56.4147590  64.1852360  99.3916690
  55.6246644  64.4409889  98.9156800  56.9058837  65.0000698  99.4968730
  70.4311400  71.5257599 102.1421971  71.2528843  71.1237787 101.8604652
  70.4273803  71.4225834 103.0938086  58.3662335  64.5496939  96.3500166
  57.5693499  64.6615634  96.8683662  58.1387928  64.8883592  95.4841057
  64.1968003  71.0741643 104.2982681  64.2612436  71.5362050 105.1340853
  63.4878927  70.4439008 104.4264991  54.6985293  64.4382851 101.8231680
  54.9493332  65.3229861 102.0889256  55.2344841  64.2587452 101.0506772
  78.5217393  67.8696348  98.4906942  77.7681101  67.3003746  98.3350946
  78.6564934  67.8359012  99.4377577  63.9116021  72.7409750  94.1661661
  63.7761696  73.5861286  94.5946509  64.4525833  72.9429028  93.4027595
  60.3983360  58.8201330 110.8276017  60.0050306  58.2667529 111.5023661
  61.2149501  59.1311908 111.2182534  57.3645418  70.2585188  94.7389586
  57.8769939  71.0528438  94.8895151  58.0168131  69.5611479  94.6723188
  59.1740303  73.3750944  96.8212340  59.3506931  74.2968909  96.6333324
  59.9697136  73.0609364  97.2506719  63.3151321  60.2359209 108.4196273
  64.0561035  60.8366362 108.3400736  63.5469244  59.4936847 107.8614316
  58.4592659  65.4215576 106.6974503  58.3446175  64.5200834 106.9981602
  57.6037177  65.6679273 106.3459319  65.5384497  73.3633317 108.2962003
  65.0948351  72.5769695 107.9782908  66.2001711  73.5512467 107.6305894
  60.2971618  74.8929118 102.8222682  60.8479043  74.7646182 102.0499676
  59.4583094  75.1924007 102.4717575  67.6365735  73.6436117 106.3243405
  67.6184211  74.4644998 105.8323674  68.5585655  73.5190192 106.5493546
  64.0938789  71.1580246 107.1666913  64.6267126  70.3968534 106.9366221
  63.5652870  70.8653898 107.9091068  67.2608484  56.2640312 102.6960555
  66.9172754  57.1541954 102.6199665  67.6287447  56.0741970 101.8330140
  55.3294335  68.5873842  95.5149157  56.1669557  68.9970851  95.2982865
  55.5072603  67.6473285  95.4849351  67.2258767  66.2548923  91.2032990
  66.7105390  67.0253528  91.4421377  66.9536076  65.5814059  91.8266051
  64.8105878  61.0998624  96.2618228  63.9547474  60.7105474  96.0823867
  65.2232830  61.1790585  95.4018014  66.3405025  58.6344967 100.6609788
  65.8369820  58.5975102  99.8477593  66.6335632  59.5437710 100.7206445
  62.5847911  58.7183697  99.6675970  63.4500907  58.5226506  99.3081859
  62.6525420  58.4894049 100.5945327  72.1993041  69.0081278  93.1386163
  71.4222484  68.6692437  92.6941325  72.8784522  69.0133901  92.4641128
  67.0145070  64.1276015  93.0292771  66.7095206  64.4422164  93.8802914
  67.9675512  64.2057435  93.0720104  65.4591502  70.2866239  94.6785725
  64.9312864  69.5518998  94.3658963  64.9579005  71.0640915  94.4325693
  70.4384348  68.4815259  99.7952771  69.7808023  69.1714520  99.8832900
  71.2424747  68.8711691 100.1386758  60.1910230  60.9485905  97.0392337
  60.7653982  60.7261086  96.3065530  60.7781212  61.0174599  97.7920938
  69.2489807  66.8359632  97.8456713  69.7621689  67.4689624  98.3478423
  69.8991031  66.2360827  97.4800073  60.5179817  62.9790366  91.0588222
  59.6817129  63.3165052  91.3797497  60.3784586  62.8439346  90.1215359
  62.4932897  57.8227154  95.7667406  61.8397310  57.5076171  95.1424021
  62.4513372  57.2002894  96.4927229  63.6044102  68.1046449  87.6820698
  62.6971164  67.8735702  87.8811847  64.1015134  67.3084068  87.8694680
  66.5112181  76.8143956  90.6017384  65.8373880  77.1175653  91.2102342
  66.8978003  77.6173036  90.2522841  65.7270638  64.3109087 100.0915054
  64.8093199  64.5324034  99.9336742  66.1430781  64.3855398  99.2326761
  66.5105686  65.7100503  95.2217734  67.2577504  66.2221900  94.9124856
  66.7797275  65.3884556  96.0822127  64.7832336  68.2059044  92.2044688
  63.8743555  67.9218076  92.3017158  64.8127419  68.6258122  91.3447995
  70.0151603  71.8165633  95.9735856  69.5613930  70.9756543  96.0301046
  69.3845570  72.4527032  96.3110636  68.9584523  62.7457619  97.2036523
  68.2207279  62.2335005  97.5346766  69.2111296  62.3058001  96.3919800
  68.4584542  73.6542130  96.9085674  68.7507517  74.2147187  96.1898040
  68.9683163  73.9470691  97.6638833  69.0596150  55.5233871  97.7978292
  69.3655027  54.6631235  97.5104208  69.7848755  56.1151491  97.5977286
  55.3520506  65.9264558  96.1859890  55.1544906  65.3333919  95.4610957
  54.7967170  65.6216768  96.9035829  63.3317230  65.8187664  98.3054484
  63.3865840  64.8661501  98.2296960  62.5208432  65.9747103  98.7895782
  64.4808423  69.7467787  89.5432767  64.0427853  69.0303646  89.0838404
  65.2218864  69.9743902  88.9817858  61.2709590  64.4364724  96.0644862
  60.4577455  64.7358895  96.4710055  61.7668584  64.0420413  96.7819345
  63.4218168  74.4322481  97.9979127  63.3794346  74.6583327  97.0687659
  64.3380866  74.1985856  98.1464928  66.8683801  64.9006548 104.8959756
  67.2233189  65.1278022 105.7554222  67.5155933  65.2324925 104.2737012
  72.5981538  68.0224984  95.6009085  72.4599437  68.2126580  94.6730275
  72.2417757  68.7844367  96.0577136  60.7623664  62.0083080 101.6806097
  61.4023044  61.8671839 100.9829061  59.9301195  61.7217593 101.3044699
  72.6250918  70.0901511 100.6120357  73.0587425  69.9976800 101.4603411
  73.3382499  70.0659012  99.9740373  61.5383968  71.3085510  97.7941090
  62.3324567  70.8135830  97.5923665  60.8275661  70.7803373  97.4308795
  66.3578813  73.6903606 102.1453457  66.4115835  74.2594542 102.9131173
  65.4893594  73.8605491 101.7807495  57.8466732  65.4528592  93.8700843
  56.9164320  65.3913047  94.0870805  57.9424204  64.9304544  93.0737484
  57.7652281  61.9783405  96.4579084  58.0259098  62.8928738  96.3488245
  58.5869453  61.5107847  96.6075697  59.2377206  63.3921162 103.6277909
  59.9100260  63.1838524 102.9790558  58.4106993  63.1943248 103.1883141
  73.4866467  70.1325212 103.1453242  73.6802358  71.0371023 103.3912517
  73.3867086  69.6732631 103.9791827  65.1402778  60.0183103 105.6443570
  64.4930693  60.7173052 105.5508046  65.9103794  60.4519247 106.0119818
  68.5481576  70.2831955 108.7194123  68.3967083  70.0542506 107.8024207
  68.5386256  71.2402556 108.7325468  65.3166913  67.8563868 103.7040389
  66.2458973  68.0075027 103.5309357  64.8957943  67.9447888 102.8489036
  64.1155244  71.8814532 101.4738927  63.9766330  71.5133316 102.3464865
  63.3269841  72.3962171 101.3022885  64.7103396  76.9823628  92.8164463
  64.8855152  76.5111672  93.6310086  64.0236184  77.6089395  93.0445724
  65.6660459  71.2596135  98.8627765  65.3310292  71.2196905  99.7585415
  65.1664405  70.5940851  98.3898175  59.6404703  66.6663765 104.3880346
  59.5024501  65.9344004 104.9891885  60.5509627  66.5772665 104.1064534
  68.6019651  68.6052169  89.1364824  67.9848822  67.8798997  89.0397877
  68.1336140  69.3661529  88.7931899  62.2687004  66.3783724 103.8764026
  62.9786623  65.7376916 103.8350644  62.2256312  66.6296619 104.7990206
  70.2573783  73.3151077 106.7970605  70.1986329  72.6310297 106.1301188
  70.6593301  74.0570067 106.3451231  60.9815938  63.3648942 105.6959665
  60.4453295  62.9139680 106.3481261  60.3932647  63.4994851 104.9530129
  59.2764482  80.1312991  99.5904324  59.5161080  80.7631515 100.2683342
  58.4333678  79.7801031  99.8769683  60.3918197  62.8237593  88.2586129
  59.5147663  62.7026394  87.8948375  60.8675950  62.0323672  88.0065017
  70.2591190  71.2790661 105.0284584  69.3717969  70.9416583 105.1510983
  70.8289741  70.5473693 105.2653350  51.9120337  67.6114753  98.3527636
  52.5991377  67.2976483  97.7648651  51.7568466  68.5156118  98.0794887
  56.7155059  62.5004950 102.7812659  56.6313248  61.8930619 102.0463069
  55.8937766  62.9913968 102.7822156  63.7892343  75.9392114 101.9945828
  63.7162515  76.7447085 102.5065132  63.3469737  76.1384079 101.1693849
  63.5782123  75.1763884  95.5048649  62.7949645  75.7185564  95.5986874
  64.2774868  75.6937863  95.9042890  66.8878773  60.9858513  98.1482855
  67.3847473  60.2328475  97.8283925  66.1165755  61.0222830  97.5826064
  74.7408531  66.6898879  99.7901146  74.7298407  67.5723594  99.4195079
  73.8725910  66.3370429  99.5955683  66.2491027  75.8378948 104.1503986
  66.9618999  76.4726412 104.0779888  65.7581056  75.9342814 103.3343988
  67.9708554  69.7430200  95.7221278  67.0364833  69.8631663  95.5525982
  68.1485222  68.8402667  95.4581288  63.4713742  63.1275896  97.8754539
  63.1011529  62.5746936  98.5635445  63.9672834  62.5234030  97.3229539
  71.3581105  65.5847520  96.2571312  71.8241557  66.4175511  96.1831615
  71.8088606  65.1192501  96.9616571  61.3002940  73.5873391 104.9709557
  62.0012400  74.2209874 105.1238951  60.8298055  73.9288123 104.2105196
  69.4257336  71.9291341  93.2557464  69.7017180  71.8147935  94.1651338
  68.5561835  71.5308826  93.2169637  69.3297768  57.9528107 100.2962213
  68.4160848  58.1832333 100.4644420  69.7590869  58.0366551 101.1476246
  69.1004226  66.1417999 102.7962107  68.4475677  66.3893906 102.1414560
  69.4784606  65.3282137 102.4624585  66.0611400  76.1777692  96.8990278
  66.2433795  75.3599348  97.3618030  66.8844386  76.3945384  96.4615168
  66.3953566  75.1045877  94.1605326  66.9241332  74.5938331  93.5475488
  66.6581785  74.7888407  95.0250859  65.1491799  66.8837810 109.2828145
  64.4732436  66.7831939 109.9530520  65.9719433  66.7277023 109.7464142
  56.8970659  73.1209746 101.9040660  57.4824095  72.3753434 102.0368564
  56.6995497  73.4313703 102.7877324  59.7509314  76.1560994  96.9203102
  59.0819689  76.6407121  96.4367142  59.6122183  76.4030214  97.8346481
  51.4888313  65.6915346 100.6245103  51.5272413  65.1578937 101.4182221
  50.9828606  65.1650552 100.0056080  63.8914582  78.1904737 103.5185761
  64.4432890  78.3536359 104.2834846  64.2320776  78.7809175 102.8465785
  58.8679076  60.5379887 104.1207645  58.9320402  61.3994718 103.7085043
  58.8046196  59.9253889 103.3880004  58.3431348  62.6103019 107.7680679
  58.9703387  62.2280097 108.3818204  57.4859267  62.3917221 108.1336372
  68.7425457  73.0165995 109.3734415  69.2865361  73.6295953 108.8789370
  68.1612302  73.5745573 109.8901428  55.1196891  64.4179449  93.6999034
  55.4150332  63.5090127  93.6466088  54.2184927  64.3967188  93.3780037
  67.0282970  76.1386713 100.5049443  66.9034109  75.3376452  99.9960388
  67.6862061  76.6332906 100.0163413  58.6491138  62.4935445  99.6826583
  57.9277724  63.1071413  99.5434056  59.4384394  63.0293210  99.6043229
  69.0917878  73.9395733 102.1328993  68.1448214  73.8201084 102.0607319
  69.4400651  73.0518231 102.2155254  61.4517451  59.8289872 105.9567235
  61.9751853  60.0752168 106.7193544  61.2329785  60.6609906 105.5370372
  56.8484732  62.0993546  93.8238359  56.5197439  61.2190925  93.6413465
  57.2024103  62.0441215  94.7114749  66.0964311  73.7348449  98.3333345
  65.9489274  72.8065156  98.5140915  66.9217805  73.7568540  97.8490420
  59.9626556  62.3866516  94.1913837  60.3022628  62.9152437  93.4692445
  60.4098676  62.7246922  94.9672404  69.6998433  74.5577008  99.4198218
  70.6244981  74.3519869  99.2822669  69.5313737  74.3093409 100.3287559
  62.6569996  60.7703567 103.6416905  62.3166817  59.9711380 104.0437585
  61.9509003  61.0705278 103.0693738  63.3086468  57.8552879 102.0944228
  64.1312538  57.3813357 101.9723119  63.5524532  58.6343363 102.5942915
  61.9494703  60.8841138  92.3907130  62.6703065  61.2622390  91.8870847
  61.3260007  61.6030014  92.4942108  66.0925826  61.5886287  93.3265462
  66.3089440  62.4710924  93.0254290  65.6119893  61.1972500  92.5971104
  60.8325047  64.5472000  99.9036207  60.6869628  64.8612303 100.7960488
  60.3550251  65.1656900  99.3507105  62.6921430  61.5374548  99.9517096
  62.6782999  60.6415641  99.6149394  63.4093858  61.5445212 100.5855382
  64.5447561  61.9711888 101.9970224  64.2865338  62.8928959 101.9954554
  64.0132601  61.5742323 102.6870688  69.4893749  75.0762675  94.7760309
  69.6630627  74.5109098  94.0234162  69.9822641  75.8763570  94.5939799
  55.3070709  67.0877344 102.8423868  54.7624177  67.8637152 102.9744142
  56.1850059  67.4348149 102.6842989  62.0958326  60.4188928  95.2204667
  62.2174237  59.4905574  95.4195554  61.8060368  60.4327614  94.3082982
  64.9649516  58.1043838  98.3571386  64.9871213  58.1683172  97.4023366
  65.3817575  57.2648347  98.5511893  75.3433141  67.8399098  96.3950609
  75.7864287  67.0906423  95.9969732  74.4659651  67.8309234  96.0124341
  70.4768922  74.3929440  91.8757207  71.1719826  75.0136132  92.0944522
  70.8192072  73.5424791  92.1509585  56.0936731  66.2147240 105.7354025
  55.3518467  66.3629876 106.3218655  55.7729475  66.4755506 104.8720774
  72.3760345  71.8429145  93.4044538  72.9011669  72.1816418  92.6793858
  72.2882698  70.9076160  93.2207673  64.0380394  75.7563219 105.5334415
  64.3467520  75.5112365 106.4057114  64.8355876  75.9609857 105.0453285
  64.0601006  77.9101128  97.7639791  63.6205996  77.4177507  98.4572648
  64.8109123  77.3674096  97.5231867  56.5393345  74.1012669  97.7664420
  57.3651365  73.8016441  97.3863063  56.1887397  73.3320292  98.2154208
  61.5074878  73.4539137  99.8362093  60.8854887  72.7909842  99.5364321
  62.1779745  73.4800269  99.1535741  54.7401950  72.0198996  98.7253353
  53.9033858  71.5921170  98.5437354  54.7125595  72.2131439  99.6624144
  61.5799405  61.9320925 109.4294599  61.6287561  62.8083048 109.0472369
  62.1221920  61.3898318 108.8566242  72.0654251  72.4762049 108.7095736
  71.2749795  72.4586188 108.1700236  71.8287606  73.0150342 109.4644773
  72.1852126  69.3254515 106.0228465  72.2350131  69.1604522 106.9643988
  72.0766049  68.4581774 105.6326346  61.0688385  72.0043061  93.3120554
  61.2176505  72.6878525  92.6587226  61.8754828  71.9848151  93.8270009
  69.4755888  65.3085443 107.3387771  70.3765751  65.1691908 107.0471769
  69.5503863  65.4739898 108.2785949  63.8098694  62.6852298 106.1840958
  62.9402003  62.9785864 105.9123546  64.0458174  63.2692743 106.9048221
  73.6870323  71.7451457 106.2670486  73.3955131  72.1081437 107.1033947
  73.0742454  71.0318465 106.0883818  74.8866005  69.3104336  98.7873057
  75.7212897  69.7494140  98.9510617  75.0225134  68.8342990  97.9681302
  71.9357511  66.8684071 104.7350544  72.4111633  67.0611717 103.9269396
  71.0123077  66.9243257 104.4893928  58.8241018  68.0308238  94.3181623
  58.5787060  67.1270568  94.5161833  58.9936932  68.0325389  93.3761101
  66.5137728  58.9031915 103.7006378  67.0319672  59.6392942 103.3752867
  66.1592860  59.2095908 104.5353137  58.0936665  63.7636596  91.8167784
  57.4005910  63.8380951  91.1607820  57.8488417  62.9996940  92.3389301
  66.7650322  55.3232197  99.2207275  67.0452076  54.6555386  99.8467701
  67.5500929  55.5161293  98.7081939  64.5683790  74.4991191  90.7832301
  63.9957757  75.1181378  90.3302773  65.1416584  75.0490553  91.3172223
  70.6359180  63.7449831 102.9678850  71.5876603  63.8447929 102.9891074
  70.4662631  62.9528100 103.4776934  68.6573560  60.8305414 103.1538251
  68.0623492  61.1110427 102.4584739  68.3723256  61.3199315 103.9254992
  67.7881050  74.7828341  91.9140883  68.7211723  74.7173903  92.1173759
  67.7004263  75.6184608  91.4555416  70.4169067  74.0994212  88.8744831
  70.3382698  73.7654075  89.7680589  71.2378734  74.5915980  88.8736303
  73.1147258  66.9655951 102.0821150  73.0823578  66.0271952 102.2680833
  73.7247882  67.0439988 101.3486974  64.9530589  65.8352004  88.1248354
  65.8989694  65.7058212  88.1936772  64.5744834  65.0966666  88.6017782
  73.2641746  63.7566994 102.1279433  72.7480795  62.9725451 101.9409362
  74.1481695  63.4285711 102.2925952  70.9252473  57.5008010  98.0875245
  70.7277294  57.1923098  98.9718577  71.5352179  58.2269649  98.2173175
  78.9323808  68.0271958 101.2227186  79.6627196  67.7657246 101.7834890
  78.3230753  67.2900680 101.2629254  77.0139105  66.1679820 101.8201638
  76.2872269  66.0335785 101.2118129  76.5986392  66.4756649 102.6258356
  64.8369281  69.8869750 109.5849011  65.7572291  70.0648349 109.7789057
  64.8018864  68.9425795 109.4328710  63.1373506  63.7601980  88.0603239
  62.2304961  63.4635093  88.1365952  63.4149487  63.4631798  87.1937525
  54.0551446  65.0808344  98.5102285  53.7354231  64.2273652  98.2176659
  53.5084875  65.2956922  99.2660253  57.8331354  67.7970785 102.2271792
  58.0517364  68.7287893 102.2459826  58.2457128  67.4378759 103.0126596
  64.7535572  58.3038870  94.2147480  63.9436300  57.9585955  94.5902726
  65.4419989  57.9946414  94.8035092  66.6826120  57.3816917  95.8371777
  67.2357159  57.8012370  96.4961800  66.9196206  56.4552665  95.8794733
  62.7059219  63.3703990 111.6174541  62.6055946  64.3198347 111.5486632
  62.4880761  63.0422229 110.7450611  61.9072291  60.6188916  88.2015218
  62.7691455  60.9443814  88.4611035  62.0922635  59.8320411  87.6888284
  53.9239706  68.7011255 100.4795407  53.2303178  68.2865208  99.9665361
  54.6712697  68.7431792  99.8828826  70.0604927  59.4917442  95.3450441
  69.4803596  60.1502246  94.9628493  69.7940860  58.6694787  94.9337858
  68.5108493  58.8922500  97.5471761  69.0108272  59.0039034  96.7386080
  69.1544101  58.5883553  98.1872570  62.5690489  66.8001129 110.4339602
  62.0857571  67.6001489 110.6403491  62.6551428  66.8109074 109.4807046
  55.8376449  68.6329509  98.3561422  55.8147137  68.7317196  97.4043305
  56.1477085  69.4794660  98.6778588  58.4963827  70.6905664 102.4708036
  59.4507080  70.6589606 102.4037968  58.2976350  70.2296288 103.2858262
  59.0863209  69.2606780 105.0378834  59.9056098  69.7550859 105.0613671
  59.3600017  68.3438748 105.0096401  68.8429805  61.6517532  94.4006789
  67.9555660  61.9367183  94.1826984  69.2583794  61.4911296  93.5534066
  72.1944341  61.6764053  98.1161128  72.9704731  62.1660506  98.3885745
  71.4692475  62.1022108  98.5732998  74.6316900  62.3891673  99.1735069
  75.2261391  62.1487409  98.4628377  74.7043484  61.6698803  99.8008605
  56.8514056  76.2325284  99.4878234  56.7168523  75.4725684  98.9216232
  56.4346118  76.9566183  99.0207023  67.9873019  71.4162207  88.4954809
  68.6908869  71.6212210  89.1112465  67.2635667  71.9838969  88.7603893
  68.8170829  67.1672068  94.6157079  68.7606030  67.6240620  93.7764712
  69.3699171  66.4062753  94.4379922  72.6275635  62.9561800  95.4407199
  72.3712569  62.5558436  96.2715407  72.0028503  63.6705594  95.3157338
  76.9387973  65.6957873  97.9478490  76.3787531  65.7651063  98.7210052
  76.3331476  65.5198858  97.2277987  60.0083181  77.1294601  99.6996677
  59.8915566  78.0740033  99.5975367  59.1875628  76.8268162 100.0882476
  69.8959716  71.8544736  90.5453269  70.7305320  71.4225935  90.3630744
  69.7344059  71.6826750  91.4730164  69.5505608  68.3576850  91.9109609
  69.4954412  68.1921121  90.9698053  68.9251663  69.0652882  92.0671798
  54.3398123  63.5944914 105.7371031  54.9856987  63.0843868 106.2258256
  54.1315274  64.3313596 106.3114456  66.8651515  70.6625761 111.2363171
  67.7342675  70.8366414 110.8749806  66.3858267  71.4820178 111.1138901
  62.8601734  57.8584959  91.4894927  62.8480403  58.8026798  91.6463198
  63.7525155  57.6755104  91.1954388  61.0337696  77.7822862 102.9152605
  61.9364942  77.8146473 103.2319100  60.8075066  76.8523313 102.9298941
  62.7891298  76.5353849  99.5762684  61.8386929  76.5355711  99.4627056
  63.0923784  75.7886584  99.0598718  66.6753853  54.4527735  95.7440864
  65.9086249  53.8986222  95.8897546  67.0864558  54.5249604  96.6055015
  58.6795614  60.7412531 109.8346045  59.5427076  60.3849336 110.0449370
  58.1061025  60.4026426 110.5221449  78.5243991  82.3714387 100.6408446
  79.1622401  82.2521135  99.9371786  78.4064834  83.3195231 100.6996398
  75.3333697  82.3241815 100.5769971  74.9952209  82.2082880  99.6890506
  76.2023466  81.9232981 100.5570977  71.1920513  84.1777292  96.5666862
  70.6285378  84.0867229  95.7983149  71.0772908  83.3577196  97.0469354
  75.8153480  83.4776667 106.5356176  75.8042121  83.0829465 105.6636680
  75.9774120  82.7442740 107.1289948  68.7384945  85.6728483  99.4051082
  69.5306237  85.3319308  98.9897381  68.9781595  85.7823459 100.3253235
  76.7720072  87.8448260  91.8781327  76.1208051  88.4302340  91.4915340
  77.5664435  88.3754454  91.9376364  70.6975699  84.9337397  92.2768461
  71.4706575  84.3866384  92.1381337  71.0501098  85.7981646  92.4882922
  72.5360741  86.2613779 105.4835360  72.2450607  87.1659410 105.3682027
  73.1717726  86.3030307 106.1979430  73.4616948  83.6390628 102.0736720
  74.0580521  83.4146650 101.3593683  73.5191920  82.8975373 102.6762168
  73.0341977  81.0930063  89.9086911  73.2867497  80.5711584  89.1470374
  72.0966536  80.9296208  90.0113594  78.0785260  80.0965841  97.7161654
  78.8648349  79.6785264  97.3652071  78.3423964  81.0011933  97.8843302
  78.2495337  85.5338692  92.4150311  77.6141170  85.6073318  93.1271216
  77.9192743  86.1232290  91.7369390  83.4793687  80.0341074  98.6194633
  84.2118859  79.4640291  98.8532462  82.7233042  79.6462675  99.0601138
  72.7538265  82.9958169  92.1111286  72.6374524  82.3203072  92.7792370
  72.8640525  82.5090543  91.2943439  75.0969806  82.4568316  95.8157975
  74.7328014  81.9298937  96.5270897  75.9536922  82.0666785  95.6424460
  81.0019107  73.7462649 103.0789241  80.6702432  74.6158059 102.8550456
  80.4064720  73.4298933 103.7583272  74.7375293  77.4858216  90.8119324
  74.9049696  78.3538452  91.1789795  74.5472462  77.6485497  89.8880613
  77.4950627  85.9475195 102.4785154  77.1951350  86.8500233 102.3700961
  77.1501686  85.6807378 103.3306307  70.9463108  82.3988991  98.5121858
  70.0213604  82.2665205  98.7199550  71.1947521  83.1783211  99.0091801
  80.8947770  78.4657735 100.1582591  79.9864648  78.3973143  99.8641352
  80.8435366  78.9429680 100.9864417  74.7164514  79.9415873  91.7965990
  74.5964139  80.3872924  92.6351471  74.0217103  80.2901191  91.2379529
  68.3071919  82.0422265  99.3465647  68.4364300  82.2956744 100.2605059
  67.6269370  82.6349973  99.0270302  72.4771406  92.7119515  95.4456122
  72.3995436  93.6627340  95.5244602  71.8733050  92.3665387  96.1031048
  74.9688636  79.8847380 108.1017489  74.1921970  80.4441300 108.0920353
  75.6079199  80.3704163 108.6232359  82.7609417  76.6674173 101.9360465
  82.1183797  76.9606706 101.2900260  82.2564345  76.5527093 102.7413662
  80.4149580  80.4137346  92.6246324  81.3267437  80.6464733  92.4494022
  79.9059227  80.9974390  92.0621403  73.2235008  82.6932834 107.6635456
  73.9649693  83.2317878 107.3870279  72.5171994  83.3199122 107.8207007
  78.6990348  84.8361974 106.2607617  79.1073704  84.3944385 105.5162249
  77.9767610  84.2614602 106.5141810  75.0521418  79.7734581 103.6341174
  75.8982613  80.1973994 103.7775823  74.9920056  79.1168205 104.3279737
  79.0219163  85.3963165 100.0159906  78.3928025  85.5608879  99.3135974
  78.6344825  85.8104774 100.7870870  82.9008395  86.3317603  97.3704270
  82.2159433  86.7116504  96.8201303  82.9852244  86.9412929  98.1036217
  78.2020863  77.4338949 105.2922348  77.9581795  78.1881010 104.7556623
  78.4780794  77.8124297 106.1269595  80.1559326  83.9777562 103.9699613
  80.3676221  84.6209322 103.2933994  80.1089074  83.1439878 103.5021543
  77.7585555  76.5895382 100.8736185  76.8970034  76.8876636 101.1652923
  77.7847990  76.8065781  99.9417218  74.5747125  85.1337573  97.2809991
  75.0385470  85.4125276  96.4914613  74.3103923  84.2321017  97.0983082
  71.4671206  84.6809054 100.2189754  72.0372563  85.1096323  99.5807239
  72.0579317  84.3991639 100.9173940  73.5116011  81.2560725  94.0899556
  74.2140054  81.7081769  94.5573482  73.1796639  80.6144544  94.7179449
  71.9596372  79.8472482 108.4650766  71.3295033  80.5288763 108.6986162
  71.8532460  79.7355563 107.5203904  67.2541345  79.5144278  99.3916690
  66.4640399  79.7701806  98.9156800  67.7452592  80.3292616  99.4968730
  81.2705154  86.8549517 102.1421971  82.0922598  86.4529704 101.8604652
  81.2667557  86.7517751 103.0938086  69.2056090  79.8788857  96.3500166
  68.4087253  79.9907551  96.8683662  68.9781682  80.2175509  95.4841057
  75.0361758  86.4033560 104.2982681  75.1006190  86.8653968 105.1340853
  74.3272681  85.7730925 104.4264991  65.5379048  79.7674768 101.8231680
  65.7887086  80.6521778 102.0889256  66.0738596  79.5879370 101.0506772
  89.3611147  83.1988266  98.4906942  88.6074856  82.6295664  98.3350946
  89.4958688  83.1650930  99.4377577  74.7509775  88.0701668  94.1661661
  74.6155450  88.9153204  94.5946509  75.2919588  88.2720945  93.4027595
  71.2377115  74.1493248 110.8276017  70.8444060  73.5959446 111.5023661
  72.0543255  74.4603826 111.2182534  68.2039173  85.5877106  94.7389586
  68.7163693  86.3820356  94.8895151  68.8561885  84.8903396  94.6723188
  70.0134057  88.7042862  96.8212340  70.1900686  89.6260827  96.6333324
  70.8090891  88.3901281  97.2506719  74.1545076  75.5651127 108.4196273
  74.8954789  76.1658280 108.3400736  74.3862999  74.8228765 107.8614316
  69.2986414  80.7507494 106.6974503  69.1839929  79.8492751 106.9981602
  68.4430932  80.9971191 106.3459319  71.1365373  90.2221036 102.8222682
  71.6872798  90.0938099 102.0499676  70.2976849  90.5215925 102.4717575
  78.4759490  88.9728034 106.3243405  78.4577965  89.7936915 105.8323674
  79.3979410  88.8482109 106.5493546  74.9332544  86.4872164 107.1666913
  75.4660881  85.7260452 106.9366221  74.4046625  86.1945816 107.9091068
  78.1002239  71.5932230 102.6960555  77.7566508  72.4833871 102.6199665
  78.4681201  71.4033887 101.8330140  66.1688089  83.9165760  95.5149157
  67.0063311  84.3262769  95.2982865  66.3466357  82.9765202  95.4849351
  78.0652522  81.5840841  91.2032990  77.5499145  82.3545445  91.4421377
  77.7929830  80.9105977  91.8266051  75.6499633  76.4290542  96.2618228
  74.7941229  76.0397392  96.0823867  76.0626584  76.5082502  95.4018014
  77.1798779  73.9636885 100.6609788  76.6763575  73.9267020  99.8477593
  77.4729386  74.8729628 100.7206445  73.4241665  74.0475615  99.6675970
  74.2894662  73.8518423  99.3081859  73.4919174  73.8185966 100.5945327
  83.0386796  84.3373195  93.1386163  82.2616238  83.9984355  92.6941325
  83.7178277  84.3425819  92.4641128  77.8538825  79.4567933  93.0292771
  77.5488960  79.7714082  93.8802914  78.8069267  79.5349353  93.0720104
  76.2985257  85.6158156  94.6785725  75.7706618  84.8810916  94.3658963
  75.7972759  86.3932833  94.4325693  81.2778103  83.8107177  99.7952771
  80.6201777  84.5006438  99.8832900  82.0818502  84.2003609 100.1386758
  71.0303984  76.2777823  97.0392337  71.6047736  76.0553004  96.3065530
  71.6174967  76.3466517  97.7920938  80.0883561  82.1651549  97.8456713
  80.6015443  82.7981541  98.3478423  80.7384785  81.5652745  97.4800073
  71.3573571  78.3082284  91.0588222  70.5210884  78.6456970  91.3797497
  71.2178341  78.1731263  90.1215359  73.3326652  73.1519071  95.7667406
  72.6791064  72.8368089  95.1424021  73.2907126  72.5294812  96.4927229
  74.4437857  83.4338366  87.6820698  73.5364918  83.2027620  87.8811847
  74.9408889  82.6375986  87.8694680  77.3505936  92.1435874  90.6017384
  76.6767634  92.4467570  91.2102342  77.7371758  92.9464954  90.2522841
  76.5664392  79.6401005 100.0915054  75.6486954  79.8615952  99.9336742
  76.9824536  79.7147315  99.2326761  77.3499440  81.0392421  95.2217734
  78.0971259  81.5513818  94.9124856  77.6191030  80.7176473  96.0822127
  75.6226090  83.5350961  92.2044688  74.7137309  83.2509994  92.3017158
  75.6521174  83.9550040  91.3447995  80.8545358  87.1457551  95.9735856
  80.4007685  86.3048461  96.0301046  80.2239324  87.7818949  96.3110636
  79.7978277  78.0749537  97.2036523  79.0601034  77.5626923  97.5346766
  80.0505051  77.6349918  96.3919800  79.2978297  88.9834048  96.9085674
  79.5901271  89.5439105  96.1898040  79.8076917  89.2762609  97.6638833
  79.8989904  70.8525789  97.7978292  80.2048781  69.9923152  97.5104208
  80.6242509  71.4443409  97.5977286  66.1914261  81.2556475  96.1859890
  65.9938660  80.6625836  95.4610957  65.6360925  80.9508686  96.9035829
  74.1710984  81.1479582  98.3054484  74.2259594  80.1953418  98.2296960
  73.3602186  81.3039021  98.7895782  75.3202178  85.0759705  89.5432767
  74.8821608  84.3595564  89.0838404  76.0612619  85.3035820  88.9817858
  72.1103344  79.7656642  96.0644862  71.2971210  80.0650812  96.4710055
  72.6062338  79.3712330  96.7819345  74.2611922  89.7614399  97.9979127
  74.2188101  89.9875245  97.0687659  75.1774621  89.5277773  98.1464928
  77.7077556  80.2298466 104.8959756  78.0626944  80.4569939 105.7554222
  78.3549687  80.5616843 104.2737012  83.4375293  83.3516902  95.6009085
  83.2993191  83.5418498  94.6730275  83.0811512  84.1136285  96.0577136
  71.6017419  77.3374997 101.6806097  72.2416798  77.1963756 100.9829061
  70.7694949  77.0509511 101.3044699  83.4644672  85.4193429 100.6120357
  83.8981179  85.3268718 101.4603411  84.1776253  85.3950930  99.9740373
  72.3777723  86.6377428  97.7941090  73.1718321  86.1427748  97.5923665
  71.6669415  86.1095291  97.4308795  77.1972567  89.0195523 102.1453457
  77.2509590  89.5886459 102.9131173  76.3287349  89.1897408 101.7807495
  68.6860486  80.7820509  93.8700843  67.7558074  80.7204965  94.0870805
  68.7817958  80.2596462  93.0737484  68.6046035  77.3075322  96.4579084
  68.8652853  78.2220655  96.3488245  69.4263208  76.8399765  96.6075697
  70.0770961  78.7213079 103.6277909  70.7494014  78.5130442 102.9790558
  69.2500747  78.5235165 103.1883141  84.3260222  85.4617130 103.1453242
  84.5196112  86.3662940 103.3912517  84.2260840  85.0024549 103.9791827
  75.9796533  75.3475020 105.6443570  75.3324448  76.0464970 105.5508046
  76.7497548  75.7811164 106.0119818  76.1560667  83.1855785 103.7040389
  77.0852727  83.3366945 103.5309357  75.7351697  83.2739806 102.8489036
  74.9548999  87.2106450 101.4738927  74.8160084  86.8425234 102.3464865
  74.1663595  87.7254089 101.3022885  75.5497151  92.3115546  92.8164463
  75.7248906  91.8403589  93.6310086  74.8629939  92.9381312  93.0445724
  76.5054214  86.5888052  98.8627765  76.1704047  86.5488822  99.7585415
  76.0058160  85.9232768  98.3898175  70.4798458  81.9955682 104.3880346
  70.3418256  81.2635921 104.9891885  71.3903381  81.9064582 104.1064534
  79.4413406  83.9344087  89.1364824  78.8242576  83.2090915  89.0397877
  78.9729894  84.6953447  88.7931899  73.1080759  81.7075642 103.8764026
  73.8180377  81.0668834 103.8350644  73.0650067  81.9588537 104.7990206
  71.8209693  78.6940860 105.6959665  71.2847050  78.2431598 106.3481261
  71.2326401  78.8286768 104.9530129  70.1158236  95.4604909  99.5904324
  70.3554834  96.0923433 100.2683342  69.2727433  95.1092949  99.8769683
  71.2311952  78.1529511  88.2586129  70.3541418  78.0318312  87.8948375
  71.7069705  77.3615589  88.0065017  81.0984945  86.6082579 105.0284584
  80.2111723  86.2708501 105.1510983  81.6683496  85.8765610 105.2653350
  62.7514092  82.9406671  98.3527636  63.4385131  82.6268401  97.7648651
  62.5962220  83.8448035  98.0794887  67.5548814  77.8296867 102.7812659
  67.4707003  77.2222537 102.0463069  66.7331520  78.3205886 102.7822156
  74.6286098  91.2684031 101.9945828  74.5556269  92.0739003 102.5065132
  74.1863491  91.4675997 101.1693849  74.4175878  90.5055801  95.5048649
  73.6343399  91.0477482  95.5986874  75.1168623  91.0229781  95.9042890
  77.7272528  76.3150431  98.1482855  78.2241227  75.5620393  97.8283925
  76.9559509  76.3514747  97.5826064  85.5802285  82.0190796  99.7901146
  85.5692161  82.9015512  99.4195079  84.7119664  81.6662347  99.5955683
  77.0884781  91.1670865 104.1503986  77.8012754  91.8018330 104.0779888
  76.5974810  91.2634731 103.3343988  78.8102308  85.0722118  95.7221278
  77.8758587  85.1923580  95.5525982  78.9878977  84.1694585  95.4581288
  74.3107496  78.4567814  97.8754539  73.9405284  77.9038854  98.5635445
  74.8066589  77.8525947  97.3229539  82.1974860  80.9139437  96.2571312
  82.6635312  81.7467429  96.1831615  82.6482360  80.4484419  96.9616571
  72.1396695  88.9165309 104.9709557  72.8406154  89.5501792 105.1238951
  71.6691810  89.2580040 104.2105196  80.2651091  87.2583259  93.2557464
  80.5410935  87.1439853  94.1651338  79.3955590  86.8600743  93.2169637
  80.1691522  73.2820024 100.2962213  79.2554602  73.5124251 100.4644420
  80.5984624  73.3658468 101.1476246  79.9397981  81.4709916 102.7962107
  79.2869431  81.7185824 102.1414560  80.3178361  80.6574054 102.4624585
  76.9005155  91.5069609  96.8990278  77.0827549  90.6891265  97.3618030
  77.7238141  91.7237302  96.4615168  77.2347320  90.4337795  94.1605326
  77.7635087  89.9230249  93.5475488  77.4975540  90.1180325  95.0250859
  75.9885554  82.2129727 109.2828145  75.3126191  82.1123857 109.9530520
  76.8113188  82.0568941 109.7464142  67.7364413  88.4501664 101.9040660
  68.3217850  87.7045352 102.0368564  67.5389251  88.7605621 102.7877324
  70.5903068  91.4852911  96.9203102  69.9213444  91.9699039  96.4367142
  70.4515938  91.7322132  97.8346481  62.3282068  81.0207264 100.6245103
  62.3666167  80.4870855 101.4182221  61.8222361  80.4942470 100.0056080
  74.7308337  93.5196655 103.5185761  75.2826645  93.6828276 104.2834846
  75.0714530  94.1101093 102.8465785  69.7072830  75.8671805 104.1207645
  69.7714157  76.7286635 103.7085043  69.6439950  75.2545806 103.3880004
  69.1825103  77.9394937 107.7680679  69.8097141  77.5572014 108.3818204
  68.3253021  77.7209139 108.1336372  65.9590645  79.7471366  93.6999034
  66.2544086  78.8382045  93.6466088  65.0578681  79.7259106  93.3780037
  77.8676724  91.4678630 100.5049443  77.7427864  90.6668370  99.9960388
  78.5255815  91.9624824 100.0163413  69.4884892  77.8227363  99.6826583
  68.7671478  78.4363330  99.5434056  70.2778148  78.3585128  99.6043229
  79.9311633  89.2687650 102.1328993  78.9841968  89.1493002 102.0607319
  80.2794406  88.3810148 102.2155254  72.2911206  75.1581789 105.9567235
  72.8145608  75.4044086 106.7193544  72.0723539  75.9901824 105.5370372
  67.6878487  77.4285464  93.8238359  67.3591193  76.5482843  93.6413465
  68.0417858  77.3733133  94.7114749  76.9358066  89.0640367  98.3333345
  76.7883028  88.1357074  98.5140915  77.7611559  89.0860457  97.8490420
  70.8020310  77.7158434  94.1913837  71.1416383  78.2444355  93.4692445
  71.2492431  78.0538840  94.9672404  80.5392188  89.8868925  99.4198218
  81.4638735  89.6811787  99.2822669  80.3707491  89.6385326 100.3287559
  73.4963751  76.0995484 103.6416905  73.1560571  75.3003297 104.0437585
  72.7902757  76.3997195 103.0693738  74.1480223  73.1844797 102.0944228
  74.9706292  72.7105275 101.9723119  74.3918286  73.9635281 102.5942915
  72.7888457  76.2133055  92.3907130  73.5096820  76.5914308  91.8870847
  72.1653761  76.9321932  92.4942108  76.9319580  76.9178204  93.3265462
  77.1483195  77.8002842  93.0254290  76.4513647  76.5264418  92.5971104
  71.6718802  79.8763917  99.9036207  71.5263382  80.1904221 100.7960488
  71.1944005  80.4948818  99.3507105  73.5315184  76.8666465  99.9517096
  73.5176753  75.9707559  99.6149394  74.2487612  76.8737129 100.5855382
  75.3841315  77.3003806 101.9970224  75.1259093  78.2220876 101.9954554
  74.8526355  76.9034240 102.6870688  80.3287504  90.4054593  94.7760309
  80.5024381  89.8401015  94.0234162  80.8216395  91.2055488  94.5939799
  66.1464464  82.4169262 102.8423868  65.6017932  83.1929070 102.9744142
  67.0243814  82.7640066 102.6842989  72.9352080  75.7480846  95.2204667
  73.0567992  74.8197492  95.4195554  72.6454123  75.7619532  94.3082982
  75.8043271  73.4335756  98.3571386  75.8264968  73.4975089  97.4023366
  76.2211330  72.5940265  98.5511893  86.1826895  83.1691016  96.3950609
  86.6258041  82.4198341  95.9969732  85.3053405  83.1601152  96.0124341
  81.3162676  89.7221357  91.8757207  82.0113581  90.3428050  92.0944522
  81.6585826  88.8716708  92.1509585  66.9330486  81.5439158 105.7354025
  66.1912222  81.6921793 106.3218655  66.6123230  81.8047424 104.8720774
  83.2154099  87.1721063  93.4044538  83.7405424  87.5108335  92.6793858
  83.1276452  86.2368078  93.2207673  74.8774148  91.0855136 105.5334415
  75.1861275  90.8404283 106.4057114  75.6749630  91.2901775 105.0453285
  74.8994760  93.2393046  97.7639791  74.4599751  92.7469425  98.4572648
  75.6502877  92.6966014  97.5231867  67.3787099  89.4304587  97.7664420
  68.2045119  89.1308359  97.3863063  67.0281151  88.6612209  98.2154208
  72.3468632  88.7831055  99.8362093  71.7248642  88.1201760  99.5364321
  73.0173499  88.8092187  99.1535741  65.5795704  87.3490913  98.7253353
  64.7427613  86.9213088  98.5437354  65.5519350  87.5423357  99.6624144
  72.4193160  77.2612843 109.4294599  72.4681315  78.1374966 109.0472369
  72.9615674  76.7190236 108.8566242  83.0245881  84.6546433 106.0228465
  83.0743886  84.4896440 106.9643988  82.9159804  83.7873692 105.6326346
  71.9082139  87.3334978  93.3120554  72.0570260  88.0170443  92.6587226
  72.7148583  87.3140068  93.8270009  80.3149643  80.6377361 107.3387771
  81.2159506  80.4983826 107.0471769  80.3897617  80.8031816 108.2785949
  74.6492448  78.0144215 106.1840958  73.7795758  78.3077782 105.9123546
  74.8851929  78.5984660 106.9048221  85.7259760  84.6396254  98.7873057
  86.5606651  85.0786058  98.9510617  85.8618889  84.1634907  97.9681302
  82.7751266  82.1975989 104.7350544  83.2505387  82.3903635 103.9269396
  81.8516831  82.2535175 104.4893928  69.6634772  83.3600156  94.3181623
  69.4180814  82.4562486  94.5161833  69.8330687  83.3617306  93.3761101
  77.3531482  74.2323832 103.7006378  77.8713426  74.9684859 103.3752867
  76.9986615  74.5387826 104.5353137  68.9330420  79.0928514  91.8167784
  68.2399665  79.1672869  91.1607820  68.6882172  78.3288857  92.3389301
  77.6044076  70.6524115  99.2207275  77.8845830  69.9847304  99.8467701
  78.3894683  70.8453211  98.7081939  75.4077545  89.8283109  90.7832301
  74.8351512  90.4473296  90.3302773  75.9810338  90.3782471  91.3172223
  81.4752935  79.0741749 102.9678850  82.4270358  79.1739847 102.9891074
  81.3056385  78.2820018 103.4776934  79.4967314  76.1597332 103.1538251
  78.9017246  76.4402345 102.4584739  79.2117011  76.6491233 103.9254992
  78.6274805  90.1120259  91.9140883  79.5605478  90.0465821  92.1173759
  78.5398017  90.9476526  91.4555416  81.2562821  89.4286129  88.8744831
  81.1776453  89.0945993  89.7680589  82.0772488  89.9207897  88.8736303
  83.9541012  82.2947869 102.0821150  83.9217333  81.3563869 102.2680833
  84.5641636  82.3731905 101.3486974  75.7924343  81.1643922  88.1248354
  76.7383448  81.0350130  88.1936772  75.4138588  80.4258584  88.6017782
  84.1035501  79.0858912 102.1279433  83.5874550  78.3017369 101.9409362
  84.9875449  78.7577629 102.2925952  81.7646228  72.8299928  98.0875245
  81.5671049  72.5215016  98.9718577  82.3745933  73.5561567  98.2173175
  89.7717562  83.3563875 101.2227186  90.5020951  83.0949164 101.7834890
  89.1624508  82.6192597 101.2629254  87.8532859  81.4971738 101.8201638
  87.1266023  81.3627703 101.2118129  87.4380146  81.8048567 102.6258356
  73.9767260  79.0893898  88.0603239  73.0698716  78.7927011  88.1365952
  74.2543241  78.7923716  87.1937525  64.8945201  80.4100261  98.5102285
  64.5747985  79.5565570  98.2176659  64.3478629  80.6248840  99.2660253
  68.6725108  83.1262702 102.2271792  68.8911118  84.0579810 102.2459826
  69.0850882  82.7670677 103.0126596  75.5929326  73.6330788  94.2147480
  74.7830054  73.2877873  94.5902726  76.2813743  73.3238331  94.8035092
  77.5219874  72.7108835  95.8371777  78.0750913  73.1304288  96.4961800
  77.7589961  71.7844583  95.8794733  73.5452974  78.6995908 111.6174541
  73.4449701  79.6490265 111.5486632  73.3274516  78.3714147 110.7450611
  72.7466045  75.9480833  88.2015218  73.6085209  76.2735732  88.4611035
  72.9316389  75.1612329  87.6888284  64.7633461  84.0303173 100.4795407
  64.0696932  83.6157126  99.9665361  65.5106452  84.0723709  99.8828826
  80.8998682  74.8209360  95.3450441  80.3197351  75.4794164  94.9628493
  80.6334614  73.9986704  94.9337858  79.3502248  74.2214417  97.5471761
  79.8502026  74.3330952  96.7386080  79.9937856  73.9175470  98.1872570
  73.4084244  82.1293047 110.4339602  72.9251325  82.9293407 110.6403491
  73.4945183  82.1400992 109.4807046  66.6770203  83.9621427  98.3561422
  66.6540891  84.0609114  97.4043305  66.9870840  84.8086577  98.6778588
  69.3357581  86.0197582 102.4708036  70.2900835  85.9881524 102.4037968
  69.1370105  85.5588205 103.2858262  69.9256963  84.5898698 105.0378834
  70.7449852  85.0842776 105.0613671  70.1993771  83.6730666 105.0096401
  79.6823560  76.9809450  94.4006789  78.7949415  77.2659101  94.1826984
  80.0977549  76.8203213  93.5534066  83.0338096  77.0055971  98.1161128
  83.8098486  77.4952423  98.3885745  82.3086230  77.4314025  98.5732998
  85.4710654  77.7183590  99.1735069  86.0655145  77.4779326  98.4628377
  85.5437238  76.9990721  99.8008605  67.6907810  91.5617201  99.4878234
  67.5562278  90.8017602  98.9216232  67.2739872  92.2858101  99.0207023
  78.8266773  86.7454125  88.4954809  79.5302623  86.9504127  89.1112465
  78.1029422  87.3130887  88.7603893  79.6564583  82.4963986  94.6157079
  79.5999785  82.9532537  93.7764712  80.2092926  81.7354671  94.4379922
  83.4669389  78.2853718  95.4407199  83.2106323  77.8850354  96.2715407
  82.8422257  78.9997512  95.3157338  87.7781727  81.0249791  97.9478490
  87.2181285  81.0942980  98.7210052  87.1725230  80.8490776  97.2277987
  70.8476936  92.4586518  99.6996677  70.7309320  93.4031951  99.5975367
  70.0269382  92.1560080 100.0882476  80.7353470  87.1836654  90.5453269
  81.5699074  86.7517852  90.3630744  80.5737813  87.0118668  91.4730164
  80.3899363  83.6868767  91.9109609  80.3348166  83.5213039  90.9698053
  79.7645418  84.3944800  92.0671798  65.1791878  78.9236832 105.7371031
  65.8250741  78.4135786 106.2258256  64.9709029  79.6605513 106.3114456
  73.6995488  73.1876876  91.4894927  73.6874158  74.1318716  91.6463198
  74.5918910  73.0047022  91.1954388  71.8731450  93.1114780 102.9152605
  72.7758697  93.1438390 103.2319100  71.6468820  92.1815231 102.9298941
  73.6285052  91.8645767  99.5762684  72.6780683  91.8647628  99.4627056
  73.9317538  91.1178501  99.0598718  77.5147608  69.7819653  95.7440864
  76.7480003  69.2278140  95.8897546  77.9258313  69.8541522  96.6055015
  69.5189369  76.0704449 109.8346045  70.3820830  75.7141254 110.0449370
  68.9454779  75.7318344 110.5221449  82.0314268  99.5069210  96.5666862
  81.4679133  99.4159147  95.7983149  81.9166663  98.6869114  97.0469354
  87.6113826 103.1740177  91.8781327  86.9601806 103.7594258  91.4915340
  88.4058189 103.7046372  91.9376364  81.5369453 100.2629314  92.2768461
  82.3100329  99.7158301  92.1381337  81.8894852 101.1273564  92.4882922
  83.8735731  96.4221981  89.9086911  84.1261252  95.9003502  89.1470374
  82.9360290  96.2588126  90.0113594  88.9179014  95.4257759  97.7161654
  89.7042103  95.0077182  97.3652071  89.1817718  96.3303851  97.8843302
  89.0889091 100.8630609  92.4150311  88.4534924 100.9365236  93.1271216
  88.7586498 101.4524208  91.7369390  83.5932020  98.3250086  92.1111286
  83.4768278  97.6494990  92.7792370  83.7034280  97.8382460  91.2943439
  85.9363561  97.7860234  95.8157975  85.5721768  97.2590855  96.5270897
  86.7930677  97.3958703  95.6424460  85.5769048  92.8150133  90.8119324
  85.7443450  93.6830370  91.1789795  85.3866217  92.9777415  89.8880613
  81.7856863  97.7280909  98.5121858  80.8607359  97.5957123  98.7199550
  82.0341276  98.5075128  99.0091801  85.5558269  95.2707791  91.7965990
  85.4357894  95.7164842  92.6351471  84.8610857  95.6193108  91.2379529
  79.1465674  97.3714183  99.3465647  79.2758055  97.6248662 100.2605059
  78.4663125  97.9641891  99.0270302  91.2543335  95.7429264  92.6246324
  92.1661191  95.9756651  92.4494022  90.7452982  96.3266308  92.0621403
  88.5979310  91.9187300 100.8736185  87.7363789  92.2168554 101.1652923
  88.6241744  92.1357699  99.9417218  85.4140879 100.4629491  97.2809991
  85.8779225 100.7417193  96.4914613  85.1497677  99.5612935  97.0983082
  84.3509765  96.5852643  94.0899556  85.0533808  97.0373687  94.5573482
  84.0190394  95.9436462  94.7179449  78.0935099  94.8436196  99.3916690
  77.3034153  95.0993724  98.9156800  78.5846346  95.6584533  99.4968730
  80.0449844  95.2080775  96.3500166  79.2481008  95.3199469  96.8683662
  79.8175437  95.5467427  95.4841057  76.3772802  95.0966686 101.8231680
  76.6280840  95.9813696 102.0889256  76.9132350  94.9171288 101.0506772
  85.5903530 103.3993585  94.1661661  85.4549205 104.2445121  94.5946509
  86.1313342 103.6012863  93.4027595  79.0432927 100.9169024  94.7389586
  79.5557448 101.7112274  94.8895151  79.6955640 100.2195314  94.6723188
  88.9395993  86.9224147 102.6960555  88.5960263  87.8125789 102.6199665
  89.3074956  86.7325805 101.8330140  77.0081844  99.2457678  95.5149157
  77.8457066  99.6554686  95.2982865  77.1860112  98.3057120  95.4849351
  88.9046276  96.9132758  91.2032990  88.3892899  97.6837363  91.4421377
  88.6323584  96.2397895  91.8266051  86.4893387  91.7582459  96.2618228
  85.6334983  91.3689310  96.0823867  86.9020339  91.8374420  95.4018014
  88.0192534  89.2928803 100.6609788  87.5157329  89.2558938  99.8477593
  88.3123141  90.2021545 100.7206445  84.2635420  89.3767532  99.6675970
  85.1288416  89.1810341  99.3081859  84.3312928  89.1477884 100.5945327
  93.8780550  99.6665113  93.1386163  93.1009993  99.3276273  92.6941325
  94.5572031  99.6717736  92.4641128  88.6932579  94.7859851  93.0292771
  88.3882715  95.1006000  93.8802914  89.6463021  94.8641270  93.0720104
  87.1379011 100.9450074  94.6785725  86.6100373 100.2102833  94.3658963
  86.6366514 101.7224750  94.4325693  81.8697739  91.6069740  97.0392337
  82.4441491  91.3844922  96.3065530  82.4568721  91.6758435  97.7920938
  82.1967326  93.6374201  91.0588222  81.3604638  93.9748888  91.3797497
  82.0572095  93.5023181  90.1215359  84.1720406  88.4810989  95.7667406
  83.5184819  88.1660006  95.1424021  84.1300881  87.8586730  96.4927229
  85.2831611  98.7630284  87.6820698  84.3758673  98.5319538  87.8811847
  85.7802643  97.9667903  87.8694680  88.1899690 107.4727791  90.6017384
  87.5161389 107.7759488  91.2102342  88.5765512 108.2756872  90.2522841
  88.1893194  96.3684338  95.2217734  88.9365013  96.8805736  94.9124856
  88.4584784  96.0468391  96.0822127  86.4619845  98.8642879  92.2044688
  85.5531064  98.5801912  92.3017158  86.4914928  99.2841958  91.3447995
  90.6372032  93.4041455  97.2036523  89.8994788  92.8918841  97.5346766
  90.8898805  92.9641836  96.3919800  90.7383659  86.1817707  97.7978292
  91.0442536  85.3215070  97.5104208  91.4636264  86.7735327  97.5977286
  77.0308015  96.5848393  96.1859890  76.8332415  95.9917754  95.4610957
  76.4754679  96.2800603  96.9035829  85.0104739  96.4771500  98.3054484
  85.0653348  95.5245336  98.2296960  84.1995941  96.6330939  98.7895782
  86.1595932 100.4051623  89.5432767  85.7215362  99.6887482  89.0838404
  86.9006373 100.6327738  88.9817858  82.9497099  95.0948559  96.0644862
  82.1364964  95.3942730  96.4710055  83.4456093  94.7004248  96.7819345
  82.4411173  92.6666915 101.6806097  83.0810553  92.5255674 100.9829061
  81.6088704  92.3801428 101.3044699  79.5254241  96.1112427  93.8700843
  78.5951829  96.0496883  94.0870805  79.6211713  95.5888380  93.0737484
  79.4439790  92.6367240  96.4579084  79.7046607  93.5512573  96.3488245
  80.2656962  92.1691682  96.6075697  90.2807160  99.2636004  89.1364824
  89.6636331  98.5382833  89.0397877  89.8123649 100.0245365  88.7931899
  82.0705706  93.4821429  88.2586129  81.1935172  93.3610229  87.8948375
  82.5463459  92.6907507  88.0065017  73.5907846  98.2698588  98.3527636
  74.2778886  97.9560318  97.7648651  73.4355975  99.1739953  98.0794887
  78.3942568  93.1588785 102.7812659  78.3100757  92.5514454 102.0463069
  77.5725275  93.6497803 102.7822156  88.5666282  91.6442348  98.1482855
  89.0634982  90.8912311  97.8283925  87.7953264  91.6806665  97.5826064
  85.1501251  93.7859731  97.8754539  84.7799038  93.2330772  98.5635445
  85.6460343  93.1817865  97.3229539  91.0085277  88.6111942 100.2962213
  90.0948357  88.8416169 100.4644420  91.4378378  88.6950386 101.1476246
  73.1675822  96.3499182 100.6245103  73.2059922  95.8162772 101.4182221
  72.6616115  95.8234387 100.0056080  80.5466585  91.1963722 104.1207645
  80.6107911  92.0578553 103.7085043  80.4833705  90.5837724 103.3880004
  76.7984400  95.0763284  93.6999034  77.0937841  94.1673962  93.6466088
  75.8972436  95.0551023  93.3780037  80.3278647  93.1519280  99.6826583
  79.6065233  93.7655248  99.5434056  81.1171903  93.6877045  99.6043229
  78.5272241  92.7577382  93.8238359  78.1984948  91.8774760  93.6413465
  78.8811612  92.7025050  94.7114749  81.6414065  93.0450351  94.1913837
  81.9810137  93.5736273  93.4692445  82.0886185  93.3830757  94.9672404
  84.9873977  88.5136714 102.0944228  85.8100047  88.0397193 101.9723119
  85.2312041  89.2927198 102.5942915  83.6282212  91.5424973  92.3907130
  84.3490574  91.9206226  91.8870847  83.0047516  92.2613850  92.4942108
  87.7713335  92.2470122  93.3265462  87.9876949  93.1294760  93.0254290
  87.2907402  91.8556335  92.5971104  82.5112556  95.2055835  99.9036207
  82.3657137  95.5196138 100.7960488  82.0337760  95.8240735  99.3507105
  84.3708939  92.1958383  99.9517096  84.3570508  91.2999476  99.6149394
  85.0881367  92.2029047 100.5855382  83.7745835  91.0772763  95.2204667
  83.8961746  90.1489410  95.4195554  83.4847877  91.0911449  94.3082982
  86.6437025  88.7627674  98.3571386  86.6658722  88.8267007  97.4023366
  87.0605084  87.9232182  98.5511893  78.2180854 104.7596505  97.7664420
  79.0438874 104.4600276  97.3863063  77.8674906 103.9904127  98.2154208
  76.4189459 102.6782831  98.7253353  75.5821367 102.2505005  98.5437354
  76.3913104 102.8715274  99.6624144  82.7475894 102.6626896  93.3120554
  82.8964014 103.3462360  92.6587226  83.5542337 102.6431986  93.8270009
  80.5028527  98.6892074  94.3181623  80.2574569  97.7854404  94.5161833
  80.6724441  98.6909224  93.3761101  79.7724174  94.4220431  91.8167784
  79.0793419  94.4964786  91.1607820  79.5275926  93.6580775  92.3389301
  88.4437831  85.9816033  99.2207275  88.7239585  85.3139222  99.8467701
  89.2288438  86.1745128  98.7081939  86.2471299 105.1575027  90.7832301
  85.6745266 105.7765214  90.3302773  86.8204093 105.7074388  91.3172223
  89.4668559 105.4412177  91.9140883  90.3999232 105.3757738  92.1173759
  89.3791772 106.2768444  91.4555416  92.0956576 104.7578047  88.8744831
  92.0170207 104.4237911  89.7680589  92.9166243 105.2499815  88.8736303
  86.6318098  96.4935839  88.1248354  87.5777203  96.3642047  88.1936772
  86.2532343  95.7550501  88.6017782  92.6039982  88.1591845  98.0875245
  92.4064803  87.8506934  98.9718577  93.2139688  88.8853484  98.2173175
  84.8161015  94.4185816  88.0603239  83.9092470  94.1218928  88.1365952
  85.0936996  94.1215634  87.1937525  75.7338955  95.7392179  98.5102285
  75.4141740  94.8857487  98.2176659  75.1872384  95.9540757  99.2660253
  86.4323081  88.9622705  94.2147480  85.6223809  88.6169790  94.5902726
  87.1207498  88.6530249  94.8035092  88.3613629  88.0400752  95.8371777
  88.9144668  88.4596206  96.4961800  88.5983715  87.1136500  95.8794733
  83.5859800  91.2772751  88.2015218  84.4478964  91.6027649  88.4611035
  83.7710144  90.4904247  87.6888284  75.6027215  99.3595091 100.4795407
  74.9090687  98.9449043  99.9665361  76.3500206  99.4015627  99.8828826
  91.7392436  90.1501277  95.3450441  91.1591105  90.8086081  94.9628493
  91.4728369  89.3278622  94.9337858  90.1896002  89.5506335  97.5471761
  90.6895781  89.6622870  96.7386080  90.8331610  89.2467388  98.1872570
  77.5163958  99.2913344  98.3561422  77.4934646  99.3901032  97.4043305
  77.8264594 100.1378495  98.6778588  90.5217314  92.3101368  94.4006789
  89.6343169  92.5951018  94.1826984  90.9371303  92.1495131  93.5534066
  89.6660528 102.0746042  88.4954809  90.3696378 102.2796045  89.1112465
  88.9423176 102.6422804  88.7603893  90.4958338  97.8255904  94.6157079
  90.4393539  98.2824455  93.7764712  91.0486680  97.0646588  94.4379922
  94.3063144  93.6145636  95.4407199  94.0500078  93.2142271  96.2715407
  93.6816012  94.3289429  95.3157338  91.5747225 102.5128572  90.5453269
  92.4092829 102.0809770  90.3630744  91.4131568 102.3410585  91.4730164
  91.2293117  99.0160685  91.9109609  91.1741921  98.8504956  90.9698053
  90.6039172  99.7236718  92.0671798  84.5389243  88.5168794  91.4894927
  84.5267912  89.4610634  91.6463198  85.4312664  88.3338939  91.1954388
  88.3541362  85.1111571  95.7440864  87.5873758  84.5570057  95.8897546
  88.7652067  85.1833439  96.6055015  92.9099460 108.8113346  88.2586129
  92.0328927 108.6902147  87.8948375  93.3857214 108.0199425  88.0065017
  94.4253554 106.6064669  88.2015218  95.2872718 106.9319567  88.4611035
  94.6103898 105.8196164  87.6888284  27.8345496  -0.1328256  83.2912168
  27.2710361  -0.2238319  82.5228456  27.7197891  -0.9528352  83.7714661
  33.4145055   3.5342711  78.6026633  32.7633035   4.1196792  78.2160647
  34.2089418   4.0648906  78.6621671  27.3400682   0.6231849  79.0013768
  28.1131558   0.0760836  78.8626643  27.6926081   1.4876098  79.2128229
  34.7210243  -4.2139707  84.4406961  35.5073332  -4.6320284  84.0897378
  34.9848947  -3.3093615  84.6088609  34.8920320   1.2233143  79.1395618
  34.2566153   1.2967770  79.8516522  34.5617727   1.8126742  78.4614697
  40.1218670  -4.2764474  85.3439939  40.8543842  -4.8465257  85.5777769
  39.3658026  -4.6642873  85.7846445  29.3963249  -1.3147379  78.8356592
  29.2799507  -1.9902476  79.5037677  29.5065509  -1.8015005  78.0188745
  31.7394790  -1.8537232  82.5403282  31.3752997  -2.3806611  83.2516203
  32.5961906  -2.2438763  82.3669767  29.1196390   8.4013967  82.1701428
  29.0420419   9.3521792  82.2489909  28.5158033   8.0559839  82.8276355
  37.0574564  -3.8968202  79.3491631  37.9692420  -3.6640815  79.1739329
  36.5484211  -3.3131158  78.7866710  35.6644146   1.0857617  86.7405213
  35.0353008   1.2503331  86.0381280  35.2769808   1.4999226  87.5116177
  39.5433378   2.0212054  84.0949576  38.8584416   2.4010956  83.5446610
  39.6277227   2.6307381  84.8281524  31.2172108   0.8232025  84.0055298
  31.6810453   1.1019728  83.2159920  30.9528906  -0.0784531  83.8228388
  37.9130137   2.5443969  88.8667277  38.7347581   2.1424156  88.5849959
  37.9092540   2.4412203  89.8183393  46.0036131  -1.1117283  85.2152249
  45.2499839  -1.6809885  85.0596253  46.1383672  -1.1454618  86.1622883
  31.3934759   3.7596120  80.8906968  31.2580433   4.6047655  81.3191816
  31.9344571   3.9615397  80.1272902  24.8464156   1.2771558  81.4634893
  25.3588677   2.0714808  81.6140458  25.4986869   0.5797848  81.3968495
  26.6559041   4.3937314  83.5457646  26.8325669   5.3155279  83.3578630
  27.4515874   4.0795733  83.9752026  34.7077505  -2.7264707  77.9278297
  34.1924128  -1.9560103  78.1666684  34.4354813  -3.3999571  78.5511358
  39.6811779   0.0267647  79.8631470  38.9041222  -0.3121193  79.4186632
  40.3603260   0.0320271  79.1886435  34.4963808  -4.8537615  79.7538078
  34.1913944  -4.5391466  80.6048221  35.4494250  -4.7756195  79.7965411
  32.9410240   1.3052608  81.4031032  32.4131601   0.5705368  81.0904269
  32.4397743   2.0827284  81.1571000  37.9203086  -0.4998371  86.5198078
  37.2626760   0.1900890  86.6078207  38.7243485  -0.1101939  86.8632064
  36.7308545  -2.1453999  84.5702020  37.2440426  -1.5124007  85.0723729
  37.3809769  -2.7452803  84.2045380  31.0862840  -0.8767182  74.4066005
  30.1789902  -1.1077928  74.6057154  31.5833872  -1.6729562  74.5939986
  33.9930919   7.8330326  77.3262691  33.3192618   8.1362022  77.9347649
  34.3796741   8.6359406  76.9768148  33.9924423  -3.2713127  81.9463041
  34.7396242  -2.7591730  81.6370163  34.2616013  -3.5929075  82.8067434
  32.2651073  -0.7754587  78.9289995  31.3562293  -1.0595554  79.0262465
  32.2946157  -0.3555508  78.0693302  37.4970341   2.8352003  82.6981162
  37.0432668   1.9942913  82.7546353  36.8664308   3.4713401  83.0355943
  35.9403280   4.6728499  83.6330981  36.2326255   5.2333557  82.9143346
  36.4501901   4.9657060  84.3884140  31.9627161   0.7654157  76.2678073
  31.5246591   0.0490016  75.8083711  32.7037602   0.9930272  75.7063165
  30.9036905   5.4508851  84.7224434  30.8613084   5.6769697  83.7932966
  31.8199604   5.2172225  84.8710235  40.0800276  -0.9588646  82.3254392
  39.9418175  -0.7687050  81.3975581  39.7236495  -0.1969263  82.7822443
  40.1069656   1.1087881  87.3365663  40.5406162   1.0163170  88.1848718
  40.8201236   1.0845381  86.6985679  29.0202706   2.3271880  84.5186396
  29.8143305   1.8322200  84.3168971  28.3094398   1.7989743  84.1554102
  33.8397551   4.7089975  88.8698764  33.8934573   5.2780911  89.6376480
  32.9712332   4.8791860  88.5052801  32.1922134   8.0009998  79.5409770
  32.3673890   7.5298041  80.3555393  31.5054922   8.6275764  79.7691031
  33.1479197   2.2782504  85.5873071  32.8129030   2.2383274  86.4830721
  32.6483143   1.6127220  85.1143482  36.0838389  -0.3761461  75.8610131
  35.4667560  -1.1014633  75.7643184  35.6154877   0.3847899  75.5177205
  26.7583219  11.1499361  86.3149630  26.9979818  11.7817885  86.9928649
  25.9152416  10.7987401  86.6014990  31.2711081   6.9578483  88.7191134
  31.1981253   7.7633455  89.2310439  30.8288474   7.1570449  87.8939156
  31.0600861   6.1950253  82.2293956  30.2768383   6.7371933  82.3232180
  31.7593606   6.7124233  82.6288197  42.2227268  -2.2914752  86.5146453
  42.2117145  -1.4090036  86.1440386  41.3544648  -2.6443201  86.3200990
  35.4527292   0.7616570  82.4466585  34.5183570   0.8818032  82.2771289
  35.6303960  -0.1410963  82.1826594  38.8399843  -3.3966111  82.9816619
  39.3060295  -2.5638119  82.9076921  39.2907343  -3.8621129  83.6861877
  36.9076074   2.9477710  79.9802771  37.1835918   2.8334305  80.8896645
  36.0380573   2.5495195  79.9414944  33.5430138   7.1964061  83.6235584
  33.7252533   6.3785717  84.0863337  34.3663124   7.4131754  83.1860474
  33.8772304   6.1232246  80.8850633  34.4060070   5.6124701  80.2720795
  34.1400523   5.8074777  81.7496166  27.2328052   7.1747363  83.6448409
  26.5638427   7.6593491  83.1612449  27.0940921   7.4216584  84.5591787
  31.3733320   9.2091107  90.2431067  31.9251628   9.3722728  91.0080152
  31.7139514   9.7995544  89.5711092  34.5101707   7.1573082  87.2294749
  34.3852847   6.3562822  86.7205695  35.1680799   7.6519276  86.7408719
  36.5736616   4.9582102  88.8574299  35.6266951   4.8387453  88.7852626
  36.9219389   4.0704600  88.9400561  33.5783049   4.7534818  85.0578652
  33.4308012   3.8251526  85.2386222  34.4036543   4.7754909  84.5735727
  37.1817171   5.5763377  86.1443524  38.1063718   5.3706239  86.0067976
  37.0132474   5.3279778  87.0532866  36.9712487   6.0949045  81.5005616
  37.1449365   5.5295467  80.7479468  37.4641378   6.8949940  81.3185106
  42.8251878  -1.1414532  83.1195916  43.2683024  -1.8907207  82.7215039
  41.9478389  -1.1504396  82.7369648  37.9587660   5.4115809  78.6002514
  38.6538564   6.0322502  78.8189829  38.3010810   4.5611160  78.8754892
  39.8579083   2.8615515  80.1289845  40.3830407   3.2002787  79.4039165
  39.7701435   1.9262530  79.9452980  31.5419744   8.9287498  84.4885098
  31.1024734   8.4363877  85.1817955  32.2927860   8.3860466  84.2477173
  24.0212082   5.1199039  84.4909726  24.8470102   4.8202811  84.1108370
  23.6706134   4.3506661  84.9399515  28.9893616   4.4725507  86.5607400
  28.3673625   3.8096212  86.2609628  29.6598483   4.4986639  85.8781048
  28.5507123   3.0229430  80.0365860  28.6995243   3.7064895  79.3832533
  29.3573566   3.0034520  80.5515316  42.3684743   0.3290706  85.5118363
  43.2031634   0.7680510  85.6755924  42.5043872  -0.1470641  84.6926609
  32.0502528   5.5177561  77.5077608  31.4776495   6.1367748  77.0548080
  32.6235322   6.0676922  78.0417530  35.2699788   5.8014711  78.6386190
  36.2030461   5.7360273  78.8419065  35.1823001   6.6370978  78.1800723
  37.8987805   5.1180581  75.5990138  37.8201436   4.7840445  76.4925895
  38.7197471   5.6102349  75.5981610  32.4349327  -3.1461626  74.8493660
  33.3808431  -3.2755418  74.9182078  32.0563572  -3.8846965  75.3263088
  46.4142546  -0.9541673  87.9472493  47.1445934  -1.2156385  88.5080196
  45.8049491  -1.6912951  87.9874561  44.4957843  -2.8133810  88.5446944
  43.7691006  -2.9477845  87.9363436  44.0805130  -2.5056981  89.3503662
  36.3248543  -7.3296098  81.1252096  35.4374398  -7.0446447  80.9072291
  36.7402532  -7.4902335  80.2779373  24.3332793   7.2511653  86.2123541
  24.1987261   6.4912054  85.6461539  23.9164856   7.9752553  85.7452329
  35.4691756   2.4348577  75.2200116  36.1727606   2.6398579  75.8357771
  34.7454405   3.0025339  75.4849199  36.2989567  -1.8141562  81.3402386
  36.2424768  -1.3573011  80.5010018  36.8517909  -2.5750878  81.1625229
  40.1094373  -6.0251830  82.1652506  39.8531307  -6.4255195  82.9960713
  39.4847241  -5.3108036  82.0402645  44.4206710  -3.2855757  84.6723797
  43.8606268  -3.2162568  85.4455359  43.8150214  -3.4614772  83.9523293
  27.4901919   8.1480970  86.4241983  27.3734303   9.0926403  86.3220673
  26.6694365   7.8454532  86.8127782  37.3778454   2.8731106  77.2698576
  38.2124058   2.4412304  77.0876051  37.2162797   2.7013120  78.1975470
  37.0324346  -0.6236781  78.6354915  36.9773150  -0.7892509  77.6943359
  36.4070401   0.0839252  78.7917105  30.2710035   7.5540219  86.3007990
  29.3205666   7.5542080  86.1872363  30.5742521   6.8072953  85.7844025
  46.0062729  13.3900757  87.3653753  46.6441139  13.2707504  86.6617093
  45.8883572  14.3381601  87.4241705  42.8152435  13.3428185  87.3015277
  42.4770947  13.2269250  86.4135812  43.6842203  12.9419350  87.2816283
  38.6739251  15.1963661  83.2912168  38.1104116  15.1053598  82.5228456
  38.5591646  14.3763566  83.7714661  43.2972218  14.4963037  93.2601483
  43.2860859  14.1015835  92.3881987  43.4592858  13.7629109  93.8535254
  36.2203683  16.6914853  86.1296389  37.0124975  16.3505678  85.7142688
  36.4600333  16.8009828  87.0498542  44.2538810  18.8634629  78.6026633
  43.6026789  19.4488710  78.2160647  45.0483172  19.3940824  78.6621671
  38.1794437  15.9523766  79.0013768  38.9525313  15.4052753  78.8626643
  38.5319836  16.8168016  79.2128229  40.0179479  17.2800149  92.2080667
  39.7269345  18.1845779  92.0927333  40.6536464  17.3216676  92.9224736
  40.9435686  14.6576997  88.7982027  41.5399258  14.4333019  88.0838989
  41.0010658  13.9161743  89.4007474  40.5160715  12.1116432  76.6332217
  40.7686235  11.5897954  75.8715680  39.5785274  11.9482578  76.7358901
  45.5603997  11.1152211  84.4406961  46.3467087  10.6971634  84.0897378
  45.8242702  12.0198303  84.6088609  45.7314075  16.5525061  79.1395618
  45.0959908  16.6259688  79.8516522  45.4011481  17.1418660  78.4614697
  50.9612424  11.0527444  85.3439939  51.6937596  10.4826661  85.5777769
  50.2051780  10.6649044  85.7846445  40.2357003  14.0144538  78.8356592
  40.1193261  13.3389442  79.5037677  40.3459263  13.5276912  78.0188745
  42.5788544  13.4754685  82.5403282  42.2146751  12.9485306  83.2516203
  43.4355660  13.0853155  82.3669767  48.4837845   4.7649018  89.8034548
  48.1521170   5.6344429  89.5795763  47.8883458   4.4485302  90.4828578
  42.2194031   8.5044585  77.5364630  42.3868434   9.3724822  77.9035101
  42.0291200   8.6671867  76.6125919  44.9769364  16.9661564  89.2030461
  44.6770087  17.8686603  89.0946268  44.6320424  16.6993747  90.0551613
  38.4281846  13.4175361  85.2367165  37.5032342  13.2851575  85.4444857
  38.6766259  14.1969580  85.7337107  48.3766508   9.4844104  86.8827898
  47.4683385   9.4159513  86.5886659  48.3254104   9.9616049  87.7109723
  42.1983252  10.9602243  78.5211297  42.0782877  11.4059293  79.3596777
  41.5035840  11.3087560  77.9624835  35.7890657  13.0608634  86.0710954
  35.9183038  13.3143113  86.9850366  35.1088108  13.6536342  85.7515609
  39.9590144  23.7305884  82.1701428  39.8814174  24.6813710  82.2489909
  39.3551788  23.3851757  82.8276355  42.4507374  10.9033750  94.8262795
  41.6740708  11.4627670  94.8165660  43.0897937  11.3890533  95.3477665
  50.2428155   7.6860543  88.6605772  49.6002535   7.9793076  88.0145566
  49.7383083   7.5713463  89.4658968  47.8968318  11.4323716  79.3491631
  48.8086174  11.6651103  79.1739329  47.3877965  12.0160760  78.7866710
  40.7053746  13.7119203  94.3880762  41.4468431  14.2504247  94.1115586
  39.9990732  14.3385492  94.5452314  46.1809086  15.8548344  92.9852924
  46.5892442  15.4130754  92.2407556  45.4586347  15.2800971  93.2387117
  42.5340156  10.7920950  90.3586481  43.3801351  11.2160364  90.5021130
  42.4738794  10.1354575  91.0525044  46.5037900  16.4149534  86.7405213
  45.8746763  16.5795248  86.0381280  46.1163563  16.8291144  87.5116177
  50.3827132  17.3503972  84.0949576  49.6978171  17.7302874  83.5446610
  50.4670982  17.9599299  84.8281524  45.6839601   8.4525319  92.0167654
  45.4400533   9.2067379  91.4801930  45.9599532   8.8310666  92.8514901
  47.6378064  14.9963931  90.6944920  47.8494959  15.6395691  90.0179301
  47.5907812  14.1626248  90.2266850  45.2404293   7.6081752  87.5981492
  44.3788772   7.9063005  87.8898230  45.2666728   7.8252151  86.6662525
  42.0565862  16.1523942  84.0055298  42.5204208  16.4311645  83.2159920
  41.7922660  15.2507387  83.8228388  38.9489943  15.6995424  86.9435061
  39.5191301  16.1282692  86.3052545  39.5398055  15.4178009  87.6419247
  40.9934748  12.2747095  80.8144863  41.6958792  12.7268138  81.2818789
  40.6615377  11.6330914  81.4424756  39.4415110  10.8658851  95.1896072
  38.8113771  11.5475132  95.4231469  39.3351198  10.7541933  94.2449210
  34.7360082  10.5330647  86.1161996  33.9459136  10.7888176  85.6402107
  35.2271330  11.3478985  86.2214037  48.7523892  17.8735887  88.8667277
  49.5741336  17.4716074  88.5849959  48.7486295  17.7704121  89.8183393
  36.6874828  10.8975227  83.0745473  35.8905991  11.0093921  83.5928969
  36.4600420  11.2361879  82.2086364  42.5180495  17.4219930  91.0227988
  42.5824928  17.8840337  91.8586159  41.8091419  16.7917295  91.1510297
  33.0197785  10.7861138  88.5476987  33.2705824  11.6708148  88.8134563
  33.5557334  10.6065739  87.7752079  56.8429885  14.2174635  85.2152249
  56.0893593  13.6482033  85.0596253  56.9777426  14.1837300  86.1622883
  42.2328513  19.0888037  80.8906968  42.0974188  19.9339573  81.3191816
  42.7738326  19.2907315  80.1272902  35.6857910  16.6063475  81.4634893
  36.1982431  17.4006726  81.6140458  36.3380623  15.9089766  81.3968495
  37.4952795  19.7229232  83.5457646  37.6719423  20.6447196  83.3578630
  38.2909629  19.4087651  83.9752026  36.7805152  11.7693864  93.4219809
  36.6658667  10.8679121  93.7226908  35.9249669  12.0157560  93.0704626
  43.8596989  19.7111604  95.0207310  43.4160844  18.9247982  94.7028215
  44.5214203  19.8990754  94.3551201  38.6184111  21.2407405  89.5467989
  39.1691536  21.1124469  88.7744983  37.7795587  21.5402295  89.1962881
  45.9578227  19.9914404  93.0488711  45.9396703  20.8123285  92.5568981
  46.8798148  19.8668479  93.2738852  42.4151282  17.5058533  93.8912220
  42.9479618  16.7446821  93.6611528  41.8865363  17.2132185  94.6336374
  45.5820977   2.6118599  89.4205861  45.2385246   3.5020241  89.3444972
  45.9499939   2.4220257  88.5575446  33.6506827  14.9352130  82.2394464
  34.4882049  15.3449138  82.0228171  33.8285095  13.9951572  82.2094657
  45.5471259  12.6027210  77.9278297  45.0317883  13.3731815  78.1666684
  45.2748568  11.9292347  78.5511358  43.1318370   7.4476911  82.9863535
  42.2759967   7.0583762  82.8069174  43.5445322   7.5268872  82.1263320
  44.6617517   4.9823254  87.3855095  44.1582313   4.9453390  86.5722900
  44.9548124   5.8915997  87.4451751  40.9060403   5.0661984  86.3921276
  41.7713400   4.8704793  86.0327166  40.9737912   4.8372336  87.3190633
  50.5205533  15.3559565  79.8631470  49.7434976  15.0170725  79.4186632
  51.1997014  15.3612188  79.1886435  45.3357563  10.4754302  79.7538078
  45.0307698  10.7900452  80.6048221  46.2888005  10.5535722  79.7965411
  43.7803994  16.6344526  81.4031032  43.2525356  15.8997285  81.0904269
  43.2791497  17.4119202  81.1571000  48.7596840  14.8293546  86.5198078
  48.1020515  15.5192808  86.6078207  49.5637240  15.2189978  86.8632064
  38.5122722   7.2964192  83.7637643  39.0866474   7.0739374  83.0310836
  39.0993704   7.3652887  84.5166245  47.5702299  13.1837919  84.5702020
  48.0834181  13.8167911  85.0723729  48.2203523  12.5839114  84.2045380
  38.8392309   9.3268653  77.7833529  38.0029621   9.6643340  78.1042803
  38.6997079   9.1917633  76.8460665  40.8145390   4.1705441  82.4912713
  40.1609802   3.8554458  81.8669327  40.7725864   3.5481181  83.2172536
  41.9256595  14.4524736  74.4066005  41.0183656  14.2213990  74.6057154
  42.4227627  13.6562355  74.5939986  44.8324673  23.1622243  77.3262691
  44.1586372  23.4653940  77.9347649  45.2190495  23.9651324  76.9768148
  44.0483130  10.6587375  86.8160360  43.1305691  10.8802322  86.6582048
  44.4643274  10.7333685  85.9572068  44.8318178  12.0578790  81.9463041
  45.5789997  12.5700187  81.6370163  45.1009767  11.7362843  82.8067434
  43.1044828  14.5537331  78.9289995  42.1956047  14.2696364  79.0262465
  43.1339912  14.9736409  78.0693302  48.3364095  18.1643920  82.6981162
  47.8826422  17.3234830  82.7546353  47.7058062  18.8005319  83.0355943
  47.2797015   9.0935906  83.9281830  46.5419772   8.5813293  84.2592072
  47.5323788   8.6536288  83.1165107  46.7797035  20.0020417  83.6330981
  47.0720009  20.5625474  82.9143346  47.2895655  20.2948978  84.3884140
  47.3808642   1.8712158  84.5223599  47.6867519   1.0109522  84.2349514
  48.1061247   2.4629779  84.3222593  33.6732998  12.2742845  82.9105197
  33.4757398  11.6812206  82.1856264  33.1179662  11.9695055  83.6281136
  41.6529722  12.1665952  85.0299790  41.7078332  11.2139788  84.9542267
  40.8420924  12.3225391  85.5141089  42.8020916  16.0946075  76.2678073
  42.3640346  15.3781934  75.8083711  43.5431357  16.3222189  75.7063165
  39.5922082  10.7843011  82.7890169  38.7789947  11.0837182  83.1955361
  40.0881076  10.3898700  83.5064651  41.7430660  20.7800768  84.7224434
  41.7006839  21.0061615  83.7932966  42.6593359  20.5464143  84.8710235
  45.1896294  11.2484836  91.6205063  45.5445681  11.4756309  92.4799529
  45.8368425  11.5803213  90.9982318  50.9194031  14.3703272  82.3254392
  50.7811929  14.5604868  81.3975581  50.5630249  15.1322654  82.7822443
  39.0836157   8.3561367  88.4051404  39.7235536   8.2150126  87.7074367
  38.2513687   8.0695880  88.0290006  50.9463410  16.4379799  87.3365663
  51.3799917  16.3455088  88.1848718  51.6594991  16.4137299  86.6985679
  39.8596461  17.6563797  84.5186396  40.6537059  17.1614117  84.3168971
  39.1488153  17.1281660  84.1554102  44.6791305  20.0381893  88.8698764
  44.7328327  20.6072829  89.6376480  43.8106086  20.2083778  88.5052801
  36.1679224  11.8006879  80.5946149  35.2376812  11.7391334  80.8116111
  36.2636696  11.2782832  79.7982790  36.0864773   8.3261692  83.1824391
  36.3471590   9.2407025  83.0733551  36.9081945   7.8586134  83.3321004
  37.5589698   9.7399449  90.3523215  38.2312752   9.5316811  89.7035864
  36.7319485   9.5421535  89.9128448  51.8078960  16.4803499  89.8698549
  52.0014850  17.3849310  90.1157824  51.7079578  16.0210918  90.7037134
  43.4615270   6.3661390  92.3688876  42.8143185   7.0651340  92.2753353
  44.2316286   6.7997534  92.7365124  46.8694068  16.6310242  95.4439429
  46.7179575  16.4020794  94.5269513  46.8598748  17.5880843  95.4570775
  43.6379405  14.2042155  90.4285696  44.5671465  14.3553314  90.2554663
  43.2170435  14.2926176  89.5734342  42.4367737  18.2292819  88.1984234
  42.2978822  17.8611604  89.0710172  41.6482333  18.7440459  88.0268191
  43.0315889  23.3301916  79.5409770  43.2067644  22.8589959  80.3555393
  42.3448677  23.9567682  79.7691031  43.9872952  17.6074422  85.5873071
  43.6522784  17.5675192  86.4830721  43.4876897  16.9419138  85.1143482
  37.9617196  13.0142052  91.1125653  37.8236994  12.2822291  91.7137192
  38.8722119  12.9250952  90.8309840  46.9232143  14.9530456  75.8610131
  46.3061314  14.2277284  75.7643184  46.4548632  15.7139817  75.5177205
  40.5899496  12.7262011  90.6009332  41.2999115  12.0855203  90.5595951
  40.5468805  12.9774906  91.5235513  48.5786275  19.6629365  93.5215911
  48.5198821  18.9788585  92.8546494  48.9805793  20.4048355  93.0696537
  39.3028430   9.7127229  92.4204972  38.7665787   9.2617968  93.0726568
  38.7145139   9.8473138  91.6775436  37.5976974  26.4791278  86.3149630
  37.8373572  27.1109803  86.9928649  36.7546170  26.1279318  86.6014990
  38.7130689   9.1715881  74.9831435  37.8360156   9.0504681  74.6193682
  39.1888442   8.3801959  74.7310324  48.5803682  17.6268949  91.7529891
  47.6930461  17.2894870  91.8756290  49.1502233  16.8951980  91.9898656
  30.2332829  13.9593040  85.0772942  30.9203869  13.6454770  84.4893958
  30.0780958  14.8634405  84.8040194  35.0367552   8.8483237  89.5057966
  34.9525740   8.2408906  88.7708376  34.2150258   9.3392255  89.5067462
  42.1104836  22.2870401  88.7191134  42.0375007  23.0925372  89.2310439
  41.6682229  22.4862367  87.8939156  41.8994615  21.5242171  82.2293956
  41.1162137  22.0663851  82.3232180  42.5987361  22.0416151  82.6288197
  45.2091265   7.3336800  84.8728161  45.7059965   6.5806763  84.5529231
  44.4378247   7.3701117  84.3071370  53.0621023  13.0377166  86.5146453
  53.0510899  13.9201881  86.1440386  52.1938402  12.6848717  86.3200990
  44.5703519  22.1857235  90.8749293  45.2831491  22.8204700  90.8025194
  44.0793548  22.2821101  90.0589295  46.2921046  16.0908488  82.4466585
  45.3577325  16.2109950  82.2771289  46.4697715  15.1880954  82.1826594
  41.7926234   9.4754183  84.5999846  41.4224022   8.9225224  85.2880751
  42.2885327   8.8712317  84.0474846  49.6793597  11.9325807  82.9816619
  50.1454050  12.7653798  82.9076921  50.1301098  11.4670788  83.6861877
  39.6215433  19.9351678  91.6954864  40.3224892  20.5688161  91.8484258
  39.1510548  20.2766410  90.9350503  47.7469829  18.2769628  79.9802771
  48.0229672  18.1626223  80.8896645  46.8774327  17.8787113  79.9414944
  47.6510260   4.3006394  87.0207520  46.7373340   4.5310621  87.1889727
  48.0803362   4.3844838  87.8721552  47.4216719  12.4896286  89.5207414
  46.7688169  12.7372193  88.8659867  47.7997099  11.6760424  89.1869891
  44.3823893  22.5255979  83.6235584  44.5646287  21.7077635  84.0863337
  45.2056879  22.7423671  83.1860474  44.7166058  21.4524164  80.8850633
  45.2453825  20.9416619  80.2720795  44.9794278  21.1366694  81.7496166
  43.4704292  13.2316097  96.0073451  42.7944929  13.1310226  96.6775826
  44.2931926  13.0755311  96.4709448  35.2183151  19.4688033  88.6285966
  35.8036588  18.7231721  88.7613871  35.0207989  19.7791990  89.5122630
  38.0721806  22.5039281  83.6448409  37.4032181  22.9885408  83.1612449
  37.9334676  22.7508501  84.5591787  29.8100806  12.0393634  87.3490410
  29.8484905  11.5057224  88.1427528  29.3041098  11.5128839  86.7301387
  42.2127075  24.5383024  90.2431067  42.7645383  24.7014646  91.0080152
  42.5533268  25.1287462  89.5711092  37.1891568   6.8858174  90.8452952
  37.2532894   7.7473005  90.4330350  37.1258688   6.2732176  90.1125310
  47.0637949  19.3644282  96.0979722  47.6077853  19.9774240  95.6034676
  46.4824794  19.9223860  96.6146735  33.4409383  10.7657736  80.4244341
  33.7362824   9.8568414  80.3711395  32.5397419  10.7445475  80.1025343
  45.3495462  22.4865000  87.2294749  45.2246601  21.6854740  86.7205695
  46.0074553  22.9811193  86.7408719  36.9703630   8.8413732  86.4071890
  36.2490216   9.4549700  86.2679363  37.7596886   9.3771497  86.3288535
  47.4130370  20.2874020  88.8574299  46.4660706  20.1679371  88.7852626
  47.7613143  19.3996518  88.9400561  35.1697225   8.4471833  80.5483666
  34.8409931   7.5669212  80.3658772  35.5236595   8.3919502  81.4360055
  44.4176804  20.0826736  85.0578652  44.2701766  19.1543444  85.2386222
  45.2430297  20.1046827  84.5735727  38.2839048   8.7344803  80.9159144
  38.6235120   9.2630724  80.1937752  38.7311168   9.0725209  81.6917710
  48.0210925  20.9055295  86.1443524  48.9457473  20.6998156  86.0067976
  47.8526229  20.6571696  87.0532866  40.9782489   7.1181854  90.3662212
  40.6379309   6.3189667  90.7682892  40.2721495   7.4183565  89.7939045
  41.6298961   4.2031166  88.8189535  42.4525030   3.7291645  88.6968425
  41.8737024   4.9821650  89.3188221  40.2707195   7.2319425  79.1152437
  40.9915558   7.6100678  78.6116153  39.6472499   7.9508302  79.2187414
  44.4138318   7.9364574  80.0510769  44.6301932   8.8189212  79.7499597
  43.9332385   7.5450787  79.3216411  39.1537539  10.8950287  86.6281513
  39.0082120  11.2090590  87.5205795  38.6762743  11.5135187  86.0752412
  41.0133922   7.8852835  86.6762403  40.9995491   6.9893928  86.3394701
  41.7306350   7.8923499  87.3100689  42.8660053   8.3190175  88.7215530
  42.6077831   9.2407246  88.7199861  42.3345093   7.9220610  89.4115995
  47.8106242  21.4240962  81.5005616  47.9843119  20.8587385  80.7479468
  48.3035133  22.2241857  81.3185106  33.6283201  13.4355631  89.5669175
  33.0836670  14.2115439  89.6989449  34.5062551  13.7826436  89.4088296
  40.4170818   6.7667215  81.9449973  40.5386729   5.8383861  82.1440861
  40.1272860   6.7805901  81.0328289  43.2862008   4.4522126  85.0816693
  43.3083705   4.5161459  84.1268673  43.7030068   3.6126634  85.2757199
  53.6645633  14.1877385  83.1195916  54.1076779  13.4384710  82.7215039
  52.7872143  14.1787522  82.7369648  48.7981414  20.7407727  78.6002514
  49.4932319  21.3614419  78.8189829  49.1404564  19.8903078  78.8754892
  34.4149223  12.5625528  92.4599332  33.6730959  12.7108163  93.0463962
  34.0941968  12.8233793  91.5966081  50.6972837  18.1907432  80.1289845
  51.2224161  18.5294705  79.4039165  50.6095190  17.2554448  79.9452980
  42.3592886  22.1041506  92.2579722  42.6680012  21.8590653  93.1302421
  43.1568368  22.3088144  91.7698592  42.3813498  24.2579416  84.4885098
  41.9418488  23.7655794  85.1817955  43.1321615  23.7152383  84.2477173
  34.8605837  20.4490956  84.4909726  35.6863857  20.1494728  84.1108370
  34.5099889  19.6798579  84.9399515  39.8287370  19.8017425  86.5607400
  39.2067379  19.1388130  86.2609628  40.4992237  19.8278557  85.8781048
  33.0614442  18.3677283  85.4498660  32.2246350  17.9399457  85.2682661
  33.0338087  18.5609726  86.3869451  50.3866743  18.8240336  95.4341043
  49.5962287  18.8064475  94.8945542  50.1500098  19.3628630  96.1890079
  50.5064618  15.6732802  92.7473771  50.5562623  15.5082810  93.6889294
  50.3978542  14.8060061  92.3571652  39.3900877  18.3521348  80.0365860
  39.5388997  19.0356812  79.3832533  40.1967321  18.3326438  80.5515316
  47.7968381  11.6563730  94.0633078  48.6978244  11.5170195  93.7717076
  47.8716355  11.8218185  95.0031256  42.1311186   9.0330585  92.9086264
  41.2614495   9.3264151  92.6368853  42.3670666   9.6171030  93.6293528
  52.0082815  18.0929744  92.9915793  51.7167624  18.4559724  93.8279254
  51.3954946  17.3796752  92.8129125  53.2078498  15.6582624  85.5118363
  54.0425389  16.0972428  85.6755924  53.3437626  15.1821277  84.6926609
  50.2570003  13.2162358  91.4595851  50.7324125  13.4090005  90.6514702
  49.3335569  13.2721544  91.2139235  37.1453510  14.3786526  81.0426929
  36.8999552  13.4748856  81.2407139  37.3149425  14.3803676  80.1006407
  44.8350220   5.2510202  90.4251685  45.3532164   5.9871229  90.0998173
  44.4805353   5.5574195  91.2598444  36.4149158  10.1114883  78.5413091
  35.7218403  10.1859238  77.8853127  36.1700909   9.3475227  79.0634608
  45.0862814   1.6710485  85.9452581  45.3664568   1.0033674  86.5713008
  45.8713421   1.8639580  85.4327245  42.8896283  20.8469478  77.5077608
  42.3170250  21.4659666  77.0548080  43.4629076  21.3968840  78.0417530
  48.9571672  10.0928119  89.6924157  49.9089095  10.1926216  89.7136381
  48.7875123   9.3006387  90.2022241  46.9786052   7.1783702  89.8783557
  46.3835984   7.4588714  89.1830046  46.6935749   7.6677603  90.6500299
  46.1093542  21.1306629  78.6386190  47.0424216  21.0652190  78.8419065
  46.0216755  21.9662895  78.1800723  48.7381559  20.4472499  75.5990138
  48.6595191  20.1132363  76.4925895  49.5591226  20.9394267  75.5981610
  51.4359750  13.3134238  88.8066456  51.4036070  12.3750239  88.9926140
  52.0460374  13.3918275  88.0732281  43.2743081  12.1830291  74.8493660
  44.2202186  12.0536499  74.9182078  42.8957326  11.4444953  75.3263088
  51.5854239  10.1045282  88.8524739  51.0693287   9.3203738  88.6654668
  52.4694187   9.7763998  89.0171259  49.2464966   3.8486297  84.8120552
  49.0489787   3.5401385  85.6963884  49.8564671   4.5747936  84.9418482
  57.2536300  14.3750245  87.9472493  57.9839689  14.1135533  88.5080196
  56.6443246  13.6378967  87.9874561  55.3351597  12.5158108  88.5446944
  54.6084761  12.3814073  87.9363436  54.9198884  12.8234936  89.3503662
  43.1581774  16.2348037  96.3094317  44.0784783  16.4126636  96.5034364
  43.1231357  15.2904083  96.1574016  41.4585998  10.1080268  74.7848545
  40.5517454   9.8113380  74.8611259  41.7361979   9.8110086  73.9182832
  32.3763939  11.4286631  85.2347592  32.0566723  10.5751939  84.9421966
  31.8297367  11.6435209  85.9905559  36.1543846  14.1449072  88.9517098
  36.3729856  15.0766180  88.9705132  36.5669620  13.7857046  89.7371902
  43.0748064   4.6517157  80.9392787  42.2648792   4.3064242  81.3148033
  43.7632481   4.3424701  81.5280398  45.0038612   3.7295204  82.5617083
  45.5569651   4.1490658  83.2207106  45.2408699   2.8030952  82.6040039
  40.2284783   6.9667203  74.9260525  41.0903947   7.2922101  75.1856342
  40.4135127   6.1798699  74.4133590  32.2452199  15.0489542  87.2040713
  31.5515670  14.6343495  86.6910668  32.9925190  15.0910079  86.6074132
  48.3817419   5.8395729  82.0695748  47.8016088   6.4980533  81.6873800
  48.1153352   5.0173074  81.6583165  46.8320986   5.2400787  84.2717068
  47.3320764   5.3517321  83.4631387  47.4756594   4.9361840  84.9117876
  40.8902982  13.1479417  97.1584909  40.4070063  13.9479777  97.3648798
  40.9763921  13.1587361  96.2052353  34.1588941  14.9807796  85.0806728
  34.1359629  15.0795484  84.1288611  34.4689578  15.8272947  85.4023894
  36.8176319  17.0383951  89.1953343  37.7719573  17.0067894  89.1283274
  36.6188843  16.5774575  90.0103569  37.4075701  15.6085067  91.7624140
  38.2268590  16.1029146  91.7858978  37.6812509  14.6917035  91.7341708
  47.1642297   7.9995820  81.1252096  46.2768152   8.2845470  80.9072291
  47.5796286   7.8389583  80.2779373  50.5156834   8.0242341  84.8406435
  51.2917224   8.5138793  85.1131052  49.7904968   8.4500395  85.2978305
  52.9529392   8.7369960  85.8980376  53.5473883   8.4965696  85.1873684
  53.0255976   8.0177090  86.5253912  35.1726548  22.5803571  86.2123541
  35.0381016  21.8203972  85.6461539  34.7558610  23.3044471  85.7452329
  46.3085511  17.7640494  75.2200116  47.0121361  17.9690497  75.8357771
  45.5848160  18.3317256  75.4849199  47.1383321  13.5150356  81.3402386
  47.0818523  13.9718907  80.5010018  47.6911664  12.7541040  81.1625229
  50.9488127   9.3040087  82.1652506  50.6925061   8.9036723  82.9960713
  50.3240995  10.0183881  82.0402645  55.2600465  12.0436161  84.6723797
  54.7000023  12.1129350  85.4455359  54.6543968  11.8677145  83.9523293
  38.3295674  23.4772888  86.4241983  38.2128058  24.4218320  86.3220673
  37.5088120  23.1746449  86.8127782  48.2172208  18.2023023  77.2698576
  49.0517812  17.7704222  77.0876051  48.0556551  18.0305037  78.1975470
  47.8718100  14.7055137  78.6354915  47.8166904  14.5399408  77.6943359
  47.2464156  15.4131170  78.7917105  45.1864008  17.0104049  97.9608478
  46.0555167  17.1844701  97.5995113  44.7070759  17.8298465  97.8384207
  41.1814226   4.2063246  78.2140234  41.1692896   5.1505086  78.3708504
  42.0737648   4.0233391  77.9199695  39.3550188  24.1301150  89.6397912
  40.2577435  24.1624760  89.9564407  39.1287558  23.2001601  89.6544247
  41.1103790  22.8832136  86.3007990  40.1599421  22.8833998  86.1872363
  41.4136276  22.1364871  85.7844025  44.9966345   0.8006022  82.4686170
  44.2298741   0.2464509  82.6142853  45.4077050   0.8727891  83.3300322
  56.8456483  28.7192675  87.3653753  57.4834893  28.5999422  86.6617093
  56.7277326  29.6673519  87.4241705  53.6546190  28.6720103  87.3015277
  53.3164701  28.5561167  86.4135812  54.5235958  28.2711268  87.2816283
  49.5133005  30.5255579  83.2912168  48.9497870  30.4345516  82.5228456
  49.3985400  29.7055484  83.7714661  54.1365973  29.8254954  93.2601483
  54.1254613  29.4307753  92.3881987  54.2986612  29.0921027  93.8535254
  47.0597437  32.0206771  86.1296389  47.8518729  31.6797595  85.7142688
  47.2994087  32.1301746  87.0498542  55.0932564  34.1926547  78.6026633
  54.4420544  34.7780627  78.2160647  55.8876927  34.7232742  78.6621671
  49.0188191  31.2815684  79.0013768  49.7919067  30.7344671  78.8626643
  49.3713590  32.1459933  79.2128229  50.8573234  32.6092066  92.2080667
  50.5663100  33.5137697  92.0927333  51.4930218  32.6508594  92.9224736
  51.7829441  29.9868915  88.7982027  52.3793013  29.7624937  88.0838989
  51.8404412  29.2453660  89.4007474  51.3554469  27.4408350  76.6332217
  51.6079990  26.9189871  75.8715680  50.4179028  27.2774496  76.7358901
  56.3997752  26.4444128  84.4406961  57.1860841  26.0263552  84.0897378
  56.6636456  27.3490221  84.6088609  56.5707829  31.8816979  79.1395618
  55.9353662  31.9551605  79.8516522  56.2405236  32.4710578  78.4614697
  61.8006179  26.3819362  85.3439939  62.5331351  25.8118578  85.5777769
  61.0445535  25.9940962  85.7846445  51.0750758  29.3436456  78.8356592
  50.9587016  28.6681359  79.5037677  51.1853018  28.8568830  78.0188745
  53.4182299  28.8046603  82.5403282  53.0540506  28.2777224  83.2516203
  54.2749415  28.4145072  82.3669767  59.3231599  20.0940936  89.8034548
  58.9914924  20.9636347  89.5795763  58.7277213  19.7777220  90.4828578
  53.0587786  23.8336503  77.5364630  53.2262188  24.7016739  77.9035101
  52.8684955  23.9963785  76.6125919  55.8163119  32.2953482  89.2030461
  55.5163842  33.1978521  89.0946268  55.4714178  32.0285665  90.0551613
  49.2675600  28.7467279  85.2367165  48.3426097  28.6143493  85.4444857
  49.5160014  29.5261498  85.7337107  59.2160263  24.8136022  86.8827898
  58.3077140  24.7451430  86.5886659  59.1647858  25.2907967  87.7109723
  53.0377007  26.2894160  78.5211297  52.9176632  26.7351211  79.3596777
  52.3429595  26.6379478  77.9624835  46.6284411  28.3900552  86.0710954
  46.7576793  28.6435031  86.9850366  45.9481863  28.9828260  85.7515609
  50.7983899  39.0597802  82.1701428  50.7207928  40.0105627  82.2489909
  50.1945542  38.7143675  82.8276355  53.2901128  26.2325668  94.8262795
  52.5134462  26.7919588  94.8165660  53.9291691  26.7182451  95.3477665
  61.0821909  23.0152460  88.6605772  60.4396289  23.3084994  88.0145566
  60.5776838  22.9005381  89.4658968  58.7362073  26.7615634  79.3491631
  59.6479929  26.9943020  79.1739329  58.2271720  27.3452678  78.7866710
  51.5447501  29.0411121  94.3880762  52.2862185  29.5796165  94.1115586
  50.8384486  29.6677410  94.5452314  57.0202840  31.1840261  92.9852924
  57.4286196  30.7422672  92.2407556  56.2980102  30.6092889  93.2387117
  53.3733910  26.1212868  90.3586481  54.2195106  26.5452282  90.5021130
  53.3132548  25.4646492  91.0525044  57.3431655  31.7441452  86.7405213
  56.7140517  31.9087166  86.0381280  56.9557317  32.1583062  87.5116177
  61.2220887  32.6795890  84.0949576  60.5371925  33.0594791  83.5446610
  61.3064736  33.2891216  84.8281524  56.5233356  23.7817236  92.0167654
  56.2794288  24.5359297  91.4801930  56.7993286  24.1602584  92.8514901
  58.4771818  30.3255849  90.6944920  58.6888714  30.9687609  90.0179301
  58.4301567  29.4918165  90.2266850  56.0798047  22.9373670  87.5981492
  55.2182526  23.2354923  87.8898230  56.1060482  23.1544068  86.6662525
  52.8959617  31.4815860  84.0055298  53.3597962  31.7603563  83.2159920
  52.6316415  30.5799305  83.8228388  49.7883698  31.0287342  86.9435061
  50.3585055  31.4574610  86.3052545  50.3791810  30.7469926  87.6419247
  51.8328503  27.6039012  80.8144863  52.5352546  28.0560056  81.2818789
  51.5009131  26.9622831  81.4424756  50.2808864  26.1950769  95.1896072
  49.6507525  26.8767050  95.4231469  50.1744952  26.0833851  94.2449210
  45.5753837  25.8622565  86.1161996  44.7852891  26.1180094  85.6402107
  46.0665084  26.6770903  86.2214037  59.5917646  33.2027804  88.8667277
  60.4135090  32.8007992  88.5849959  59.5880049  33.0996038  89.8183393
  47.5268582  26.2267144  83.0745473  46.7299746  26.3385839  83.5928969
  47.2994174  26.5653797  82.2086364  53.3574250  32.7511848  91.0227988
  53.4218682  33.2132255  91.8586159  52.6485174  32.1209212  91.1510297
  43.8591540  26.1153056  88.5476987  44.1099578  27.0000065  88.8134563
  44.3951088  25.9357657  87.7752079  67.6823639  29.5466553  85.2152249
  66.9287348  28.9773951  85.0596253  67.8171181  29.5129217  86.1622883
  53.0722268  34.4179955  80.8906968  52.9367942  35.2631491  81.3191816
  53.6132080  34.6199233  80.1272902  49.5589607  20.4971535  97.5521323
  49.1656553  19.9437733  98.2268967  50.3755747  20.8082113  97.9427841
  46.5251665  31.9355393  81.4634893  47.0376185  32.7298643  81.6140458
  47.1774378  31.2381684  81.3968495  48.3346550  35.0521149  83.5457646
  48.5113178  35.9739114  83.3578630  49.1303383  34.7379569  83.9752026
  52.4757568  21.9129414  95.1441580  53.2167282  22.5136567  95.0646042
  52.7075491  21.1707052  94.5859622  47.6198906  27.0985781  93.4219809
  47.5052421  26.1971039  93.7226908  46.7643424  27.3449478  93.0704626
  54.6990744  35.0403522  95.0207310  54.2554598  34.2539900  94.7028215
  55.3607957  35.2282672  94.3551201  49.4577865  36.5699323  89.5467989
  50.0085290  36.4416387  88.7744983  48.6189341  36.8694212  89.1962881
  56.7971982  35.3206322  93.0488711  56.7790457  36.1415203  92.5568981
  57.7191902  35.1960397  93.2738852  53.2545036  32.8350451  93.8912220
  53.7873373  32.0738739  93.6611528  52.7259117  32.5424103  94.6336374
  56.4214731  17.9410517  89.4205861  56.0779000  18.8312159  89.3444972
  56.7893694  17.7512175  88.5575446  44.4900582  30.2644047  82.2394464
  45.3275804  30.6741056  82.0228171  44.6678849  29.3243490  82.2094657
  56.3865014  27.9319128  77.9278297  55.8711637  28.7023733  78.1666684
  56.1142322  27.2584264  78.5511358  53.9712125  22.7768829  82.9863535
  53.1153721  22.3875679  82.8069174  54.3839077  22.8560790  82.1263320
  55.5011271  20.3115172  87.3855095  54.9976067  20.2745307  86.5722900
  55.7941878  21.2207915  87.4451751  51.7454157  20.3953902  86.3921276
  52.6107154  20.1996711  86.0327166  51.8131666  20.1664254  87.3190633
  61.3599288  30.6851483  79.8631470  60.5828731  30.3462642  79.4186632
  62.0390769  30.6904106  79.1886435  56.1751317  25.8046220  79.7538078
  55.8701453  26.1192369  80.6048221  57.1281759  25.8827640  79.7965411
  54.6197749  31.9636443  81.4031032  54.0919110  31.2289203  81.0904269
  54.1185252  32.7411120  81.1571000  59.5990595  30.1585464  86.5198078
  58.9414269  30.8484725  86.6078207  60.4030994  30.5481896  86.8632064
  49.3516476  22.6256110  83.7637643  49.9260228  22.4031291  83.0310836
  49.9387459  22.6944804  84.5166245  58.4096054  28.5129837  84.5702020
  58.9227935  29.1459828  85.0723729  59.0597278  27.9131032  84.2045380
  49.6786064  24.6560571  77.7833529  48.8423376  24.9935257  78.1042803
  49.5390833  24.5209551  76.8460665  51.6539144  19.4997359  82.4912713
  51.0003557  19.1846376  81.8669327  51.6119618  18.8773099  83.2172536
  52.7650349  29.7816654  74.4066005  51.8577411  29.5505907  74.6057154
  53.2621381  28.9854273  74.5939986  55.6718428  38.4914161  77.3262691
  54.9980127  38.7945858  77.9347649  56.0584250  39.2943241  76.9768148
  54.8876885  25.9879292  86.8160360  53.9699446  26.2094239  86.6582048
  55.3037028  26.0625603  85.9572068  55.6711932  27.3870708  81.9463041
  56.4183751  27.8992105  81.6370163  55.9403522  27.0654761  82.8067434
  53.9438582  29.8829249  78.9289995  53.0349802  29.5988281  79.0262465
  53.9733666  30.3028327  78.0693302  59.1757850  33.4935838  82.6981162
  58.7220177  32.6526748  82.7546353  58.5451817  34.1297236  83.0355943
  58.1190769  24.4227824  83.9281830  57.3813526  23.9105210  84.2592072
  58.3717543  23.9828206  83.1165107  57.6190789  35.3312335  83.6330981
  57.9113763  35.8917392  82.9143346  58.1289410  35.6240896  84.3884140
  58.2202397  17.2004076  84.5223599  58.5261274  16.3401440  84.2349514
  58.9455002  17.7921696  84.3222593  44.5126753  27.6034763  82.9105197
  44.3151153  27.0104123  82.1856264  43.9573417  27.2986973  83.6281136
  52.4923477  27.4957869  85.0299790  52.5472086  26.5431706  84.9542267
  51.6814679  27.6517308  85.5141089  53.6414670  31.4237992  76.2678073
  53.2034100  30.7073851  75.8083711  54.3825111  31.6514107  75.7063165
  50.4315836  26.1134929  82.7890169  49.6183702  26.4129099  83.1955361
  50.9274831  25.7190618  83.5064651  52.5824414  36.1092686  84.7224434
  52.5400593  36.3353532  83.7932966  53.4987113  35.8756060  84.8710235
  56.0290048  26.5776753  91.6205063  56.3839436  26.8048227  92.4799529
  56.6762179  26.9095130  90.9982318  61.7587785  29.6995189  82.3254392
  61.6205684  29.8896785  81.3975581  61.4024004  30.4614572  82.7822443
  49.9229911  23.6853284  88.4051404  50.5629291  23.5442044  87.7074367
  49.0907442  23.3987798  88.0290006  61.7857165  31.7671716  87.3365663
  62.2193671  31.6747005  88.1848718  62.4988745  31.7429217  86.6985679
  50.6990215  32.9855715  84.5186396  51.4930814  32.4906035  84.3168971
  49.9881907  32.4573578  84.1554102  55.5185060  35.3673810  88.8698764
  55.5722082  35.9364747  89.6376480  54.6499841  35.5375695  88.5052801
  47.0072979  27.1298797  80.5946149  46.0770567  27.0683252  80.8116111
  47.1030451  26.6074749  79.7982790  46.9258528  23.6553609  83.1824391
  47.1865345  24.5698943  83.0733551  47.7475700  23.1878052  83.3321004
  48.3983453  25.0691367  90.3523215  49.0706506  24.8608729  89.7035864
  47.5713239  24.8713453  89.9128448  62.6472714  31.8095417  89.8698549
  62.8408604  32.7141227  90.1157824  62.5473332  31.3502836  90.7037134
  54.3009025  21.6953308  92.3688876  53.6536940  22.3943257  92.2753353
  55.0710040  22.1289451  92.7365124  57.7087823  31.9602160  95.4439429
  57.5573329  31.7312711  94.5269513  57.6992502  32.9172761  95.4570775
  54.4773159  29.5334072  90.4285696  55.4065219  29.6845232  90.2554663
  54.0564189  29.6218093  89.5734342  53.2761491  33.5584737  88.1984234
  53.1372577  33.1903521  89.0710172  52.4876087  34.0732376  88.0268191
  53.8709643  38.6593833  79.5409770  54.0461399  38.1881877  80.3555393
  53.1842431  39.2859600  79.7691031  54.8266706  32.9366340  85.5873071
  54.4916539  32.8967110  86.4830721  54.3270652  32.2711055  85.1143482
  48.8010950  28.3433970  91.1125653  48.6630748  27.6114208  91.7137192
  49.7115874  28.2542870  90.8309840  57.7625898  30.2822374  75.8610131
  57.1455069  29.5569202  75.7643184  57.2942386  31.0431734  75.5177205
  51.4293251  28.0553929  90.6009332  52.1392869  27.4147121  90.5595951
  51.3862559  28.3066824  91.5235513  59.4180030  34.9921282  93.5215911
  59.3592576  34.3080502  92.8546494  59.8199548  35.7340272  93.0696537
  50.1422185  25.0419147  92.4204972  49.6059542  24.5909885  93.0726568
  49.5538893  25.1765056  91.6775436  48.4370728  41.8083196  86.3149630
  48.6767327  42.4401720  86.9928649  47.5939925  41.4571236  86.6014990
  49.5524444  24.5007798  74.9831435  48.6753910  24.3796599  74.6193682
  50.0282197  23.7093877  74.7310324  59.4197437  32.9560866  91.7529891
  58.5324216  32.6186788  91.8756290  59.9895988  32.2243897  91.9898656
  41.0726584  29.2884958  85.0772942  41.7597624  28.9746688  84.4893958
  40.9174713  30.1926323  84.8040194  45.8761306  24.1775155  89.5057966
  45.7919495  23.5700824  88.7708376  45.0544012  24.6684173  89.5067462
  52.9498590  37.6162319  88.7191134  52.8768762  38.4217290  89.2310439
  52.5075983  37.8154284  87.8939156  52.7388370  36.8534089  82.2293956
  51.9555892  37.3955769  82.3232180  53.4381115  37.3708068  82.6288197
  56.0485020  22.6628718  84.8728161  56.5453719  21.9098680  84.5529231
  55.2772001  22.6993035  84.3071370  63.9014777  28.3669084  86.5146453
  63.8904654  29.2493799  86.1440386  63.0332157  28.0140634  86.3200990
  55.4097274  37.5149153  90.8749293  56.1225246  38.1496617  90.8025194
  54.9187302  37.6113019  90.0589295  57.1314801  31.4200405  82.4466585
  56.1971079  31.5401868  82.2771289  57.3091469  30.5172872  82.1826594
  52.6319989  24.8046101  84.5999846  52.2617776  24.2517141  85.2880751
  53.1279081  24.2004235  84.0474846  60.5187352  27.2617725  82.9816619
  60.9847804  28.0945716  82.9076921  60.9694852  26.7962706  83.6861877
  50.4609187  35.2643596  91.6954864  51.1618647  35.8980079  91.8484258
  49.9904302  35.6058328  90.9350503  58.5863583  33.6061546  79.9802771
  58.8623427  33.4918140  80.8896645  57.7168082  33.2079031  79.9414944
  58.4904015  19.6298312  87.0207520  57.5767095  19.8602538  87.1889727
  58.9197116  19.7136756  87.8721552  58.2610473  27.8188203  89.5207414
  57.6081923  28.0664111  88.8659867  58.6390853  27.0052342  89.1869891
  55.2217647  37.8547897  83.6235584  55.4040042  37.0369553  84.0863337
  56.0450633  38.0715589  83.1860474  55.5559813  36.7816082  80.8850633
  56.0847579  36.2708536  80.2720795  55.8188032  36.4658612  81.7496166
  54.3098046  28.5608015  96.0073451  53.6338683  28.4602144  96.6775826
  55.1325680  28.4047228  96.4709448  46.0576905  34.7979951  88.6285966
  46.6430342  34.0523639  88.7613871  45.8601744  35.1083908  89.5122630
  48.9115561  37.8331198  83.6448409  48.2425936  38.3177326  83.1612449
  48.7728430  38.0800419  84.5591787  40.6494560  27.3685551  87.3490410
  40.6878660  26.8349142  88.1427528  40.1434853  26.8420757  86.7301387
  53.0520829  39.8674942  90.2431067  53.6039137  40.0306564  91.0080152
  53.3927023  40.4579380  89.5711092  48.0285322  22.2150092  90.8452952
  48.0926649  23.0764923  90.4330350  47.9652443  21.6024093  90.1125310
  47.5037595  24.2873224  94.4925986  48.1309634  23.9050302  95.1063510
  46.6465514  24.0687426  94.8581679  57.9031703  34.6936200  96.0979722
  58.4471607  35.3066158  95.6034676  57.3218548  35.2515778  96.6146735
  44.2803138  26.0949653  80.4244341  44.5756579  25.1860332  80.3711395
  43.3791173  26.0737393  80.1025343  56.1889216  37.8156918  87.2294749
  56.0640356  37.0146657  86.7205695  56.8468308  38.3103111  86.7408719
  47.8097385  24.1705650  86.4071890  47.0883970  24.7841618  86.2679363
  48.5990640  24.7063415  86.3288535  58.2524125  35.6165938  88.8574299
  57.3054460  35.4971289  88.7852626  58.6006898  34.7288436  88.9400561
  50.6123698  21.5060077  92.6812541  51.1358100  21.7522373  93.4438851
  50.3936031  22.3380111  92.2615679  46.0090979  23.7763751  80.5483666
  45.6803685  22.8961130  80.3658772  46.3630350  23.7211420  81.4360055
  55.2570558  35.4118654  85.0578652  55.1095521  34.4835361  85.2386222
  56.0824052  35.4338745  84.5735727  49.1232802  24.0636721  80.9159144
  49.4628875  24.5922642  80.1937752  49.5704923  24.4017127  81.6917710
  58.8604680  36.2347213  86.1443524  59.7851227  36.0290074  86.0067976
  58.6919983  35.9863614  87.0532866  51.8176243  22.4473772  90.3662212
  51.4773064  21.6481585  90.7682892  51.1115249  22.7475482  89.7939045
  52.4692715  19.5323084  88.8189535  53.2918784  19.0583562  88.6968425
  52.7130779  20.3113568  89.3188221  51.1100950  22.5611343  79.1152437
  51.8309312  22.9392595  78.6116153  50.4866254  23.2800219  79.2187414
  55.2532072  23.2656491  80.0510769  55.4695687  24.1481129  79.7499597
  54.7726140  22.8742705  79.3216411  49.9931294  26.2242205  86.6281513
  49.8475874  26.5382508  87.5205795  49.5156497  26.8427105  86.0752412
  51.8527677  23.2144753  86.6762403  51.8389245  22.3185846  86.3394701
  52.5700105  23.2215416  87.3100689  53.7053807  23.6482093  88.7215530
  53.4471585  24.5699164  88.7199861  53.1738848  23.2512527  89.4115995
  58.6499996  36.7532880  81.5005616  58.8236874  36.1879302  80.7479468
  59.1428887  37.5533775  81.3185106  44.4676956  28.7647549  89.5669175
  43.9230424  29.5407357  89.6989449  45.3456306  29.1118354  89.4088296
  51.2564573  22.0959133  81.9449973  51.3780484  21.1675779  82.1440861
  50.9666615  22.1097819  81.0328289  54.1255763  19.7814043  85.0816693
  54.1477460  19.8453376  84.1268673  54.5423822  18.9418552  85.2757199
  64.5039387  29.5169303  83.1195916  64.9470533  28.7676628  82.7215039
  63.6265898  29.5079439  82.7369648  59.6375169  36.0699644  78.6002514
  60.3326073  36.6906337  78.8189829  59.9798319  35.2194996  78.8754892
  45.2542978  27.8917445  92.4599332  44.5124714  28.0400081  93.0463962
  44.9335722  28.1525711  91.5966081  61.5366592  33.5199350  80.1289845
  62.0617916  33.8586623  79.4039165  61.4488944  32.5846365  79.9452980
  53.1986640  37.4333424  92.2579722  53.5073767  37.1882570  93.1302421
  53.9962122  37.6380062  91.7698592  53.2207252  39.5871333  84.4885098
  52.7812243  39.0947712  85.1817955  53.9715369  39.0444301  84.2477173
  45.6999591  35.7782874  84.4909726  46.5257611  35.4786646  84.1108370
  45.3493643  35.0090497  84.9399515  50.6681125  35.1309342  86.5607400
  50.0461134  34.4680047  86.2609628  51.3385992  35.1570474  85.8781048
  43.9008197  33.6969201  85.4498660  43.0640105  33.2691375  85.2682661
  43.8731842  33.8901644  86.3869451  50.7405652  23.6091130  96.1539906
  50.7893808  24.4853253  95.7717675  51.2828166  23.0668523  95.5811549
  61.2260498  34.1532254  95.4341043  60.4356042  34.1356392  94.8945542
  60.9893852  34.6920547  96.1890079  61.3458373  31.0024720  92.7473771
  61.3956378  30.8374727  93.6889294  61.2372296  30.1351979  92.3571652
  50.2294632  33.6813266  80.0365860  50.3782752  34.3648730  79.3832533
  51.0361075  33.6618356  80.5515316  58.6362135  26.9855648  94.0633078
  59.5371998  26.8462113  93.7717076  58.7110110  27.1510103  95.0031256
  52.9704941  24.3622503  92.9086264  52.1008250  24.6556069  92.6368853
  53.2064421  24.9462948  93.6293528  62.8476570  33.4221661  92.9915793
  62.5561378  33.7851642  93.8279254  62.2348701  32.7088670  92.8129125
  64.0472252  30.9874541  85.5118363  64.8819143  31.4264345  85.6755924
  64.1831381  30.5113194  84.6926609  61.0963758  28.5454276  91.4595851
  61.5717880  28.7381922  90.6514702  60.1729323  28.6013462  91.2139235
  47.9847265  29.7078443  81.0426929  47.7393306  28.8040773  81.2407139
  48.1543179  29.7095594  80.1006407  55.6743974  20.5802120  90.4251685
  56.1925918  21.3163147  90.0998173  55.3199107  20.8866113  91.2598444
  47.2542912  25.4406801  78.5413091  46.5612157  25.5151156  77.8853127
  47.0094664  24.6767144  79.0634608  55.9256569  17.0002402  85.9452581
  56.2058322  16.3325591  86.5713008  56.7107176  17.1931498  85.4327245
  53.7290037  36.1761396  77.5077608  53.1564004  36.7951583  77.0548080
  54.3022831  36.7260758  78.0417530  59.7965427  25.4220036  89.6924157
  60.7482850  25.5218134  89.7136381  59.6268877  24.6298305  90.2022241
  57.8179806  22.5075619  89.8783557  57.2229739  22.7880632  89.1830046
  57.5329503  22.9969520  90.6500299  56.9487297  36.4598546  78.6386190
  57.8817970  36.3944108  78.8419065  56.8610510  37.2954813  78.1800723
  59.5775314  35.7764417  75.5990138  59.4988945  35.4424280  76.4925895
  60.3984980  36.2686184  75.5981610  62.2753505  28.6426156  88.8066456
  62.2429825  27.7042157  88.9926140  62.8854128  28.7210193  88.0732281
  54.1136836  27.5122209  74.8493660  55.0595940  27.3828417  74.9182078
  53.7351081  26.7736871  75.3263088  62.4247993  25.4337199  88.8524739
  61.9087042  24.6495656  88.6654668  63.3087942  25.1055916  89.0171259
  60.0858720  19.1778215  84.8120552  59.8883541  18.8693303  85.6963884
  60.6958426  19.9039854  84.9418482  68.0930055  29.7042163  87.9472493
  68.8233443  29.4427451  88.5080196  67.4837000  28.9670885  87.9874561
  66.1745352  27.8450025  88.5446944  65.4478515  27.7105990  87.9363436
  65.7592639  28.1526854  89.3503662  53.9975528  31.5639955  96.3094317
  54.9178538  31.7418554  96.5034364  53.9625111  30.6196000  96.1574016
  52.2979753  25.4372185  74.7848545  51.3911208  25.1405298  74.8611259
  52.5755734  25.1402003  73.9182832  43.2157693  26.7578549  85.2347592
  42.8960477  25.9043857  84.9421966  42.6691121  26.9727127  85.9905559
  46.9937601  29.4740990  88.9517098  47.2123610  30.4058097  88.9705132
  47.4063374  29.1148964  89.7371902  53.9141818  19.9809075  80.9392787
  53.1042547  19.6356160  81.3148033  54.6026235  19.6716619  81.5280398
  55.8432367  19.0587122  82.5617083  56.3963405  19.4782575  83.2207106
  56.0802453  18.1322870  82.6040039  51.8665466  25.0474195  98.3419847
  51.7662193  25.9968552  98.2731938  51.6487008  24.7192434  97.4695917
  51.0678537  22.2959120  74.9260525  51.9297701  22.6214019  75.1856342
  51.2528882  21.5090616  74.4133590  43.0845953  30.3781460  87.2040713
  42.3909425  29.9635413  86.6910668  43.8318944  30.4201997  86.6074132
  59.2211174  21.1687647  82.0695748  58.6409843  21.8272451  81.6873800
  58.9547107  20.3464992  81.6583165  57.6714740  20.5692705  84.2717068
  58.1714519  20.6809239  83.4631387  58.3150348  20.2653757  84.9117876
  51.7296736  28.4771334  97.1584909  51.2463818  29.2771694  97.3648798
  51.8157675  28.4879279  96.2052353  44.9982696  30.3099714  85.0806728
  44.9753384  30.4087401  84.1288611  45.3083332  31.1564865  85.4023894
  47.6570074  32.3675869  89.1953343  48.6113327  32.3359811  89.1283274
  47.4582597  31.9066493  90.0103569  48.2469456  30.9376985  91.7624140
  49.0662345  31.4321064  91.7858978  48.5206263  30.0208953  91.7341708
  58.0036052  23.3287737  81.1252096  57.1161907  23.6137388  80.9072291
  58.4190041  23.1681501  80.2779373  61.3550588  23.3534258  84.8406435
  62.1310978  23.8430711  85.1131052  60.6298722  23.7792312  85.2978305
  63.7923147  24.0661878  85.8980376  64.3867637  23.8257613  85.1873684
  63.8649730  23.3469008  86.5253912  46.0120302  37.9095488  86.2123541
  45.8774770  37.1495889  85.6461539  45.5952365  38.6336388  85.7452329
  57.1479265  33.0932412  75.2200116  57.8515115  33.2982414  75.8357771
  56.4241914  33.6609174  75.4849199  57.9777076  28.8442273  81.3402386
  57.9212277  29.3010825  80.5010018  58.5305418  28.0832958  81.1625229
  61.7881882  24.6332005  82.1652506  61.5318816  24.2328641  82.9960713
  61.1634750  25.3475799  82.0402645  66.0994219  27.3728078  84.6723797
  65.5393777  27.4421268  85.4455359  65.4937723  27.1969063  83.9523293
  49.1689428  38.8064805  86.4241983  49.0521812  39.7510238  86.3220673
  48.3481874  38.5038367  86.8127782  59.0565963  33.5314941  77.2698576
  59.8911567  33.0996140  77.0876051  58.8950306  33.3596955  78.1975470
  58.7111855  30.0347054  78.6354915  58.6560659  29.8691326  77.6943359
  58.0857910  30.7423087  78.7917105  43.5004370  25.2715119  92.4616337
  44.1463233  24.7614073  92.9503563  43.2921521  26.0083801  93.0359763
  56.0257762  32.3395966  97.9608478  56.8948922  32.5136619  97.5995113
  55.5464514  33.1590383  97.8384207  52.0207980  19.5355163  78.2140234
  52.0086650  20.4797003  78.3708504  52.9131402  19.3525309  77.9199695
  50.1943942  39.4593067  89.6397912  51.0971189  39.4916678  89.9564407
  49.9681312  38.5293518  89.6544247  51.9497544  38.2124054  86.3007990
  50.9993175  38.2125916  86.1872363  52.2530030  37.4656788  85.7844025
  55.8360100  16.1297940  82.4686170  55.0692496  15.5756427  82.6142853
  56.2470805  16.2019809  83.3300322  47.8401861  22.4182736  96.5591352
  48.7033322  22.0619541  96.7694676  47.2667272  22.0796631  97.2466756
  67.6850238  44.0484592  87.3653753  68.3228648  43.9291340  86.6617093
  67.5671081  44.9965436  87.4241705  64.4939944  44.0012020  87.3015277
  64.1558456  43.8853085  86.4135812  65.3629712  43.6003185  87.2816283
  60.3526760  45.8547497  83.2912168  59.7891625  45.7637434  82.5228456
  60.2379155  45.0347401  83.7714661  64.9759727  45.1546872  93.2601483
  64.9648368  44.7599670  92.3881987  65.1380367  44.4212945  93.8535254
  57.8991192  47.3498688  86.1296389  58.6912484  47.0089513  85.7142688
  58.1387842  47.4593663  87.0498542  65.9326319  49.5218465  78.6026633
  65.2814298  50.1072545  78.2160647  66.7270681  50.0524659  78.6621671
  59.8581946  46.6107602  79.0013768  60.6312822  46.0636589  78.8626643
  60.2107345  47.4751851  79.2128229  61.6966988  47.9383984  92.2080667
  61.4056854  48.8429615  92.0927333  62.3323973  47.9800512  92.9224736
  62.6223195  45.3160832  88.7982027  63.2186767  45.0916855  88.0838989
  62.6798167  44.5745578  89.4007474  62.1948223  42.7700268  76.6332217
  62.4473744  42.2481789  75.8715680  61.2572783  42.6066413  76.7358901
  67.2391506  41.7736046  84.4406961  68.0254596  41.3555469  84.0897378
  67.5030211  42.6782138  84.6088609  67.4101584  47.2108896  79.1395618
  66.7747417  47.2843523  79.8516522  67.0798990  47.8002495  78.4614697
  72.6399933  41.7111279  85.3439939  73.3725105  41.1410496  85.5777769
  71.8839289  41.3232880  85.7846445  61.9144512  44.6728374  78.8356592
  61.7980770  43.9973277  79.5037677  62.0246772  44.1860748  78.0188745
  64.2576053  44.1338521  82.5403282  63.8934260  43.6069142  83.2516203
  65.1143169  43.7436990  82.3669767  70.1625354  35.4232853  89.8034548
  69.8308679  36.2928264  89.5795763  69.5670967  35.1069137  90.4828578
  63.8981540  39.1628421  77.5364630  64.0655942  40.0308657  77.9035101
  63.7078709  39.3255702  76.6125919  66.6556873  47.6245399  89.2030461
  66.3557596  48.5270438  89.0946268  66.3107933  47.3577583  90.0551613
  60.1069355  44.0759196  85.2367165  59.1819851  43.9435410  85.4444857
  60.3553768  44.8553416  85.7337107  70.0554017  40.1427940  86.8827898
  69.1470894  40.0743348  86.5886659  70.0041613  40.6199885  87.7109723
  63.8770761  41.6186078  78.5211297  63.7570386  42.0643129  79.3596777
  63.1823349  41.9671396  77.9624835  57.4678166  43.7192470  86.0710954
  57.5970547  43.9726949  86.9850366  56.7875617  44.3120178  85.7515609
  61.6377653  54.3889720  82.1701428  61.5601683  55.3397545  82.2489909
  61.0339297  54.0435592  82.8276355  64.1294883  41.5617585  94.8262795
  63.3528217  42.1211505  94.8165660  64.7685446  42.0474368  95.3477665
  71.9215664  38.3444378  88.6605772  71.2790044  38.6376911  88.0145566
  71.4170592  38.2297298  89.4658968  69.5755827  42.0907551  79.3491631
  70.4873683  42.3234938  79.1739329  69.0665474  42.6744595  78.7866710
  62.3841255  44.3703039  94.3880762  63.1255940  44.9088083  94.1115586
  61.6778241  44.9969327  94.5452314  67.8596595  46.5132179  92.9852924
  68.2679951  46.0714590  92.2407556  67.1373856  45.9384807  93.2387117
  64.2127665  41.4504786  90.3586481  65.0588860  41.8744199  90.5021130
  64.1526303  40.7938410  91.0525044  68.1825409  47.0733370  86.7405213
  67.5534272  47.2379084  86.0381280  67.7951072  47.4874979  87.5116177
  72.0614641  48.0087808  84.0949576  71.3765680  48.3886709  83.5446610
  72.1458491  48.6183134  84.8281524  67.3627110  39.1109154  92.0167654
  67.1188042  39.8651215  91.4801930  67.6387041  39.4894502  92.8514901
  69.3165573  45.6547767  90.6944920  69.5282468  46.2979526  90.0179301
  69.2695321  44.8210083  90.2266850  66.9191802  38.2665587  87.5981492
  66.0576281  38.5646841  87.8898230  66.9454237  38.4835986  86.6662525
  63.7353371  46.8107778  84.0055298  64.1991717  47.0895481  83.2159920
  63.4710169  45.9091222  83.8228388  60.6277452  46.3579259  86.9435061
  61.1978809  46.7866528  86.3052545  61.2185564  46.0761844  87.6419247
  62.6722257  42.9330930  80.8144863  63.3746301  43.3851974  81.2818789
  62.3402886  42.2914749  81.4424756  61.1202619  41.5242687  95.1896072
  60.4901280  42.2058968  95.4231469  61.0138707  41.4125768  94.2449210
  56.4147591  41.1914483  86.1161996  55.6246645  41.4472011  85.6402107
  56.9058839  42.0062821  86.2214037  70.4311401  48.5319722  88.8667277
  71.2528845  48.1299909  88.5849959  70.4273804  48.4287956  89.8183393
  58.3662337  41.5559062  83.0745473  57.5693500  41.6677756  83.5928969
  58.1387929  41.8945714  82.2086364  64.1968004  48.0803765  91.0227988
  64.2612437  48.5424172  91.8586159  63.4878928  47.4501130  91.1510297
  54.6985294  41.4444973  88.5476987  54.9493333  42.3291983  88.8134563
  55.2344843  41.2649575  87.7752079  78.5217394  44.8758470  85.2152249
  77.7681102  44.3065869  85.0596253  78.6564935  44.8421135  86.1622883
  63.9116022  49.7471873  80.8906968  63.7761697  50.5923408  81.3191816
  64.4525835  49.9491150  80.1272902  60.3983362  35.8263453  97.5521323
  60.0050307  35.2729651  98.2268967  61.2149502  36.1374031  97.9427841
  57.3645419  47.2647311  81.4634893  57.8769940  48.0590561  81.6140458
  58.0168132  46.5673601  81.3968495  59.1740304  50.3813067  83.5457646
  59.3506932  51.3031032  83.3578630  59.9697138  50.0671486  83.9752026
  63.3151323  37.2421332  95.1441580  64.0561036  37.8428485  95.0646042
  63.5469245  36.4998969  94.5859622  58.4592661  42.4277699  93.4219809
  58.3446176  41.5262956  93.7226908  57.6037178  42.6741396  93.0704626
  65.5384498  50.3695439  95.0207310  65.0948353  49.5831818  94.7028215
  66.2001712  50.5574590  94.3551201  60.2971620  51.8991241  89.5467989
  60.8479045  51.7708304  88.7744983  59.4583095  52.1986130  89.1962881
  67.6365736  50.6498239  93.0488711  67.6184212  51.4707120  92.5568981
  68.5585657  50.5252314  93.2738852  64.0938791  48.1642369  93.8912220
  64.6267127  47.4030657  93.6611528  63.5652872  47.8716020  94.6336374
  67.2608486  33.2702435  89.4205861  66.9172755  34.1604076  89.3444972
  67.6287448  33.0804092  88.5575446  55.3294336  45.5935965  82.2394464
  56.1669558  46.0032973  82.0228171  55.5072604  44.6535407  82.2094657
  67.2258768  43.2611046  77.9278297  66.7105392  44.0315650  78.1666684
  66.9536077  42.5876182  78.5511358  64.8105879  38.1060747  82.9863535
  63.9547476  37.7167597  82.8069174  65.2232831  38.1852707  82.1263320
  66.3405026  35.6407090  87.3855095  65.8369822  35.6037225  86.5722900
  66.6335633  36.5499832  87.4451751  62.5847912  35.7245819  86.3921276
  63.4500909  35.5288628  86.0327166  62.6525421  35.4956171  87.3190633
  72.1993042  46.0143400  79.8631470  71.4222485  45.6754560  79.4186632
  72.8784523  46.0196024  79.1886435  67.0145071  41.1338138  79.7538078
  66.7095207  41.4484287  80.6048221  67.9675514  41.2119558  79.7965411
  65.4591503  47.2928361  81.4031032  64.9312865  46.5581121  81.0904269
  64.9579006  48.0703037  81.1571000  70.4384349  45.4877382  86.5198078
  69.7808024  46.1776643  86.6078207  71.2424749  45.8773814  86.8632064
  60.1910231  37.9548027  83.7637643  60.7653983  37.7323209  83.0310836
  60.7781213  38.0236722  84.5166245  69.2489808  43.8421754  84.5702020
  69.7621690  44.4751746  85.0723729  69.8991032  43.2422950  84.2045380
  60.5179818  39.9852488  77.7833529  59.6817130  40.3227175  78.1042803
  60.3784588  39.8501468  76.8460665  62.4932899  34.8289276  82.4912713
  61.8397311  34.5138293  81.8669327  62.4513373  34.2065017  83.2172536
  63.6044104  45.1108571  74.4066005  62.6971165  44.8797825  74.6057154
  64.1015135  44.3146191  74.5939986  66.5112182  53.8206079  77.3262691
  65.8373881  54.1237775  77.9347649  66.8978004  54.6235159  76.9768148
  65.7270639  41.3171210  86.8160360  64.8093200  41.5386157  86.6582048
  66.1430783  41.3917520  85.9572068  66.5105687  42.7162626  81.9463041
  67.2577506  43.2284023  81.6370163  66.7797276  42.3946678  82.8067434
  64.7832337  45.2121166  78.9289995  63.8743556  44.9280199  79.0262465
  64.8127421  45.6320245  78.0693302  70.0151604  48.8227756  82.6981162
  69.5613931  47.9818666  82.7546353  69.3845571  49.4589154  83.0355943
  68.9584524  39.7519742  83.9281830  68.2207281  39.2397128  84.2592072
  69.2111297  39.3120123  83.1165107  68.4584544  50.6604252  83.6330981
  68.7507518  51.2209310  82.9143346  68.9683164  50.9532813  84.3884140
  69.0596151  32.5295994  84.5223599  69.3655028  31.6693357  84.2349514
  69.7848756  33.1213614  84.3222593  55.3520507  42.9326680  82.9105197
  55.1544907  42.3396041  82.1856264  54.7967171  42.6278891  83.6281136
  63.3317231  42.8249787  85.0299790  63.3865841  41.8723623  84.9542267
  62.5208433  42.9809226  85.5141089  64.4808425  46.7529910  76.2678073
  64.0427855  46.0365769  75.8083711  65.2218866  46.9806025  75.7063165
  61.2709591  41.4426847  82.7890169  60.4577456  41.7421017  83.1955361
  61.7668585  41.0482535  83.5064651  63.4218169  51.4384604  84.7224434
  63.3794348  51.6645450  83.7932966  64.3380868  51.2047978  84.8710235
  66.8683803  41.9068671  91.6205063  67.2233190  42.1340144  92.4799529
  67.5155934  42.2387048  90.9982318  72.5981540  45.0287107  82.3254392
  72.4599438  45.2188703  81.3975581  72.2417758  45.7906490  82.7822443
  60.7623666  39.0145202  88.4051404  61.4023045  38.8733961  87.7074367
  59.9301196  38.7279716  88.0290006  72.6250919  47.0963634  87.3365663
  73.0587426  47.0038923  88.1848718  73.3382500  47.0721134  86.6985679
  61.5383970  48.3147633  84.5186396  62.3324568  47.8197953  84.3168971
  60.8275662  47.7865496  84.1554102  66.3578814  50.6965728  88.8698764
  66.4115836  51.2656664  89.6376480  65.4893595  50.8667613  88.5052801
  57.8466733  42.4590714  80.5946149  56.9164321  42.3975170  80.8116111
  57.9424205  41.9366667  79.7982790  57.7652282  38.9845527  83.1824391
  58.0259099  39.8990860  83.0733551  58.5869454  38.5169970  83.3321004
  59.2377207  40.3983284  90.3523215  59.9100261  40.1900646  89.7035864
  58.4106994  40.2005370  89.9128448  73.4866469  47.1387335  89.8698549
  73.6802359  48.0433145  90.1157824  73.3867087  46.6794754  90.7037134
  65.1402779  37.0245225  92.3688876  64.4930694  37.7235175  92.2753353
  65.9103795  37.4581369  92.7365124  68.5481577  47.2894077  95.4439429
  68.3967084  47.0604629  94.5269513  68.5386257  48.2464679  95.4570775
  65.3166914  44.8625990  90.4285696  66.2458974  45.0137150  90.2554663
  64.8957944  44.9510011  89.5734342  64.1155246  48.8876655  88.1984234
  63.9766331  48.5195439  89.0710172  63.3269842  49.4024294  88.0268191
  64.7103398  53.9885751  79.5409770  64.8855153  53.5173794  80.3555393
  64.0236186  54.6151517  79.7691031  65.6660461  48.2658257  85.5873071
  65.3310293  48.2259027  86.4830721  65.1664406  47.6002973  85.1143482
  59.6404705  43.6725887  91.1125653  59.5024503  42.9406126  91.7137192
  60.5509628  43.5834787  90.8309840  68.6019652  45.6114292  75.8610131
  67.9848823  44.8861120  75.7643184  68.1336141  46.3723652  75.5177205
  62.2687005  43.3845847  90.6009332  62.9786624  42.7439039  90.5595951
  62.2256314  43.6358741  91.5235513  70.2573784  50.3213200  93.5215911
  70.1986330  49.6372420  92.8546494  70.6593302  51.0632190  93.0696537
  60.9815939  40.3711064  92.4204972  60.4453296  39.9201803  93.0726568
  60.3932648  40.5056973  91.6775436  59.2764483  57.1375114  86.3149630
  59.5161081  57.7693638  86.9928649  58.4333679  56.7863154  86.6014990
  60.3918198  39.8299716  74.9831435  59.5147665  39.7088517  74.6193682
  60.8675951  39.0385794  74.7310324  70.2591191  48.2852784  91.7529891
  69.3717970  47.9478706  91.8756290  70.8289742  47.5535815  91.9898656
  51.9120338  44.6176876  85.0772942  52.5991378  44.3038606  84.4893958
  51.7568467  45.5218240  84.8040194  56.7155061  39.5067072  89.5057966
  56.6313249  38.8992742  88.7708376  55.8937767  39.9976090  89.5067462
  63.7892345  52.9454236  88.7191134  63.7162516  53.7509208  89.2310439
  63.3469738  53.1446202  87.8939156  63.5782124  52.1826006  82.2293956
  62.7949646  52.7247686  82.3232180  64.2774869  52.6999986  82.6288197
  66.8878774  37.9920636  84.8728161  67.3847474  37.2390598  84.5529231
  66.1165756  38.0284952  84.3071370  74.7408532  43.6961001  86.5146453
  74.7298408  44.5785717  86.1440386  73.8725911  43.3432552  86.3200990
  66.2491028  52.8441070  90.8749293  66.9619000  53.4788535  90.8025194
  65.7581057  52.9404936  90.0589295  67.9708555  46.7492323  82.4466585
  67.0364834  46.8693785  82.2771289  68.1485224  45.8464790  82.1826594
  63.4713743  40.1338019  84.5999846  63.1011531  39.5809059  85.2880751
  63.9672836  39.5296152  84.0474846  71.3581106  42.5909642  82.9816619
  71.8241559  43.4237634  82.9076921  71.8088607  42.1254624  83.6861877
  61.3002942  50.5935514  91.6954864  62.0012401  51.2271997  91.8484258
  60.8298057  50.9350245  90.9350503  69.4257338  48.9353464  79.9802771
  69.7017181  48.8210058  80.8896645  68.5561836  48.5370948  79.9414944
  69.3297769  34.9590229  87.0207520  68.4160849  35.1894456  87.1889727
  69.7590871  35.0428673  87.8721552  69.1004228  43.1480121  89.5207414
  68.4475678  43.3956029  88.8659867  69.4784608  42.3344259  89.1869891
  66.0611402  53.1839814  83.6235584  66.2433796  52.3661470  84.0863337
  66.8844388  53.4007507  83.1860474  66.3953567  52.1107999  80.8850633
  66.9241334  51.6000454  80.2720795  66.6581787  51.7950530  81.7496166
  65.1491801  43.8899932  96.0073451  64.4732438  43.7894062  96.6775826
  65.9719435  43.7339146  96.4709448  56.8970660  50.1271869  88.6285966
  57.4824097  49.3815557  88.7613871  56.6995498  50.4375825  89.5122630
  59.7509315  53.1623116  83.6448409  59.0819690  53.6469244  83.1612449
  59.6122185  53.4092337  84.5591787  51.4888315  42.6977469  87.3490410
  51.5272414  42.1641060  88.1427528  50.9828607  42.1712674  86.7301387
  63.8914584  55.1966860  90.2431067  64.4432892  55.3598481  91.0080152
  64.2320777  55.7871298  89.5711092  58.8679077  37.5442009  90.8452952
  58.9320403  38.4056840  90.4330350  58.8046197  36.9316011  90.1125310
  58.3431349  39.6165142  94.4925986  58.9703388  39.2342219  95.1063510
  57.4859268  39.3979344  94.8581679  68.7425458  50.0228117  96.0979722
  69.2865362  50.6358075  95.6034676  68.1612303  50.5807696  96.6146735
  55.1196892  41.4241571  80.4244341  55.4150333  40.5152250  80.3711395
  54.2184928  41.4029311  80.1025343  67.0282971  53.1448835  87.2294749
  66.9034110  52.3438575  86.7205695  67.6862062  53.6395029  86.7408719
  58.6491139  39.4997568  86.4071890  57.9277725  40.1133535  86.2679363
  59.4384395  40.0355333  86.3288535  69.0917879  50.9457855  88.8574299
  68.1448215  50.8263206  88.7852626  69.4400652  50.0580353  88.9400561
  61.4517453  36.8351994  92.6812541  61.9751854  37.0814291  93.4438851
  61.2329786  37.6672029  92.2615679  56.8484734  39.1055669  80.5483666
  56.5197440  38.2253048  80.3658772  57.2024104  39.0503337  81.4360055
  66.0964313  50.7410572  85.0578652  65.9489275  49.8127279  85.2386222
  66.9217806  50.7630662  84.5735727  59.9626557  39.3928639  80.9159144
  60.3022629  39.9214560  80.1937752  60.4098677  39.7309045  81.6917710
  69.6998434  51.5639130  86.1443524  70.6244982  51.3581992  86.0067976
  69.5313738  51.3155531  87.0532866  62.6569998  37.7765689  90.3662212
  62.3166818  36.9773502  90.7682892  61.9509004  38.0767400  89.7939045
  63.3086470  34.8615002  88.8189535  64.1312539  34.3875480  88.6968425
  63.5524533  35.6405485  89.3188221  61.9494704  37.8903260  79.1152437
  62.6703067  38.2684513  78.6116153  61.3260008  38.6092137  79.2187414
  66.0925827  38.5948409  80.0510769  66.3089441  39.4773047  79.7499597
  65.6119894  38.2034623  79.3216411  60.8325048  41.5534122  86.6281513
  60.6869629  41.8674425  87.5205795  60.3550252  42.1719023  86.0752412
  62.6921431  38.5436670  86.6762403  62.6783000  37.6477764  86.3394701
  63.4093859  38.5507334  87.3100689  64.5447562  38.9774011  88.7215530
  64.2865340  39.8991081  88.7199861  64.0132602  38.5804445  89.4115995
  69.4893751  52.0824798  81.5005616  69.6630628  51.5171220  80.7479468
  69.9822642  52.8825693  81.3185106  55.3070710  44.0939467  89.5669175
  54.7624179  44.8699275  89.6989449  56.1850060  44.4410271  89.4088296
  62.0958327  37.4251051  81.9449973  62.2174238  36.4967697  82.1440861
  61.8060369  37.4389737  81.0328289  64.9649517  35.1105961  85.0816693
  64.9871214  35.1745294  84.1268673  65.3817576  34.2710470  85.2757199
  75.3433142  44.8461221  83.1195916  75.7864288  44.0968546  82.7215039
  74.4659652  44.8371357  82.7369648  70.4768923  51.3991562  78.6002514
  71.1719828  52.0198255  78.8189829  70.8192073  50.5486913  78.8754892
  56.0936732  43.2209363  92.4599332  55.3518468  43.3691998  93.0463962
  55.7729477  43.4817629  91.5966081  72.3760346  48.8491268  80.1289845
  72.9011670  49.1878540  79.4039165  72.2882699  47.9138283  79.9452980
  64.0380395  52.7625341  92.2579722  64.3467521  52.5174488  93.1302421
  64.8355877  52.9671980  91.7698592  64.0601007  54.9163251  84.4885098
  63.6205997  54.4239630  85.1817955  64.8109124  54.3736219  84.2477173
  56.5393346  51.1074792  84.4909726  57.3651366  50.8078564  84.1108370
  56.1887398  50.3382414  84.9399515  61.5074879  50.4601260  86.5607400
  60.8854888  49.7971965  86.2609628  62.1779746  50.4862392  85.8781048
  54.7401951  49.0261118  85.4498660  53.9033859  48.5983293  85.2682661
  54.7125596  49.2193562  86.3869451  61.5799407  38.9383048  96.1539906
  61.6287562  39.8145171  95.7717675  62.1221921  38.3960441  95.5811549
  72.0654252  49.4824171  95.4341043  71.2749796  49.4648310  94.8945542
  71.8287607  50.0212465  96.1890079  72.1852127  46.3316638  92.7473771
  72.2350132  46.1666645  93.6889294  72.0766051  45.4643897  92.3571652
  61.0688386  49.0105183  80.0365860  61.2176506  49.6940648  79.3832533
  61.8754829  48.9910273  80.5515316  69.4755890  42.3147566  94.0633078
  70.3765752  42.1754031  93.7717076  69.5503864  42.4802020  95.0031256
  63.8098695  39.6914420  92.9086264  62.9402004  39.9847986  92.6368853
  64.0458175  40.2754865  93.6293528  73.6870324  48.7513579  92.9915793
  73.3955132  49.1143560  93.8279254  73.0742455  48.0380587  92.8129125
  74.8866006  46.3166459  85.5118363  75.7212898  46.7556263  85.6755924
  75.0225135  45.8405112  84.6926609  71.9357512  43.8746194  91.4595851
  72.4111634  44.0673840  90.6514702  71.0123078  43.9305380  91.2139235
  58.8241019  45.0370361  81.0426929  58.5787061  44.1332691  81.2407139
  58.9936934  45.0387511  80.1006407  66.5137729  35.9094037  90.4251685
  67.0319673  36.6455064  90.0998173  66.1592862  36.2158031  91.2598444
  58.0936667  40.7698719  78.5413091  57.4005911  40.8443074  77.8853127
  57.8488418  40.0059062  79.0634608  66.7650323  32.3294320  85.9452581
  67.0452077  31.6617509  86.5713008  67.5500930  32.5223415  85.4327245
  70.6359181  40.7511954  89.6924157  71.5876604  40.8510052  89.7136381
  70.4662632  39.9590222  90.2022241  68.6573561  37.8367537  89.8783557
  68.0623493  38.1172550  89.1830046  68.3723258  38.3261438  90.6500299
  67.7881051  51.7890464  78.6386190  68.7211725  51.7236026  78.8419065
  67.7004264  52.6246731  78.1800723  73.1147259  43.9718074  88.8066456
  73.0823579  43.0334074  88.9926140  73.7247883  44.0502110  88.0732281
  64.9530590  42.8414127  74.8493660  65.8989695  42.7120335  74.9182078
  64.5744835  42.1028788  75.3263088  73.2641748  40.7629117  88.8524739
  72.7480796  39.9787574  88.6654668  74.1481696  40.4347834  89.0171259
  70.9252475  34.5070133  84.8120552  70.7277296  34.1985221  85.6963884
  71.5352180  35.2331771  84.9418482  78.9323809  45.0334080  87.9472493
  79.6627198  44.7719369  88.5080196  78.3230755  44.2962802  87.9874561
  77.0139106  43.1741943  88.5446944  76.2872270  43.0397908  87.9363436
  76.5986393  43.4818772  89.3503662  64.8369283  46.8931873  96.3094317
  65.7572292  47.0710472  96.5034364  64.8018866  45.9487918  96.1574016
  63.1373507  40.7664103  74.7848545  62.2304963  40.4697216  74.8611259
  63.4149488  40.4693921  73.9182832  54.0551448  42.0870466  85.2347592
  53.7354232  41.2335775  84.9421966  53.5084876  42.3019044  85.9905559
  57.8331355  44.8032907  88.9517098  58.0517365  45.7350015  88.9705132
  58.2457129  44.4440882  89.7371902  64.7535573  35.3100993  80.9392787
  63.9436301  34.9648078  81.3148033  65.4419990  35.0008536  81.5280398
  66.6826121  34.3879039  82.5617083  67.2357160  34.8074493  83.2207106
  66.9196208  33.4614788  82.6040039  62.7059220  40.3766113  98.3419847
  62.6055947  41.3260470  98.2731938  62.4880763  40.0484352  97.4695917
  61.9072292  37.6251038  74.9260525  62.7691456  37.9505936  75.1856342
  62.0922636  36.8382534  74.4133590  53.9239708  45.7073378  87.2040713
  53.2303179  45.2927331  86.6910668  54.6712699  45.7493914  86.6074132
  70.0604928  36.4979565  82.0695748  69.4803597  37.1564369  81.6873800
  69.7940861  35.6756909  81.6583165  68.5108495  35.8984622  84.2717068
  69.0108273  36.0101157  83.4631387  69.1544103  35.5945675  84.9117876
  62.5690491  43.8063252  97.1584909  62.0857572  44.6063612  97.3648798
  62.6551430  43.8171197  96.2052353  55.8376450  45.6391632  85.0806728
  55.8147138  45.7379319  84.1288611  56.1477087  46.4856782  85.4023894
  58.4963828  47.6967787  89.1953343  59.4507082  47.6651729  89.1283274
  58.2976352  47.2358410  90.0103569  59.0863210  46.2668903  91.7624140
  59.9056099  46.7612981  91.7858978  59.3600018  45.3500871  91.7341708
  68.8429806  38.6579655  81.1252096  67.9555661  38.9429306  80.9072291
  69.2583795  38.4973418  80.2779373  72.1944342  38.6826176  84.8406435
  72.9704733  39.1722628  85.1131052  71.4692477  39.1084230  85.2978305
  74.6316901  39.3953795  85.8980376  75.2261392  39.1549531  85.1873684
  74.7043485  38.6760926  86.5253912  56.8514057  53.2387406  86.2123541
  56.7168525  52.4787807  85.6461539  56.4346119  53.9628306  85.7452329
  67.9873020  48.4224330  75.2200116  68.6908870  48.6274332  75.8357771
  67.2635669  48.9901092  75.4849199  68.8170830  44.1734191  81.3402386
  68.7606031  44.6302742  80.5010018  69.3699173  43.4124876  81.1625229
  72.6275636  39.9623923  82.1652506  72.3712570  39.5620558  82.9960713
  72.0028504  40.6767717  82.0402645  76.9387974  42.7019996  84.6723797
  76.3787532  42.7713185  85.4455359  76.3331477  42.5260981  83.9523293
  60.0083183  54.1356723  86.4241983  59.8915567  55.0802156  86.3220673
  59.1875629  53.8330285  86.8127782  69.8959717  48.8606859  77.2698576
  70.7305321  48.4288057  77.0876051  69.7344060  48.6888873  78.1975470
  69.5505609  45.3638972  78.6354915  69.4954413  45.1983244  77.6943359
  68.9251665  46.0715005  78.7917105  54.3398124  40.6007037  92.4616337
  54.9856988  40.0905991  92.9503563  54.1315275  41.3375718  93.0359763
  66.8651517  47.6687884  97.9608478  67.7342676  47.8428536  97.5995113
  66.3858268  48.4882301  97.8384207  62.8601735  34.8647081  78.2140234
  62.8480405  35.8088921  78.3708504  63.7525157  34.6817227  77.9199695
  61.0337697  54.7884985  89.6397912  61.9364944  54.8208595  89.9564407
  60.8075067  53.8585436  89.6544247  62.7891299  53.5415972  86.3007990
  61.8386930  53.5417833  86.1872363  63.0923785  52.7948706  85.7844025
  66.6753854  31.4589858  82.4686170  65.9086250  30.9048345  82.6142853
  67.0864559  31.5311727  83.3300322  58.6795615  37.7474654  96.5591352
  59.5427077  37.3911458  96.7694676  58.1061026  37.4088548  97.2466756
  78.5243992  59.3776510  87.3653753  79.1622402  59.2583257  86.6617093
  78.4064835  60.3257354  87.4241705  75.3333699  59.3303938  87.3015277
  74.9952210  59.2145003  86.4135812  76.2023467  58.9295103  87.2816283
  71.1920514  61.1839414  83.2912168  70.6285379  61.0929351  82.5228456
  71.0772909  60.3639319  83.7714661  75.8153482  60.4838790  93.2601483
  75.8042122  60.0891588  92.3881987  75.9774121  59.7504862  93.8535254
  68.7384946  62.6790606  86.1296389  69.5306238  62.3381431  85.7142688
  68.9781596  62.7885581  87.0498542  76.7720073  64.8510382  78.6026633
  76.1208053  65.4364463  78.2160647  77.5664436  65.3816577  78.6621671
  72.5360743  63.2675902  92.2080667  72.2450609  64.1721532  92.0927333
  73.1717727  63.3092429  92.9224736  73.4616950  60.6452750  88.7982027
  74.0580522  60.4208773  88.0838989  73.5191921  59.9037496  89.4007474
  73.0341978  58.0992185  76.6332217  73.2867499  57.5773707  75.8715680
  72.0966537  57.9358331  76.7358901  78.0785261  57.1027964  84.4406961
  78.8648350  56.6847387  84.0897378  78.3423965  58.0074056  84.6088609
  78.2495338  62.5400814  79.1395618  77.6141171  62.6135441  79.8516522
  77.9192745  63.1294413  78.4614697  83.4793688  57.0403197  85.3439939
  84.2118860  56.4702414  85.5777769  82.7233044  56.6524797  85.7846445
  72.7538267  60.0020291  78.8356592  72.6374525  59.3265195  79.5037677
  72.8640527  59.5152665  78.0188745  75.0969808  59.4630439  82.5403282
  74.7328015  58.9361059  83.2516203  75.9536924  59.0728908  82.3669767
  81.0019108  50.7524771  89.8034548  80.6702433  51.6220182  89.5795763
  80.4064722  50.4361055  90.4828578  74.7375295  54.4920338  77.5364630
  74.9049697  55.3600575  77.9035101  74.5472464  54.6547620  76.6125919
  77.4950628  62.9537317  89.2030461  77.1951351  63.8562356  89.0946268
  77.1501687  62.6869500  90.0551613  70.9463109  59.4051114  85.2367165
  70.0213606  59.2727328  85.4444857  71.1947522  60.1845333  85.7337107
  80.8947772  55.4719857  86.8827898  79.9864649  55.4035266  86.5886659
  80.8435367  55.9491802  87.7109723  74.7164515  56.9477996  78.5211297
  74.5964141  57.3935046  79.3596777  74.0217104  57.2963313  77.9624835
  68.3071920  59.0484388  86.0710954  68.4364301  59.3018866  86.9850366
  67.6269372  59.6412096  85.7515609  72.4771408  69.7181637  82.1701428
  72.3995437  70.6689463  82.2489909  71.8733051  69.3727510  82.8276355
  74.9688637  56.8909503  94.8262795  74.1921971  57.4503423  94.8165660
  75.6079200  57.3766286  95.3477665  82.7609418  53.6736296  88.6605772
  82.1183798  53.9668829  88.0145566  82.2564347  53.5589216  89.4658968
  80.4149582  57.4199469  79.3491631  81.3267438  57.6526856  79.1739329
  79.9059229  58.0036513  78.7866710  73.2235010  59.6994956  94.3880762
  73.9649694  60.2380000  94.1115586  72.5171995  60.3261245  94.5452314
  78.6990349  61.8424097  92.9852924  79.1073705  61.4006507  92.2407556
  77.9767611  61.2676724  93.2387117  75.0521419  56.7796703  90.3586481
  75.8982615  57.2036117  90.5021130  74.9920057  56.1230328  91.0525044
  79.0219164  62.4025287  86.7405213  78.3928026  62.5671001  86.0381280
  78.6344826  62.8166897  87.5116177  82.9008396  63.3379725  84.0949576
  82.2159434  63.7178627  83.5446610  82.9852245  63.9475052  84.8281524
  78.2020865  54.4401072  92.0167654  77.9581797  55.1943132  91.4801930
  78.4780795  54.8186419  92.8514901  80.1559327  60.9839684  90.6944920
  80.3676223  61.6271444  90.0179301  80.1089076  60.1502001  90.2266850
  77.7585556  53.5957505  87.5981492  76.8970035  53.8938758  87.8898230
  77.7847991  53.8127904  86.6662525  74.5747126  62.1399695  84.0055298
  75.0385471  62.4187398  83.2159920  74.3103924  61.2383140  83.8228388
  71.4671207  61.6871177  86.9435061  72.0372564  62.1158445  86.3052545
  72.0579319  61.4053762  87.6419247  73.5116012  58.2622848  80.8144863
  74.2140055  58.7143891  81.2818789  73.1796640  57.6206667  81.4424756
  71.9596373  56.8534604  95.1896072  71.3295034  57.5350885  95.4231469
  71.8532461  56.7417686  94.2449210  67.2541346  56.5206400  86.1161996
  66.4640400  56.7763929  85.6402107  67.7452593  57.3354738  86.2214037
  81.2705155  63.8611640  88.8667277  82.0922599  63.4591827  88.5849959
  81.2667558  63.7579874  89.8183393  69.2056091  56.8850980  83.0745473
  68.4087255  56.9969674  83.5928969  68.9781683  57.2237632  82.2086364
  75.0361759  63.4095683  91.0227988  75.1006191  63.8716090  91.8586159
  74.3272683  62.7793048  91.1510297  65.5379049  56.7736891  88.5476987
  65.7887087  57.6583901  88.8134563  66.0738597  56.5941492  87.7752079
  74.7509777  65.0763790  80.8906968  74.6155451  65.9215326  81.3191816
  75.2919589  65.2783068  80.1272902  71.2377116  51.1555370  97.5521323
  70.8444062  50.6021569  98.2268967  72.0543256  51.4665949  97.9427841
  70.0134059  65.7104985  83.5457646  70.1900687  66.6322949  83.3578630
  70.8090892  65.3963404  83.9752026  74.1545077  52.5713249  95.1441580
  74.8954791  53.1720402  95.0646042  74.3863000  51.8290887  94.5859622
  69.2986415  57.7569617  93.4219809  69.1839930  56.8554874  93.7226908
  68.4430933  58.0033313  93.0704626  76.3778253  65.6987357  95.0207310
  75.9342107  64.9123735  94.7028215  77.0395466  65.8866507  94.3551201
  71.1365374  67.2283159  89.5467989  71.6872799  67.1000222  88.7744983
  70.2976850  67.5278048  89.1962881  78.4759491  65.9790157  93.0488711
  78.4577966  66.7999038  92.5568981  79.3979411  65.8544232  93.2738852
  74.9332545  63.4934286  93.8912220  75.4660882  62.7322575  93.6611528
  74.4046626  63.2007938  94.6336374  78.1002240  48.5994352  89.4205861
  77.7566509  49.4895994  89.3444972  78.4681203  48.4096010  88.5575446
  66.1688091  60.9227883  82.2394464  67.0063313  61.3324891  82.0228171
  66.3466358  59.9827325  82.2094657  78.0652523  58.5902963  77.9278297
  77.5499146  59.3607568  78.1666684  77.7929831  57.9168100  78.5511358
  75.6499634  53.4352664  82.9863535  74.7941230  53.0459515  82.8069174
  76.0626586  53.5144625  82.1263320  77.1798780  50.9699007  87.3855095
  76.6763576  50.9329143  86.5722900  77.4729387  51.8791750  87.4451751
  73.4241666  51.0537737  86.3921276  74.2894663  50.8580546  86.0327166
  73.4919175  50.8248089  87.3190633  77.8538826  56.4630056  79.7538078
  77.5488962  56.7776205  80.6048221  78.8069268  56.5411475  79.7965411
  76.2985258  62.6220279  81.4031032  75.7706619  61.8873038  81.0904269
  75.7972761  63.3994955  81.1571000  81.2778104  60.8169299  86.5198078
  80.6201778  61.5068561  86.6078207  82.0818503  61.2065731  86.8632064
  71.0303985  53.2839945  83.7637643  71.6047737  53.0615127  83.0310836
  71.6174968  53.3528640  84.5166245  80.0883563  59.1713672  84.5702020
  80.6015444  59.8043664  85.0723729  80.7384787  58.5714868  84.2045380
  71.3573573  55.3144406  77.7833529  70.5210885  55.6519093  78.1042803
  71.2178342  55.1793386  76.8460665  73.3326653  50.1581194  82.4912713
  72.6791065  49.8430211  81.8669327  73.2907127  49.5356934  83.2172536
  77.3505937  69.1497996  77.3262691  76.6767636  69.4529693  77.9347649
  77.7371759  69.9527077  76.9768148  76.5664394  56.6463128  86.8160360
  75.6486955  56.8678075  86.6582048  76.9824537  56.7209438  85.9572068
  77.3499441  58.0454543  81.9463041  78.0971260  58.5575940  81.6370163
  77.6191031  57.7238596  82.8067434  75.6226091  60.5413084  78.9289995
  74.7137311  60.2572117  79.0262465  75.6521175  60.9612163  78.0693302
  80.8545359  64.1519673  82.6981162  80.4007686  63.3110583  82.7546353
  80.2239326  64.7881072  83.0355943  79.7978278  55.0811659  83.9281830
  79.0601035  54.5689046  84.2592072  80.0505052  54.6412041  83.1165107
  79.2978298  65.9896170  83.6330981  79.5901272  66.5501227  82.9143346
  79.8076919  66.2824731  84.3884140  79.8989906  47.8587911  84.5223599
  80.2048783  46.9985275  84.2349514  80.6242511  48.4505532  84.3222593
  66.1914262  58.2618598  82.9105197  65.9938662  57.6687959  82.1856264
  65.6360926  57.9570808  83.6281136  74.1710985  58.1541705  85.0299790
  74.2259595  57.2015541  84.9542267  73.3602188  58.3101144  85.5141089
  75.3202179  62.0821828  76.2678073  74.8821609  61.3657687  75.8083711
  76.0612620  62.3097942  75.7063165  72.1103345  56.7718764  82.7890169
  71.2971211  57.0712935  83.1955361  72.6062340  56.3774453  83.5064651
  74.2611923  66.7676521  84.7224434  74.2188102  66.9937368  83.7932966
  75.1774622  66.5339896  84.8710235  77.7077557  57.2360589  91.6205063
  78.0626945  57.4632062  92.4799529  78.3549688  57.5678966  90.9982318
  83.4375294  60.3579025  82.3254392  83.2993193  60.5480621  81.3975581
  83.0811513  61.1198407  82.7822443  71.6017420  54.3437120  88.4051404
  72.2416799  54.2025879  87.7074367  70.7694951  54.0571633  88.0290006
  83.4644674  62.4255552  87.3365663  83.8981180  62.3330841  88.1848718
  84.1776254  62.4013052  86.6985679  72.3777724  63.6439550  84.5186396
  73.1718323  63.1489870  84.3168971  71.6669416  63.1157413  84.1554102
  77.1972569  66.0257646  88.8698764  77.2509591  66.5948582  89.6376480
  76.3287350  66.1959531  88.5052801  68.6860488  57.7882632  80.5946149
  67.7558076  57.7267087  80.8116111  68.7817960  57.2658585  79.7982790
  68.6046037  54.3137445  83.1824391  68.8652854  55.2282778  83.0733551
  69.4263209  53.8461887  83.3321004  70.0770962  55.7275202  90.3523215
  70.7494015  55.5192564  89.7035864  69.2500748  55.5297288  89.9128448
  84.3260223  62.4679252  89.8698549  84.5196113  63.3725063  90.1157824
  84.2260841  62.0086671  90.7037134  75.9796534  52.3537143  92.3688876
  75.3324449  53.0527093  92.2753353  76.7497549  52.7873287  92.7365124
  79.3875332  62.6185995  95.4439429  79.2360838  62.3896547  94.5269513
  79.3780011  63.5756596  95.4570775  76.1560668  60.1917908  90.4285696
  77.0852728  60.3429067  90.2554663  75.7351698  60.2801929  89.5734342
  74.9549000  64.2168572  88.1984234  74.8160086  63.8487357  89.0710172
  74.1663596  64.7316212  88.0268191  75.5497152  69.3177669  79.5409770
  75.7248908  68.8465712  80.3555393  74.8629940  69.9443435  79.7691031
  76.5054215  63.5950175  85.5873071  76.1704048  63.5550945  86.4830721
  76.0058161  62.9294891  85.1143482  70.4798459  59.0017805  91.1125653
  70.3418257  58.2698044  91.7137192  71.3903383  58.9126705  90.8309840
  73.1080760  58.7137764  90.6009332  73.8180378  58.0730956  90.5595951
  73.0650068  58.9650659  91.5235513  81.0967539  65.6505118  93.5215911
  81.0380085  64.9664338  92.8546494  81.4987057  66.3924108  93.0696537
  71.8209694  55.7002982  92.4204972  71.2847051  55.2493721  93.0726568
  71.2326402  55.8348891  91.6775436  70.1158237  72.4667031  86.3149630
  70.3554836  73.0985556  86.9928649  69.2727434  72.1155071  86.6014990
  81.0984946  63.6144702  91.7529891  80.2111725  63.2770623  91.8756290
  81.6683497  62.8827733  91.9898656  62.7514093  59.9468793  85.0772942
  63.4385133  59.6330523  84.4893958  62.5962222  60.8510158  84.8040194
  67.5548815  54.8358990  89.5057966  67.4707004  54.2284659  88.7708376
  66.7331521  55.3268008  89.5067462  74.6286099  68.2746154  88.7191134
  74.5556271  69.0801125  89.2310439  74.1863492  68.4738120  87.8939156
  74.4175879  67.5117924  82.2293956  73.6343401  68.0539604  82.3232180
  75.1168624  68.0291904  82.6288197  77.7272529  53.3212553  84.8728161
  78.2241228  52.5682516  84.5529231  76.9559510  53.3576870  84.3071370
  85.5802286  59.0252919  86.5146453  85.5692163  59.9077634  86.1440386
  84.7119666  58.6724470  86.3200990  77.0884783  68.1732988  90.8749293
  77.8012755  68.8080453  90.8025194  76.5974811  68.2696854  90.0589295
  78.8102310  62.0784241  82.4466585  77.8758588  62.1985703  82.2771289
  78.9878978  61.1756707  82.1826594  74.3107498  55.4629936  84.5999846
  73.9405285  54.9100977  85.2880751  74.8066590  54.8588070  84.0474846
  82.1974861  57.9201560  82.9816619  82.6635313  58.7529551  82.9076921
  82.6482361  57.4546541  83.6861877  72.1396696  65.9227431  91.6954864
  72.8406156  66.5563914  91.8484258  71.6691811  66.2642163  90.9350503
  80.2651092  64.2645381  79.9802771  80.5410936  64.1501976  80.8896645
  79.3955591  63.8662866  79.9414944  80.1691524  50.2882147  87.0207520
  79.2554603  50.5186374  87.1889727  80.5984625  50.3720591  87.8721552
  79.9397982  58.4772039  89.5207414  79.2869432  58.7247946  88.8659867
  80.3178362  57.6636177  89.1869891  76.9005156  68.5131732  83.6235584
  77.0827551  67.6953388  84.0863337  77.7238142  68.7299424  83.1860474
  77.2347322  67.4399917  80.8850633  77.7635088  66.9292372  80.2720795
  77.4975541  67.1242447  81.7496166  75.9885555  59.2191850  96.0073451
  75.3126192  59.1185979  96.6775826  76.8113189  59.0631064  96.4709448
  67.7364414  65.4563786  88.6285966  68.3217851  64.7107474  88.7613871
  67.5389253  65.7667743  89.5122630  70.5903070  68.4915034  83.6448409
  69.9213445  68.9761161  83.1612449  70.4515939  68.7384254  84.5591787
  62.3282069  58.0269387  87.3490410  62.3666169  57.4932977  88.1427528
  61.8222362  57.5004592  86.7301387  74.7308338  70.5258777  90.2431067
  75.2826646  70.6890399  91.0080152  75.0714532  71.1163215  89.5711092
  69.7072831  52.8733927  90.8452952  69.7714158  53.7348758  90.4330350
  69.6439952  52.2607929  90.1125310  69.1825104  54.9457060  94.4925986
  69.8097143  54.5634137  95.1063510  68.3253023  54.7271262  94.8581679
  79.5819212  65.3520035  96.0979722  80.1259116  65.9649993  95.6034676
  79.0006057  65.9099613  96.6146735  65.9590647  56.7533489  80.4244341
  66.2544088  55.8444167  80.3711395  65.0578682  56.7321228  80.1025343
  77.8676725  68.4740753  87.2294749  77.7427865  67.6730493  86.7205695
  78.5255816  68.9686946  86.7408719  69.4884894  54.8289485  86.4071890
  68.7671479  55.4425453  86.2679363  70.2778149  55.3647250  86.3288535
  79.9311634  66.2749773  88.8574299  78.9841969  66.1555124  88.7852626
  80.2794407  65.3872271  88.9400561  72.2911207  52.1643912  92.6812541
  72.8145609  52.4106208  93.4438851  72.0723540  52.9963947  92.2615679
  67.6878488  54.4347586  80.5483666  67.3591194  53.5544965  80.3658772
  68.0417859  54.3795255  81.4360055  76.9358067  66.0702489  85.0578652
  76.7883029  65.1419197  85.2386222  77.7611561  66.0922580  84.5735727
  70.8020311  54.7220556  80.9159144  71.1416384  55.2506478  80.1937752
  71.2492432  55.0600962  81.6917710  80.5392189  66.8931048  86.1443524
  81.4638736  66.6873909  86.0067976  80.3707492  66.6447449  87.0532866
  73.4963752  53.1057607  90.3662212  73.1560573  52.3065420  90.7682892
  72.7902758  53.4059318  89.7939045  74.1480224  50.1906919  88.8189535
  74.9706293  49.7167398  88.6968425  74.3918288  50.9697403  89.3188221
  72.7888458  53.2195178  79.1152437  73.5096821  53.5976431  78.6116153
  72.1653763  53.9384055  79.2187414  76.9319581  53.9240327  80.0510769
  77.1483196  54.8064965  79.7499597  76.4513649  53.5326540  79.3216411
  71.6718803  56.8826040  86.6281513  71.5263383  57.1966343  87.5205795
  71.1944006  57.5010940  86.0752412  73.5315186  53.8728588  86.6762403
  73.5176754  52.9769681  86.3394701  74.2487614  53.8799252  87.3100689
  75.3841316  54.3065928  88.7215530  75.1259094  55.2282999  88.7199861
  74.8526357  53.9096363  89.4115995  80.3287505  67.4116715  81.5005616
  80.5024383  66.8463138  80.7479468  80.8216396  68.2117610  81.3185106
  66.1464465  59.4231384  89.5669175  65.6017933  60.1991192  89.6989449
  67.0243815  59.7702189  89.4088296  72.9352082  52.7542968  81.9449973
  73.0567993  51.8259614  82.1440861  72.6454124  52.7681654  81.0328289
  75.8043272  50.4397879  85.0816693  75.8264969  50.5037212  84.1268673
  76.2211331  49.6002387  85.2757199  66.9330487  58.5501281  92.4599332
  66.1912223  58.6983916  93.0463962  66.6123231  58.8109546  91.5966081
  74.8774149  68.0917259  92.2579722  75.1861276  67.8466406  93.1302421
  75.6749631  68.2963897  91.7698592  74.8994761  70.2455169  84.4885098
  74.4599752  69.7531547  85.1817955  75.6502878  69.7028136  84.2477173
  67.3787100  66.4366709  84.4909726  68.2045120  66.1370481  84.1108370
  67.0281152  65.6674332  84.9399515  72.3468634  65.7893178  86.5607400
  71.7248643  65.1263883  86.2609628  73.0173501  65.8154310  85.8781048
  65.5795706  64.3553036  85.4498660  64.7427614  63.9275210  85.2682661
  65.5519351  64.5485479  86.3869451  72.4193161  54.2674966  96.1539906
  72.4681317  55.1437088  95.7717675  72.9615675  53.7252359  95.5811549
  82.9048007  64.8116089  95.4341043  82.1143550  64.7940228  94.8945542
  82.6681361  65.3504383  96.1890079  83.0245882  61.6608555  92.7473771
  83.0743887  61.4958563  93.6889294  82.9159805  60.7935814  92.3571652
  80.3149644  57.6439483  94.0633078  81.2159507  57.5045948  93.7717076
  80.3897619  57.8093938  95.0031256  74.6492450  55.0206338  92.9086264
  73.7795759  55.3139904  92.6368853  74.8851930  55.6046783  93.6293528
  84.5264079  64.0805497  92.9915793  84.2348887  64.4435477  93.8279254
  83.9136210  63.3672505  92.8129125  82.7751267  59.2038111  91.4595851
  83.2505389  59.3965758  90.6514702  81.8516832  59.2597297  91.2139235
  77.3531483  51.2385955  90.4251685  77.8713427  51.9746982  90.0998173
  76.9986616  51.5449948  91.2598444  68.9330421  56.0990636  78.5413091
  68.2399666  56.1734991  77.8853127  68.6882173  55.3350980  79.0634608
  77.6044078  47.6586238  85.9452581  77.8845831  46.9909427  86.5713008
  78.3894684  47.8515333  85.4327245  75.4077546  66.8345231  77.5077608
  74.8351513  67.4535419  77.0548080  75.9810340  67.3844593  78.0417530
  81.4752936  56.0803872  89.6924157  82.4270359  56.1801969  89.7136381
  81.3056386  55.2882140  90.2022241  79.4967315  53.1659455  89.8783557
  78.9017247  53.4464467  89.1830046  79.2117012  53.6553356  90.6500299
  78.6274806  67.1182382  78.6386190  79.5605479  67.0527943  78.8419065
  78.5398019  67.9538648  78.1800723  83.9541014  59.3009991  88.8066456
  83.9217334  58.3625992  88.9926140  84.5641637  59.3794028  88.0732281
  75.7924345  58.1706044  74.8493660  76.7383449  58.0412252  74.9182078
  75.4138590  57.4320706  75.3263088  84.1035502  56.0921035  88.8524739
  83.5874551  55.3079491  88.6654668  84.9875451  55.7639751  89.0171259
  81.7646229  49.8362050  84.8120552  81.5671050  49.5277138  85.6963884
  82.3745935  50.5623689  84.9418482  87.8532861  58.5033861  88.5446944
  87.1266024  58.3689826  87.9363436  87.4380148  58.8110689  89.3503662
  75.6763037  62.2223790  96.3094317  76.5966047  62.4002389  96.5034364
  75.6412620  61.2779836  96.1574016  64.8945202  57.4162384  85.2347592
  64.5747986  56.5627692  84.9421966  64.3478630  57.6310962  85.9905559
  68.6725110  60.1324825  88.9517098  68.8911119  61.0641933  88.9705132
  69.0850883  59.7732799  89.7371902  75.5929327  50.6392910  80.9392787
  74.7830056  50.2939995  81.3148033  76.2813744  50.3300454  81.5280398
  77.5219876  49.7170957  82.5617083  78.0750914  50.1366411  83.2207106
  77.7589962  48.7906705  82.6040039  73.5452975  55.7058031  98.3419847
  73.4449702  56.6552388  98.2731938  73.3274517  55.3776270  97.4695917
  64.7633462  61.0365295  87.2040713  64.0696934  60.6219248  86.6910668
  65.5106453  61.0785832  86.6074132  80.8998683  51.8271482  82.0695748
  80.3197352  52.4856286  81.6873800  80.6334615  51.0048827  81.6583165
  79.3502249  51.2276540  84.2717068  79.8502028  51.3393075  83.4631387
  79.9937857  50.9237593  84.9117876  73.4084245  59.1355170  97.1584909
  72.9251327  59.9355530  97.3648798  73.4945184  59.1463114  96.2052353
  66.6770205  60.9683549  85.0806728  66.6540893  61.0671237  84.1288611
  66.9870841  61.8148700  85.4023894  69.3357582  63.0259704  89.1953343
  70.2900836  62.9943647  89.1283274  69.1370106  62.5650328  90.0103569
  69.9256965  61.5960820  91.7624140  70.7449854  62.0904899  91.7858978
  70.1993772  60.6792788  91.7341708  79.6823561  53.9871573  81.1252096
  78.7949416  54.2721223  80.9072291  80.0977550  53.8265336  80.2779373
  83.0338097  54.0118094  84.8406435  83.8098487  54.5014546  85.1131052
  82.3086231  54.4376148  85.2978305  85.4710656  54.7245713  85.8980376
  86.0655146  54.4841449  85.1873684  85.5437239  54.0052843  86.5253912
  67.6907811  68.5679324  86.2123541  67.5562279  67.8079725  85.6461539
  67.2739874  69.2920224  85.7452329  79.6564585  59.5026109  81.3402386
  79.5999786  59.9594660  80.5010018  80.2092927  58.7416793  81.1625229
  83.4669390  55.2915840  82.1652506  83.2106325  54.8912476  82.9960713
  82.8422259  56.0059634  82.0402645  70.8476937  69.4648641  86.4241983
  70.7309321  70.4094073  86.3220673  70.0269383  69.1622202  86.8127782
  80.3899364  60.6930890  78.6354915  80.3348168  60.5275161  77.6943359
  79.7645419  61.4006923  78.7917105  65.1791879  55.9298954  92.4616337
  65.8250742  55.4197908  92.9503563  64.9709030  56.6667636  93.0359763
  77.7045271  62.9979802  97.9608478  78.5736431  63.1720454  97.5995113
  77.2252023  63.8174219  97.8384207  73.6995489  50.1938999  78.2140234
  73.6874159  51.1380839  78.3708504  74.5918911  50.0109144  77.9199695
  71.8731451  70.1176903  89.6397912  72.7758698  70.1500513  89.9564407
  71.6468821  69.1877354  89.6544247  73.6285053  68.8707889  86.3007990
  72.6780684  68.8709751  86.1872363  73.9317539  68.1240624  85.7844025
  77.5147609  46.7881775  82.4686170  76.7480005  46.2340262  82.6142853
  77.9258314  46.8603644  83.3300322  69.5189370  53.0766571  96.5591352
  70.3820831  52.7203376  96.7694676  68.9454781  52.7380466  97.2466756
  89.3637747  74.7068428  87.3653753  90.0016157  74.5875175  86.6617093
  89.2458590  75.6549272  87.4241705  86.1727453  74.6595856  87.3015277
  85.8345965  74.5436920  86.4135812  87.0417221  74.2587021  87.2816283
  82.0314269  76.5131332  83.2912168  81.4679134  76.4221269  82.5228456
  81.9166664  75.6931237  83.7714661  86.6547236  75.8130707  93.2601483
  86.6435877  75.4183506  92.3881987  86.8167876  75.0796780  93.8535254
  79.5778701  78.0082524  86.1296389  80.3699993  77.6673348  85.7142688
  79.8175351  78.1177499  87.0498542  87.6113827  80.1802300  78.6026633
  86.9601807  80.7656380  78.2160647  88.4058190  80.7108495  78.6621671
  81.5369455  77.2691437  79.0013768  82.3100331  76.7220424  78.8626643
  81.8894854  78.1335686  79.2128229  83.3754497  78.5967819  92.2080667
  83.0844363  79.5013450  92.0927333  84.0111482  78.6384347  92.9224736
  84.3010704  75.9744668  88.7982027  84.8974276  75.7500690  88.0838989
  84.3585676  75.2329413  89.4007474  83.8735732  73.4284103  76.6332217
  84.1261253  72.9065624  75.8715680  82.9360292  73.2650249  76.7358901
  88.9179015  72.4319881  84.4406961  89.7042105  72.0139305  84.0897378
  89.1817720  73.3365974  84.6088609  89.0889093  77.8692732  79.1395618
  88.4534926  77.9427358  79.8516522  88.7586499  78.4586331  78.4614697
  94.3187442  72.3695115  85.3439939  95.0512614  71.7994331  85.5777769
  93.5626798  71.9816715  85.7846445  83.5932021  75.3312209  78.8356592
  83.4768279  74.6557112  79.5037677  83.7034281  74.8444583  78.0188745
  85.9363562  74.7922356  82.5403282  85.5721769  74.2652977  83.2516203
  86.7930678  74.4020825  82.3669767  88.3344382  78.2829235  89.2030461
  88.0345105  79.1854274  89.0946268  87.9895442  78.0161418  90.0551613
  81.7856864  74.7343032  85.2367165  80.8607360  74.6019246  85.4444857
  82.0341277  75.5137251  85.7337107  91.7341526  70.8011775  86.8827898
  90.8258403  70.7327183  86.5886659  91.6829122  71.2783720  87.7109723
  79.1465675  74.3776305  86.0710954  79.2758056  74.6310784  86.9850366
  78.4663126  74.9704013  85.7515609  83.3165162  85.0473555  82.1701428
  83.2389192  85.9981380  82.2489909  82.7126806  84.7019428  82.8276355
  85.8082392  72.2201421  94.8262795  85.0315726  72.7795341  94.8165660
  86.4472955  72.7058204  95.3477665  91.2543336  72.7491387  79.3491631
  92.1661192  72.9818773  79.1739329  90.7452983  73.3328431  78.7866710
  84.0628764  75.0286874  94.3880762  84.8043449  75.5671918  94.1115586
  83.3565750  75.6553163  94.5452314  89.5384104  77.1716014  92.9852924
  89.9467460  76.7298425  92.2407556  88.8161365  76.5968642  93.2387117
  85.8915174  72.1088621  90.3586481  86.7376369  72.5328035  90.5021130
  85.8313812  71.4522245  91.0525044  89.8612918  77.7317205  86.7405213
  89.2321781  77.8962919  86.0381280  89.4738581  78.1458815  87.5116177
  93.7402150  78.6671643  84.0949576  93.0553189  79.0470544  83.5446610
  93.8246000  79.2766970  84.8281524  90.9953082  76.3131602  90.6944920
  91.2069977  76.9563362  90.0179301  90.9482830  75.4793918  90.2266850
  88.5979311  68.9249423  87.5981492  87.7363790  69.2230676  87.8898230
  88.6241746  69.1419821  86.6662525  85.4140880  77.4691613  84.0055298
  85.8779226  77.7479316  83.2159920  85.1497678  76.5675058  83.8228388
  82.3064961  77.0163095  86.9435061  82.8766318  77.4450363  86.3052545
  82.8973073  76.7345679  87.6419247  84.3509766  73.5914765  80.8144863
  85.0533810  74.0435809  81.2818789  84.0190395  72.9498584  81.4424756
  82.7990128  72.1826522  95.1896072  82.1688788  72.8642803  95.4231469
  82.6926216  72.0709604  94.2449210  78.0935100  71.8498318  86.1161996
  77.3034154  72.1055847  85.6402107  78.5846348  72.6646656  86.2214037
  92.1098910  79.1903557  88.8667277  92.9316354  78.7883745  88.5849959
  92.1061313  79.0871791  89.8183393  80.0449846  72.2142897  83.0745473
  79.2481009  72.3261592  83.5928969  79.8175438  72.5529550  82.2086364
  85.8755513  78.7387601  91.0227988  85.9399946  79.2008008  91.8586159
  85.1666437  78.1084966  91.1510297  76.3772803  72.1028809  88.5476987
  76.6280842  72.9875818  88.8134563  76.9132352  71.9233410  87.7752079
 100.2004903  75.5342306  85.2152249  99.4468611  74.9649704  85.0596253
 100.3352444  75.5004970  86.1622883  85.5903531  80.4055708  80.8906968
  85.4549206  81.2507244  81.3191816  86.1313344  80.6074986  80.1272902
  82.0770871  66.4847288  97.5521323  81.6837816  65.9313486  98.2268967
  82.8937011  66.7957866  97.9427841  79.0432928  77.9231146  81.4634893
  79.5557449  78.7174396  81.6140458  79.6955641  77.2257437  81.3968495
  80.8527813  81.0396902  83.5457646  81.0294441  81.9614867  83.3578630
  81.6484647  80.7255322  83.9752026  84.9938832  67.9005167  95.1441580
  85.7348545  68.5012320  95.0646042  85.2256754  67.1582805  94.5859622
  80.1380170  73.0861534  93.4219809  80.0233685  72.1846792  93.7226908
  79.2824687  73.3325231  93.0704626  87.2172007  81.0279275  95.0207310
  86.7735862  80.2415653  94.7028215  87.8789221  81.2158425  94.3551201
  81.9759129  82.5575076  89.5467989  82.5266554  82.4292140  88.7744983
  81.1370604  82.8569965  89.1962881  89.3153245  81.3082075  93.0488711
  89.2971721  82.1290956  92.5568981  90.2373166  81.1836150  93.2738852
  85.7726300  78.8226204  93.8912220  86.3054636  78.0614492  93.6611528
  85.2440381  78.5299856  94.6336374  77.0081845  76.2519800  82.2394464
  77.8457067  76.6616809  82.0228171  77.1860113  75.3119243  82.2094657
  88.0192535  66.2990925  87.3855095  87.5157331  66.2621060  86.5722900
  88.3123142  67.2083668  87.4451751  84.2635421  66.3829655  86.3921276
  85.1288418  66.1872464  86.0327166  84.3312930  66.1540007  87.3190633
  93.8780551  76.6727236  79.8631470  93.1009994  76.3338395  79.4186632
  94.5572032  76.6779859  79.1886435  87.1379012  77.9512196  81.4031032
  86.6100374  77.2164956  81.0904269  86.6366515  78.7286873  81.1571000
  92.1171858  76.1461217  86.5198078  91.4595533  76.8360478  86.6078207
  92.9212258  76.5357649  86.8632064  81.8697740  68.6131863  83.7637643
  82.4441492  68.3907044  83.0310836  82.4568722  68.6820557  84.5166245
  90.9277317  74.5005590  84.5702020  91.4409199  75.1335582  85.0723729
  91.5778541  73.9006785  84.2045380  82.1967327  70.6436324  77.7833529
  81.3604639  70.9811010  78.1042803  82.0572097  70.5085304  76.8460665
  85.2831612  75.7692407  74.4066005  84.3758674  75.5381660  74.6057154
  85.7802644  74.9730026  74.5939986  88.1899691  84.4789914  77.3262691
  87.5161390  84.7821611  77.9347649  88.5765513  85.2818994  76.9768148
  87.4058148  71.9755045  86.8160360  86.4880709  72.1969992  86.6582048
  87.8218292  72.0501356  85.9572068  88.1893196  73.3746461  81.9463041
  88.9365015  73.8867858  81.6370163  88.4584785  73.0530514  82.8067434
  86.4619846  75.8705002  78.9289995  85.5531065  75.5864034  79.0262465
  86.4914930  76.2904080  78.0693302  91.6939113  79.4811591  82.6981162
  91.2401440  78.6402501  82.7546353  91.0633080  80.1172989  83.0355943
  90.1372053  81.3188088  83.6330981  90.4295027  81.8793145  82.9143346
  90.6470673  81.6116649  84.3884140  77.0308016  73.5910516  82.9105197
  76.8332416  72.9979876  82.1856264  76.4754680  73.2862726  83.6281136
  85.0104740  73.4833622  85.0299790  85.0653350  72.5307459  84.9542267
  84.1995942  73.6393061  85.5141089  86.1595934  77.4113745  76.2678073
  85.7215364  76.6949604  75.8083711  86.9006375  77.6389860  75.7063165
  82.9497100  72.1010682  82.7890169  82.1364965  72.4004853  83.1955361
  83.4456094  71.7066371  83.5064651  85.1005678  82.0968439  84.7224434
  85.0581857  82.3229285  83.7932966  86.0168377  81.8631813  84.8710235
  88.5471312  72.5652506  91.6205063  88.9020699  72.7923980  92.4799529
  89.1943443  72.8970883  90.9982318  94.2769049  75.6870942  82.3254392
  94.1386947  75.8772538  81.3975581  93.9205267  76.4490325  82.7822443
  82.4411175  69.6729037  88.4051404  83.0810554  69.5317797  87.7074367
  81.6088705  69.3863551  88.0290006  94.3038428  77.7547469  87.3365663
  94.7374935  77.6622758  88.1848718  95.0170009  77.7304970  86.6985679
  83.2171479  78.9731468  84.5186396  84.0112077  78.4781788  84.3168971
  82.5063171  78.4449331  84.1554102  88.0366323  81.3549563  88.8698764
  88.0903345  81.9240500  89.6376480  87.1681104  81.5251448  88.5052801
  79.5254242  73.1174550  80.5946149  78.5951830  73.0559005  80.8116111
  79.6211714  72.5950502  79.7982790  79.4439791  69.6429362  83.1824391
  79.7046608  70.5574696  83.0733551  80.2656963  69.1753805  83.3321004
  80.9164716  71.0567120  90.3523215  81.5887770  70.8484482  89.7035864
  80.0894503  70.8589206  89.9128448  95.1653978  77.7971170  89.8698549
  95.3589868  78.7016980  90.1157824  95.0654596  77.3378589  90.7037134
  86.8190288  67.6829061  92.3688876  86.1718203  68.3819010  92.2753353
  87.5891304  68.1165204  92.7365124  90.2269086  77.9477913  95.4439429
  90.0754593  77.7188464  94.5269513  90.2173766  78.9048514  95.4570775
  86.9954423  75.5209825  90.4285696  87.9246483  75.6720985  90.2554663
  86.5745453  75.6093846  89.5734342  85.7942755  79.5460490  88.1984234
  85.6553840  79.1779274  89.0710172  85.0057351  80.0608129  88.0268191
  86.3890907  84.6469586  79.5409770  86.5642662  84.1757630  80.3555393
  85.7023695  85.2735353  79.7691031  87.3447970  78.9242093  85.5873071
  87.0097802  78.8842863  86.4830721  86.8451915  78.2586809  85.1143482
  81.3192214  74.3309723  91.1125653  81.1812012  73.5989961  91.7137192
  82.2297137  74.2418623  90.8309840  90.2807161  76.2698127  75.8610131
  89.6636332  75.5444955  75.7643184  89.8123650  77.0307487  75.5177205
  83.9474514  74.0429682  90.6009332  84.6574133  73.4022874  90.5595951
  83.9043822  74.2942577  91.5235513  91.9361293  80.9797035  93.5215911
  91.8773839  80.2956255  92.8546494  92.3380811  81.7216025  93.0696537
  82.6603448  71.0294900  92.4204972  82.1240805  70.5785638  93.0726568
  82.0720157  71.1640809  91.6775436  80.9551992  87.7958949  86.3149630
  81.1948590  88.4277473  86.9928649  80.1121188  87.4446989  86.6014990
  82.0705707  70.4883551  74.9831435  81.1935174  70.3672352  74.6193682
  82.5463460  69.6969630  74.7310324  91.9378700  78.9436619  91.7529891
  91.0505479  78.6062541  91.8756290  92.5077251  78.2119650  91.9898656
  73.5907847  75.2760711  85.0772942  74.2778887  74.9622441  84.4893958
  73.4355976  76.1802076  84.8040194  78.3942570  70.1650908  89.5057966
  78.3100758  69.5576577  88.7708376  77.5725276  70.6559926  89.5067462
  85.4679854  83.6038072  88.7191134  85.3950025  84.4093043  89.2310439
  85.0257247  83.8030037  87.8939156  85.2569633  82.8409842  82.2293956
  84.4737155  83.3831522  82.3232180  85.9562378  83.3583821  82.6288197
  96.4196041  74.3544837  86.5146453  96.4085917  75.2369552  86.1440386
  95.5513420  74.0016387  86.3200990  87.9278537  83.5024906  90.8749293
  88.6406509  84.1372370  90.8025194  87.4368566  83.5988772  90.0589295
  89.6496064  77.4076158  82.4466585  88.7152343  77.5277621  82.2771289
  89.8272733  76.5048625  82.1826594  85.1501252  70.7921854  84.5999846
  84.7799040  70.2392894  85.2880751  85.6460345  70.1879988  84.0474846
  93.0368615  73.2493478  82.9816619  93.5029068  74.0821469  82.9076921
  93.4876116  72.7838459  83.6861877  82.9790451  81.2519349  91.6954864
  83.6799910  81.8855832  91.8484258  82.5085566  81.5934081  90.9350503
  91.1044847  79.5937299  79.9802771  91.3804690  79.4793893  80.8896645
  90.2349345  79.1954784  79.9414944  90.7791737  73.8063957  89.5207414
  90.1263187  74.0539864  88.8659867  91.1572117  72.9928095  89.1869891
  87.7398911  83.8423650  83.6235584  87.9221305  83.0245306  84.0863337
  88.5631897  84.0591342  83.1860474  88.0741076  82.7691835  80.8850633
  88.6028842  82.2584289  80.2720795  88.3369296  82.4534365  81.7496166
  86.8279310  74.5483768  96.0073451  86.1519947  74.4477897  96.6775826
  87.6506944  74.3922981  96.4709448  78.5758169  80.7855704  88.6285966
  79.1611606  80.0399392  88.7613871  78.3783007  81.0959661  89.5122630
  81.4296824  83.8206952  83.6448409  80.7607199  84.3053079  83.1612449
  81.2909694  84.0676172  84.5591787  73.1675824  73.3561304  87.3490410
  73.2059923  72.8224895  88.1427528  72.6616116  72.8296510  86.7301387
  85.5702093  85.8550695  90.2431067  86.1220401  86.0182317  91.0080152
  85.9108286  86.4455133  89.5711092  80.5466586  68.2025845  90.8452952
  80.6107912  69.0640676  90.4330350  80.4833706  67.5899846  90.1125310
  80.0218858  70.2748977  94.4925986  80.6490897  69.8926055  95.1063510
  79.1646777  70.0563179  94.8581679  90.4212967  80.6811953  96.0979722
  90.9652871  81.2941911  95.6034676  89.8399812  81.2391531  96.6146735
  76.7984401  72.0825406  80.4244341  77.0937842  71.1736085  80.3711395
  75.8972437  72.0613146  80.1025343  88.7070480  83.8032671  87.2294749
  88.5821619  83.0022410  86.7205695  89.3649571  84.2978864  86.7408719
  80.3278648  70.1581403  86.4071890  79.6065234  70.7717371  86.2679363
  81.1171904  70.6939168  86.3288535  90.7705388  81.6041691  88.8574299
  89.8235724  81.4847042  88.7852626  91.1188161  80.7164189  88.9400561
  83.1304962  67.4935830  92.6812541  83.6539363  67.7398126  93.4438851
  82.9117295  68.3255864  92.2615679  78.5272243  69.7639504  80.5483666
  78.1984949  68.8836883  80.3658772  78.8811613  69.7087173  81.4360055
  87.7751822  81.3994407  85.0578652  87.6276784  80.4711114  85.2386222
  88.6005315  81.4214498  84.5735727  81.6414066  70.0512474  80.9159144
  81.9810138  70.5798395  80.1937752  82.0886186  70.3892880  81.6917710
  91.3785943  82.2222966  86.1443524  92.3032491  82.0165827  86.0067976
  91.2101247  81.9739367  87.0532866  84.3357507  68.4349525  90.3662212
  83.9954327  67.6357338  90.7682892  83.6296513  68.7351236  89.7939045
  84.9873978  65.5198837  88.8189535  85.8100048  65.0459315  88.6968425
  85.2312042  66.2989321  89.3188221  82.5112557  72.2117958  86.6281513
  82.3657138  72.5258261  87.5205795  82.0337761  72.8302858  86.0752412
  84.3708940  69.2020506  86.6762403  84.3570509  68.3061599  86.3394701
  85.0881368  69.2091169  87.3100689  86.2235071  69.6357846  88.7215530
  85.9652849  70.5574917  88.7199861  85.6920111  69.2388280  89.4115995
  91.1681260  82.7408633  81.5005616  91.3418137  82.1755056  80.7479468
  91.6610151  83.5409528  81.3185106  76.9858219  74.7523302  89.5669175
  76.4411687  75.5283110  89.6989449  77.8637569  75.0994107  89.4088296
  97.0220651  75.5045056  83.1195916  97.4651797  74.7552381  82.7215039
  96.1447161  75.4955192  82.7369648  92.1556432  82.0575397  78.6002514
  92.8507337  82.6782090  78.8189829  92.4979582  81.2070749  78.8754892
  77.7724241  73.8793198  92.4599332  77.0305977  74.0275834  93.0463962
  77.4516986  74.1401464  91.5966081  94.0547855  79.5075103  80.1289845
  94.5799179  79.8462376  79.4039165  93.9670208  78.5722118  79.9452980
  85.7167904  83.4209177  92.2579722  86.0255030  83.1758323  93.1302421
  86.5143386  83.6255815  91.7698592  85.7388516  85.5747086  84.4885098
  85.2993506  85.0823465  85.1817955  86.4896633  85.0320054  84.2477173
  78.2180855  81.7658627  84.4909726  79.0438875  81.4662399  84.1108370
  77.8674907  80.9966250  84.9399515  83.1862388  81.1185095  86.5607400
  82.5642397  80.4555800  86.2609628  83.8567255  81.1446227  85.8781048
  76.4189460  79.6844954  85.4498660  75.5821368  79.2567128  85.2682661
  76.3913105  79.8777397  86.3869451  83.2586916  69.5966883  96.1539906
  83.3075071  70.4729006  95.7717675  83.8009430  69.0544276  95.5811549
  93.7441761  80.1408007  95.4341043  92.9537305  80.1232145  94.8945542
  93.5075116  80.6796300  96.1890079  93.8639636  76.9900473  92.7473771
  93.9137641  76.8250480  93.6889294  93.7553560  76.1227732  92.3571652
  82.7475895  79.6689019  80.0365860  82.8964015  80.3524483  79.3832533
  83.5542338  79.6494109  80.5515316  91.1543399  72.9731401  94.0633078
  92.0553261  72.8337866  93.7717076  91.2291373  73.1385856  95.0031256
  85.4886204  70.3498256  92.9086264  84.6189513  70.6431822  92.6368853
  85.7245684  70.9338701  93.6293528  95.3657833  79.4097415  92.9915793
  95.0742641  79.7727395  93.8279254  94.7529964  78.6964423  92.8129125
  96.5653515  76.9750294  85.5118363  97.4000407  77.4140098  85.6755924
  96.7012644  76.4988947  84.6926609  93.6145021  74.5330029  91.4595851
  94.0899143  74.7257675  90.6514702  92.6910587  74.5889215  91.2139235
  80.5028528  75.6954196  81.0426929  80.2574570  74.7916526  81.2407139
  80.6724443  75.6971347  80.1006407  79.7724176  71.4282554  78.5413091
  79.0793420  71.5026909  77.8853127  79.5275927  70.6642898  79.0634608
  86.2471301  82.1637149  77.5077608  85.6745268  82.7827336  77.0548080
  86.8204094  82.7136511  78.0417530  92.3146690  71.4095789  89.6924157
  93.2664113  71.5093887  89.7136381  92.1450141  70.6174058  90.2022241
  89.4668560  82.4474299  78.6386190  90.3999233  82.3819861  78.8419065
  89.3791773  83.2830566  78.1800723  92.0956577  81.7640170  75.5990138
  92.0170209  81.4300033  76.4925895  92.9166244  82.2561938  75.5981610
  94.7934768  74.6301909  88.8066456  94.7611088  73.6917910  88.9926140
  95.4035392  74.7085946  88.0732281  86.6318099  73.4997962  74.8493660
  87.5777204  73.3704170  74.9182078  86.2532344  72.7612624  75.3263088
 100.6111318  75.6917916  87.9472493 101.3414707  75.4303204  88.5080196
 100.0018264  74.9546638  87.9874561  98.6926615  73.8325778  88.5446944
  97.9659779  73.6981743  87.9363436  98.2773902  74.1402607  89.3503662
  86.5156792  77.5515708  96.3094317  87.4359801  77.7294307  96.5034364
  86.4806375  76.6071753  96.1574016  75.7338957  72.7454302  85.2347592
  75.4141741  71.8919610  84.9421966  75.1872385  72.9602880  85.9905559
  79.5118864  75.4616743  88.9517098  79.7304874  76.3933850  88.9705132
  79.9244638  75.1024717  89.7371902  84.3846729  71.0349948  98.3419847
  84.2843456  71.9844305  98.2731938  84.1668271  70.7068187  97.4695917
  75.6027217  76.3657213  87.2040713  74.9090688  75.9511166  86.6910668
  76.3500208  76.4077750  86.6074132  84.2478000  74.4647087  97.1584909
  83.7645081  75.2647447  97.3648798  84.3338939  74.4755032  96.2052353
  77.5163959  76.2975467  85.0806728  77.4934647  76.3963154  84.1288611
  77.8264596  77.1440618  85.4023894  80.1751337  78.3551622  89.1953343
  81.1294591  78.3235564  89.1283274  79.9763861  77.8942246  90.0103569
  80.7650719  76.9252738  91.7624140  81.5843608  77.4196817  91.7858978
  81.0387527  76.0084706  91.7341708  78.5301566  83.8971241  86.2123541
  78.3956034  83.1371642  85.6461539  78.1133628  84.6212141  85.7452329
  89.6660529  79.0808165  75.2200116  90.3696379  79.2858168  75.8357771
  88.9423178  79.6484927  75.4849199  90.4958339  74.8318026  81.3402386
  90.4393540  75.2886578  80.5010018  91.0486682  74.0708711  81.1625229
  98.6175483  73.3603831  84.6723797  98.0575041  73.4297021  85.4455359
  98.0118986  73.1844816  83.9523293  81.6870692  84.7940558  86.4241983
  81.5703076  85.7385991  86.3220673  80.8663138  84.4914120  86.8127782
  91.5747226  79.5190694  77.2698576  92.4092830  79.0871893  77.0876051
  91.4131569  79.3472708  78.1975470  91.2293118  76.0222808  78.6354915
  91.1741922  75.8567079  77.6943359  90.6039174  76.7298840  78.7917105
  76.0185633  71.2590872  92.4616337  76.6644497  70.7489826  92.9503563
  75.8102784  71.9959554  93.0359763  88.5439026  78.3271719  97.9608478
  89.4130185  78.5012372  97.5995113  88.0645777  79.1466136  97.8384207
  82.7125206  85.4468820  89.6397912  83.6152452  85.4792431  89.9564407
  82.4862576  84.5169271  89.6544247  84.4678808  84.1999807  86.3007990
  83.5174439  84.2001669  86.1872363  84.7711294  83.4532541  85.7844025
  80.3583124  68.4058489  96.5591352  81.2214586  68.0495294  96.7694676
  79.7848535  68.0672384  97.2466756 100.2031501  90.0360345  87.3653753
 100.8409911  89.9167093  86.6617093 100.0852344  90.9841189  87.4241705
  97.0121208  89.9887773  87.3015277  96.6739719  89.8728838  86.4135812
  97.8810976  89.5878939  87.2816283  92.8708023  91.8423250  83.2912168
  92.3072888  91.7513187  82.5228456  92.7560418  91.0223154  83.7714661
  97.4940991  91.1422625  93.2601483  97.4829631  90.7475423  92.3881987
  97.6561630  90.4088698  93.8535254  90.4172455  93.3374441  86.1296389
  91.2093747  92.9965266  85.7142688  90.6569105  93.4469416  87.0498542
  98.4507582  95.5094218  78.6026633  97.7995562  96.0948298  78.2160647
  99.2451945  96.0400412  78.6621671  92.3763209  92.5983355  79.0013768
  93.1494085  92.0512342  78.8626643  92.7288608  93.4627604  79.2128229
  94.2148252  93.9259737  92.2080667  93.9238118  94.8305368  92.0927333
  94.8505236  93.9676265  92.9224736  95.1404459  91.3036585  88.7982027
  95.7368031  91.0792608  88.0838989  95.1979430  90.5621331  89.4007474
  94.7129487  88.7576021  76.6332217  94.9655008  88.2357542  75.8715680
  93.7754046  88.5942166  76.7358901  99.7572770  87.7611799  84.4406961
 100.5435859  87.3431222  84.0897378 100.0211474  88.6657891  84.6088609
  99.9282847  93.1984649  79.1395618  99.2928680  93.2719276  79.8516522
  99.5980254  93.7878248  78.4614697 105.1581197  87.6987032  85.3439939
 105.8906369  87.1286249  85.5777769 104.4020553  87.3108633  85.7846445
  94.4325776  90.6604127  78.8356592  94.3162034  89.9849030  79.5037677
  94.5428036  90.1736501  78.0188745  96.7757317  90.1214274  82.5403282
  96.4115524  89.5944895  83.2516203  97.6324433  89.7312743  82.3669767
 102.6806617  81.4108606  89.8034548 102.3489942  82.2804017  89.5795763
 102.0852231  81.0944890  90.4828578  96.4162804  85.1504174  77.5364630
  96.5837206  86.0184410  77.9035101  96.2259973  85.3131455  76.6125919
  99.1738137  93.6121152  89.2030461  98.8738860  94.5146191  89.0946268
  98.8289196  93.3453336  90.0551613  92.6250618  90.0634949  85.2367165
  91.7001115  89.9311163  85.4444857  92.8735031  90.8429169  85.7337107
 102.5735281  86.1303693  86.8827898 101.6652158  86.0619101  86.5886659
 102.5222876  86.6075638  87.7109723  96.3952024  87.6061831  78.5211297
  96.2751650  88.0518882  79.3596777  95.7004613  87.9547149  77.9624835
  89.9859429  89.7068223  86.0710954  90.1151810  89.9602702  86.9850366
  89.3056881  90.2995931  85.7515609  94.1558917 100.3765473  82.1701428
  94.0782946 101.3273298  82.2489909  93.5520560 100.0311345  82.8276355
  96.6476146  87.5493338  94.8262795  95.8709480  88.1087258  94.8165660
  97.2866709  88.0350121  95.3477665 104.4396927  84.3320131  88.6605772
 103.7971307  84.6252664  88.0145566 103.9351855  84.2173051  89.4658968
 102.0937091  88.0783304  79.3491631 103.0054947  88.3110691  79.1739329
 101.5846738  88.6620348  78.7866710  94.9022519  90.3578792  94.3880762
  95.6437203  90.8963836  94.1115586  94.1959504  90.9845080  94.5452314
 100.3777858  92.5007932  92.9852924 100.7861214  92.0590343  92.2407556
  99.6555120  91.9260560  93.2387117  96.7308928  87.4380539  90.3586481
  97.5770124  87.8619952  90.5021130  96.6707566  86.7814163  91.0525044
 100.7006673  93.0609123  86.7405213 100.0715535  93.2254837  86.0381280
 100.3132335  93.4750732  87.5116177 104.5795905  93.9963561  84.0949576
 103.8946943  94.3762462  83.5446610 104.6639754  94.6058887  84.8281524
  99.8808374  85.0984907  92.0167654  99.6369306  85.8526968  91.4801930
 100.1568304  85.4770255  92.8514901 101.8346836  91.6423520  90.6944920
 102.0463732  92.2855279  90.0179301 101.7876585  90.8085836  90.2266850
  99.4373065  84.2541340  87.5981492  98.5757544  84.5522594  87.8898230
  99.4635500  84.4711739  86.6662525  96.2534635  92.7983531  84.0055298
  96.7172980  93.0771234  83.2159920  95.9891433  91.8966975  83.8228388
  93.1458716  92.3455012  86.9435061  93.7160073  92.7742281  86.3052545
  93.7366828  92.0637597  87.6419247  95.1903521  88.9206683  80.8144863
  95.8927564  89.3727727  81.2818789  94.8584149  88.2790502  81.4424756
  93.6383882  87.5118440  95.1896072  93.0082543  88.1934721  95.4231469
  93.5319970  87.4001521  94.2449210  88.9328855  87.1790236  86.1161996
  88.1427909  87.4347764  85.6402107  89.4240102  87.9938574  86.2214037
 102.9492664  94.5195475  88.8667277 103.7710108  94.1175662  88.5849959
 102.9455067  94.4163709  89.8183393  90.8843600  87.5434815  83.0745473
  90.0874763  87.6553509  83.5928969  90.6569192  87.8821467  82.2086364
  96.7149268  94.0679518  91.0227988  96.7793700  94.5299926  91.8586159
  96.0060192  93.4376883  91.1510297  87.2166558  87.4320726  88.5476987
  87.4674596  88.3167736  88.8134563  87.7526106  87.2525328  87.7752079
 111.0398657  90.8634223  85.2152249 110.2862366  90.2941622  85.0596253
 111.1746199  90.8296888  86.1622883  96.4297285  95.7347626  80.8906968
  96.2942960  96.5799161  81.3191816  96.9707098  95.9366903  80.1272902
  92.9164625  81.8139206  97.5521323  92.5231571  81.2605404  98.2268967
  93.7330765  82.1249784  97.9427841  89.8826683  93.2523064  81.4634893
  90.3951203  94.0466314  81.6140458  90.5349396  92.5549354  81.3968495
  91.6921568  96.3688820  83.5457646  91.8688196  97.2906785  83.3578630
  92.4878401  96.0547239  83.9752026  95.8332586  83.2297085  95.1441580
  96.5742299  83.8304238  95.0646042  96.0650509  82.4874723  94.5859622
  90.9773924  88.4153452  93.4219809  90.8627439  87.5138709  93.7226908
  90.1218442  88.6617149  93.0704626  92.8152883  97.8866994  89.5467989
  93.3660308  97.7584057  88.7744983  91.9764359  98.1861883  89.1962881
 100.1547000  96.6373992  93.0488711 100.1365475  97.4582873  92.5568981
 101.0766920  96.5128067  93.2738852  96.6120054  94.1518122  93.8912220
  97.1448391  93.3906410  93.6611528  96.0834135  93.8591774  94.6336374
  99.7789749  79.2578188  89.4205861  99.4354018  80.1479829  89.3444972
 100.1468712  79.0679845  88.5575446  87.8475600  91.5811718  82.2394464
  88.6850822  91.9908726  82.0228171  88.0253867  90.6411160  82.2094657
  99.7440032  89.2486799  77.9278297  99.2286655  90.0191403  78.1666684
  99.4717340  88.5751935  78.5511358  97.3287143  84.0936500  82.9863535
  96.4728739  83.7043350  82.8069174  97.7414095  84.1728460  82.1263320
  98.8586289  81.6282843  87.3855095  98.3551085  81.5912978  86.5722900
  99.1516896  82.5375586  87.4451751  95.1029175  81.7121573  86.3921276
  95.9682172  81.5164381  86.0327166  95.1706684  81.4831924  87.3190633
 104.7174306  92.0019153  79.8631470 103.9403749  91.6630313  79.4186632
 105.3965787  92.0071777  79.1886435  99.5326335  87.1213891  79.7538078
  99.2276471  87.4360040  80.6048221 100.4856777  87.1995311  79.7965411
  97.9772767  93.2804114  81.4031032  97.4494128  92.5456874  81.0904269
  97.4760270  94.0578791  81.1571000 102.9565613  91.4753135  86.5198078
 102.2989287  92.1652396  86.6078207 103.7606012  91.8649567  86.8632064
  92.7091494  83.9423780  83.7637643  93.2835246  83.7198962  83.0310836
  93.2962477  84.0112475  84.5166245 101.7671072  89.8297507  84.5702020
 102.2802953  90.4627499  85.0723729 102.4172296  89.2298703  84.2045380
  93.0361082  85.9728241  77.7833529  92.1998394  86.3102928  78.1042803
  92.8965851  85.8377221  76.8460665  95.0114162  80.8165029  82.4912713
  94.3578574  80.5014047  81.8669327  94.9694636  80.1940770  83.2172536
  96.1225367  91.0984324  74.4066005  95.2152429  90.8673578  74.6057154
  96.6196399  90.3021944  74.5939986  99.0293446  99.8081832  77.3262691
  98.3555145 100.1113528  77.9347649  99.4159268 100.6110912  76.9768148
  98.2451902  87.3046963  86.8160360  97.3274464  87.5261910  86.6582048
  98.6612046  87.3793273  85.9572068  99.0286950  88.7038379  81.9463041
  99.7758769  89.2159776  81.6370163  99.2978540  88.3822431  82.8067434
  97.3013600  91.1996919  78.9289995  96.3924820  90.9155952  79.0262465
  97.3308684  91.6195998  78.0693302 102.5332868  94.8103509  82.6981162
 102.0795195  93.9694419  82.7546353 101.9026835  95.4464907  83.0355943
 101.4765787  85.7395495  83.9281830 100.7388544  85.2272881  84.2592072
 101.7292561  85.2995876  83.1165107 100.9765807  96.6480005  83.6330981
 101.2688781  97.2085063  82.9143346 101.4864428  96.9408566  84.3884140
 101.5777415  78.5171747  84.5223599 101.8836292  77.6569110  84.2349514
 102.3030020  79.1089367  84.3222593  87.8701771  88.9202433  82.9105197
  87.6726171  88.3271794  82.1856264  87.3148435  88.6154644  83.6281136
  95.8498494  88.8125540  85.0299790  95.9047104  87.8599376  84.9542267
  95.0389696  88.9684979  85.5141089  96.9989688  92.7405663  76.2678073
  96.5609118  92.0241522  75.8083711  97.7400129  92.9681778  75.7063165
  93.7890854  87.4302600  82.7890169  92.9758720  87.7296770  83.1955361
  94.2849849  87.0358288  83.5064651  95.9399432  97.4260357  84.7224434
  95.8975611  97.6521203  83.7932966  96.8562131  97.1923731  84.8710235
  99.3865066  87.8944424  91.6205063  99.7414454  88.1215897  92.4799529
 100.0337197  88.2262801  90.9982318 105.1162803  91.0162860  82.3254392
 104.9780702  91.2064456  81.3975581 104.7599022  91.7782243  82.7822443
  93.2804929  85.0020955  88.4051404  93.9204308  84.8609714  87.7074367
  92.4482460  84.7155469  88.0290006 105.1432183  93.0839387  87.3365663
 105.5768689  92.9914676  88.1848718 105.8563763  93.0596887  86.6985679
  94.0565233  94.3023386  84.5186396  94.8505832  93.8073706  84.3168971
  93.3456925  93.7741249  84.1554102  98.8760078  96.6841481  88.8698764
  98.9297100  97.2532417  89.6376480  98.0074859  96.8543366  88.5052801
  90.3647997  88.4466467  80.5946149  89.4345585  88.3850923  80.8116111
  90.4605468  87.9242420  79.7982790  90.2833546  84.9721280  83.1824391
  90.5440363  85.8866613  83.0733551  91.1050718  84.5045723  83.3321004
  91.7558471  86.3859037  90.3523215  92.4281524  86.1776399  89.7035864
  90.9288257  86.1881123  89.9128448 106.0047732  93.1263088  89.8698549
 106.1983622  94.0308898  90.1157824 105.9048350  92.6670507  90.7037134
  97.6584043  83.0120978  92.3688876  97.0111958  83.7110928  92.2753353
  98.4285058  83.4457122  92.7365124  97.8348177  90.8501743  90.4285696
  98.7640237  91.0012903  90.2554663  97.4139207  90.9385764  89.5734342
  96.6336509  94.8752408  88.1984234  96.4947595  94.5071192  89.0710172
  95.8451105  95.3900047  88.0268191  97.2284661  99.9761504  79.5409770
  97.4036417  99.5049547  80.3555393  96.5417449 100.6027270  79.7691031
  98.1841724  94.2534010  85.5873071  97.8491557  94.2134780  86.4830721
  97.6845670  93.5878726  85.1143482  92.1585968  89.6601640  91.1125653
  92.0205766  88.9281879  91.7137192  93.0690892  89.5710540  90.8309840
 101.1200916  91.5990045  75.8610131 100.5030086  90.8736873  75.7643184
 100.6517404  92.3599405  75.5177205  94.7868269  89.3721600  90.6009332
  95.4967887  88.7314792  90.5595951  94.7437577  89.6234494  91.5235513
  93.4997203  86.3586818  92.4204972  92.9634560  85.9077556  93.0726568
  92.9113911  86.4932726  91.6775436  91.7945746 103.1250867  86.3149630
  92.0342345 103.7569391  86.9928649  90.9514943 102.7738907  86.6014990
  92.9099462  85.8175469  74.9831435  92.0328928  85.6964270  74.6193682
  93.3857215  85.0261547  74.7310324 102.7772455  94.2728537  91.7529891
 101.8899234  93.9354459  91.8756290 103.3471006  93.5411568  91.9898656
  84.4301602  90.6052629  85.0772942  85.1172642  90.2914359  84.4893958
  84.2749731  91.5093993  84.8040194  89.2336324  85.4942825  89.5057966
  89.1494513  84.8868495  88.7708376  88.4119030  85.9851844  89.5067462
  96.3073608  98.9329989  88.7191134  96.2343780  99.7384961  89.2310439
  95.8651001  99.1321955  87.8939156  96.0963388  98.1701759  82.2293956
  95.3130910  98.7123439  82.3232180  96.7956133  98.6875739  82.6288197
  99.4060038  83.9796389  84.8728161  99.9028737  83.2266351  84.5529231
  98.6347019  84.0160705  84.3071370 107.2589795  89.6836754  86.5146453
 107.2479672  90.5661470  86.1440386 106.3907175  89.3308305  86.3200990
  98.7672292  98.8316823  90.8749293  99.4800264  99.4664288  90.8025194
  98.2762320  98.9280689  90.0589295 100.4889819  92.7368076  82.4466585
  99.5546097  92.8569538  82.2771289 100.6666487  91.8340543  82.1826594
  95.9895007  86.1213772  84.5999846  95.6192794  85.5684812  85.2880751
  96.4854099  85.5171905  84.0474846 103.8762370  88.5785395  82.9816619
 104.3422822  89.4113387  82.9076921 104.3269870  88.1130377  83.6861877
  93.8184205  96.5811267  91.6954864  94.5193665  97.2147750  91.8484258
  93.3479320  96.9225998  90.9350503 101.9438601  94.9229217  79.9802771
 102.2198445  94.8085811  80.8896645 101.0743100  94.5246701  79.9414944
 101.8479033  80.9465982  87.0207520 100.9342112  81.1770209  87.1889727
 102.2772134  81.0304426  87.8721552 101.6185491  89.1355874  89.5207414
 100.9656941  89.3831782  88.8659867 101.9965871  88.3220012  89.1869891
  98.5792665  99.1715567  83.6235584  98.7615060  98.3537223  84.0863337
  99.4025651  99.3883260  83.1860474  98.9134831  98.0983753  80.8850633
  99.4422597  97.5876207  80.2720795  99.1763050  97.7826283  81.7496166
  97.6673064  89.8775685  96.0073451  96.9913701  89.7769815  96.6775826
  98.4900698  89.7214899  96.4709448  89.4151923  96.1147622  88.6285966
  90.0005360  95.3691310  88.7613871  89.2176762  96.4251579  89.5122630
  92.2690578  99.1498869  83.6448409  91.6000954  99.6344997  83.1612449
  92.1303448  99.3968090  84.5591787  84.0069578  88.6853222  87.3490410
  84.0453678  88.1516813  88.1427528  83.5009871  88.1588428  86.7301387
  96.4095847 101.1842613  90.2431067  96.9614155 101.3474234  91.0080152
  96.7502041 101.7747051  89.5711092  91.3860340  83.5317763  90.8452952
  91.4501667  84.3932593  90.4330350  91.3227461  82.9191764  90.1125310
  90.8612613  85.6040895  94.4925986  91.4884652  85.2217972  95.1063510
  90.0040532  85.3855097  94.8581679  87.6378156  87.4117324  80.4244341
  87.9331597  86.5028003  80.3711395  86.7366191  87.3905064  80.1025343
  99.5464234  99.1324588  87.2294749  99.4215374  98.3314328  86.7205695
 100.2043325  99.6270782  86.7408719  91.1672403  85.4873321  86.4071890
  90.4458988  86.1009288  86.2679363  91.9565658  86.0231086  86.3288535
 101.6099143  96.9333608  88.8574299 100.6629478  96.8138960  88.7852626
 101.9581916  96.0456106  88.9400561  93.9698716  82.8227747  92.6812541
  94.4933118  83.0690044  93.4438851  93.7511049  83.6547782  92.2615679
  89.3665997  85.0931422  80.5483666  89.0378703  84.2128801  80.3658772
  89.7205368  85.0379091  81.4360055  98.6145576  96.7286325  85.0578652
  98.4670538  95.8003032  85.2386222  99.4399070  96.7506415  84.5735727
  92.4807820  85.3804392  80.9159144  92.8203893  85.9090313  80.1937752
  92.9279941  85.7184798  81.6917710 102.2179698  97.5514883  86.1443524
 103.1426245  97.3457745  86.0067976 102.0495001  97.3031284  87.0532866
  95.1751261  83.7641442  90.3662212  94.8348082  82.9649255  90.7682892
  94.4690267  84.0643153  89.7939045  95.8267733  80.8490755  88.8189535
  96.6493802  80.3751233  88.6968425  96.0705797  81.6281239  89.3188221
  94.4675967  83.8779013  79.1152437  95.1884330  84.2560266  78.6116153
  93.8441272  84.5967890  79.2187414  98.6107090  84.5824162  80.0510769
  98.8270705  85.4648800  79.7499597  98.1301158  84.1910376  79.3216411
  93.3506312  87.5409875  86.6281513  93.2050892  87.8550178  87.5205795
  92.8731515  88.1594776  86.0752412  95.2102695  84.5312423  86.6762403
  95.1964263  83.6353517  86.3394701  95.9275123  84.5383087  87.3100689
  97.0628825  84.9649764  88.7215530  96.8046603  85.8866834  88.7199861
  96.5313866  84.5680198  89.4115995 102.0075014  98.0700551  81.5005616
 102.1811892  97.5046973  80.7479468 102.5003905  98.8701446  81.3185106
  87.8251974  90.0815220  89.5669175  87.2805442  90.8575028  89.6989449
  88.7031324  90.4286024  89.4088296  94.6139591  83.4126804  81.9449973
  94.7355502  82.4843450  82.1440861  94.3241633  83.4265490  81.0328289
  97.4830781  81.0981714  85.0816693  97.5052478  81.1621047  84.1268673
  97.8998840  80.2586223  85.2757199 107.8614405  90.8336974  83.1195916
 108.3045551  90.0844299  82.7215039 106.9840916  90.8247110  82.7369648
 102.9950187  97.3867315  78.6002514 103.6901091  98.0074008  78.8189829
 103.3373337  96.5362666  78.8754892  88.6117996  89.2085116  92.4599332
  87.8699732  89.3567751  93.0463962  88.2910740  89.4693382  91.5966081
 104.8941610  94.8367021  80.1289845 105.4192934  95.1754293  79.4039165
 104.8063962  93.9014036  79.9452980  96.5561658  98.7501094  92.2579722
  96.8648785  98.5050241  93.1302421  97.3537140  98.9547733  91.7698592
  96.5782270 100.9039004  84.4885098  96.1387261 100.4115383  85.1817955
  97.3290387 100.3611972  84.2477173  89.0574609  97.0950545  84.4909726
  89.8832629  96.7954317  84.1108370  88.7068661  96.3258167  84.9399515
  94.0256143  96.4477013  86.5607400  93.4036152  95.7847718  86.2609628
  94.6961010  96.4738145  85.8781048  87.2583214  95.0136871  85.4498660
  86.4215123  94.5859046  85.2682661  87.2306860  95.2069315  86.3869451
  94.0980670  84.9258801  96.1539906  94.1468826  85.8020924  95.7717675
  94.6403184  84.3836194  95.5811549 104.7033391  92.3192391  92.7473771
 104.7531396  92.1542398  93.6889294 104.5947314  91.4519650  92.3571652
  93.5869650  94.9980936  80.0365860  93.7357770  95.6816401  79.3832533
  94.3936093  94.9786026  80.5515316 101.9937153  88.3023319  94.0633078
 102.8947016  88.1629784  93.7717076 102.0685128  88.4677774  95.0031256
  96.3279959  85.6790173  92.9086264  95.4583268  85.9723740  92.6368853
  96.5639439  86.2630618  93.6293528 107.4047270  92.3042212  85.5118363
 108.2394161  92.7432016  85.6755924 107.5406399  91.8280865  84.6926609
 104.4538776  89.8621947  91.4595851 104.9292897  90.0549593  90.6514702
 103.5304341  89.9181133  91.2139235  91.3422282  91.0246114  81.0426929
  91.0968324  90.1208444  81.2407139  91.5118197  91.0263264  80.1006407
  99.0318992  81.8969790  90.4251685  99.5500936  82.6330817  90.0998173
  98.6774125  82.2033784  91.2598444  90.6117930  86.7574472  78.5413091
  89.9187175  86.8318827  77.8853127  90.3669682  85.9934815  79.0634608
  99.2831587  78.3170073  85.9452581  99.5633340  77.6493262  86.5713008
 100.0682193  78.5099169  85.4327245  97.0865055  97.4929067  77.5077608
  96.5139022  98.1119254  77.0548080  97.6597849  98.0428428  78.0417530
 103.1540445  86.7387707  89.6924157 104.1057868  86.8385805  89.7136381
 102.9843895  85.9465975  90.2022241 101.1754824  83.8243290  89.8783557
 100.5804756  84.1048303  89.1830046 100.8904521  84.3137191  90.6500299
 100.3062315  97.7766217  78.6386190 101.2392988  97.7111779  78.8419065
 100.2185528  98.6122484  78.1800723 102.9350331  97.0932087  75.5990138
 102.8563963  96.7591951  76.4925895 103.7559998  97.5853855  75.5981610
 105.6328523  89.9593827  88.8066456 105.6004843  89.0209827  88.9926140
 106.2429146  90.0377863  88.0732281  97.4711854  88.8289880  74.8493660
  98.4170958  88.6996088  74.9182078  97.0926098  88.0904541  75.3263088
 105.7823011  86.7504870  88.8524739 105.2662060  85.9663327  88.6654668
 106.6662960  86.4223587  89.0171259 103.4433738  80.4945886  84.8120552
 103.2458559  80.1860974  85.6963884 104.0533444  81.2207524  84.9418482
 111.4505073  91.0209833  87.9472493 112.1808461  90.7595122  88.5080196
 110.8412018  90.2838555  87.9874561 109.5320370  89.1617696  88.5446944
 108.8053533  89.0273661  87.9363436 109.1167657  89.4694525  89.3503662
  95.6554771  86.7539856  74.7848545  94.7486226  86.4572969  74.8611259
  95.9330752  86.4569674  73.9182832  86.5732711  88.0746219  85.2347592
  86.2535495  87.2211528  84.9421966  86.0266139  88.2894798  85.9905559
  90.3512619  90.7908660  88.9517098  90.5698628  91.7225768  88.9705132
  90.7638392  90.4316635  89.7371902  97.2716836  81.2976746  80.9392787
  96.4617565  80.9523831  81.3148033  97.9601253  80.9884289  81.5280398
  99.2007385  80.3754792  82.5617083  99.7538423  80.7950246  83.2207106
  99.4377471  79.4490541  82.6040039  95.2240484  86.3641866  98.3419847
  95.1237211  87.3136223  98.2731938  95.0062026  86.0360105  97.4695917
  94.4253555  83.6126791  74.9260525  95.2872719  83.9381689  75.1856342
  94.6103899  82.8258287  74.4133590  86.4420971  91.6949131  87.2040713
  85.7484443  91.2803084  86.6910668  87.1893962  91.7369667  86.6074132
 102.5786192  82.4855318  82.0695748 101.9984861  83.1440122  81.6873800
 102.3122124  81.6632662  81.6583165 101.0289758  81.8860375  84.2717068
 101.5289537  81.9976910  83.4631387 101.6725366  81.5821428  84.9117876
  95.0871754  89.7939005  97.1584909  94.6038836  90.5939365  97.3648798
  95.1732693  89.8046950  96.2052353  88.3557714  91.6267385  85.0806728
  88.3328402  91.7255072  84.1288611  88.6658350  92.4732535  85.4023894
  91.0145091  93.6843540  89.1953343  91.9688345  93.6527482  89.1283274
  90.8157615  93.2234163  90.0103569  91.6044474  92.2544656  91.7624140
  92.4237363  92.7488734  91.7858978  91.8781281  91.3376624  91.7341708
 101.3611070  84.6455408  81.1252096 100.4736925  84.9305059  80.9072291
 101.7765059  84.4849171  80.2779373 104.7125606  84.6701929  84.8406435
 105.4885996  85.1598381  85.1131052 103.9873740  85.0959983  85.2978305
 107.1498165  85.3829548  85.8980376 107.7442655  85.1425284  85.1873684
 107.2224748  84.6636679  86.5253912  89.3695320  99.2263159  86.2123541
  89.2349788  98.4663560  85.6461539  88.9527383  99.9504059  85.7452329
 100.5054283  94.4100083  75.2200116 101.2090133  94.6150085  75.8357771
  99.7816932  94.9776845  75.4849199 101.3352094  90.1609944  81.3402386
 101.2787295  90.6178495  80.5010018 101.8880436  89.4000629  81.1625229
 105.1456899  85.9499676  82.1652506 104.8893834  85.5496311  82.9960713
 104.5209767  86.6643470  82.0402645 109.4569237  88.6895749  84.6723797
 108.8968795  88.7588938  85.4455359 108.8512741  88.5136734  83.9523293
  92.5264446 100.1232476  86.4241983  92.4096830 101.0677909  86.3220673
  91.7056892  99.8206038  86.8127782 102.4140981  94.8482612  77.2698576
 103.2486585  94.4163810  77.0876051 102.2525324  94.6764626  78.1975470
 102.0686873  91.3514725  78.6354915 102.0135677  91.1858997  77.6943359
 101.4432928  92.0590758  78.7917105  86.8579388  86.5882790  92.4616337
  87.5038251  86.0781744  92.9503563  86.6496539  87.3251471  93.0359763
  95.3782998  80.8522834  78.2140234  95.3661668  81.7964674  78.3708504
  96.2706420  80.6692980  77.9199695  93.5518960 100.7760738  89.6397912
  94.4546207 100.8084348  89.9564407  93.3256330  99.8461189  89.6544247
  95.3072562  99.5291725  86.3007990  94.3568193  99.5293586  86.1872363
  95.6105048  98.7824459  85.7844025  99.1935118  77.4465611  82.4686170
  98.4267514  76.8924098  82.6142853  99.6045823  77.5187480  83.3300322
  91.1976879  83.7350407  96.5591352  92.0608340  83.3787211  96.7694676
  90.6242289  83.3964301  97.2466756 103.7101778 107.1715168  83.2912168
 103.1466643 107.0805104  82.5228456 103.5954173 106.3515072  83.7714661
 103.2156964 107.9275272  79.0013768 103.9887840 107.3804259  78.8626643
 103.5682362 108.7919522  79.2128229 105.5523241 104.0867938  76.6332217
 105.8048762 103.5649460  75.8715680 104.6147801 103.9234084  76.7358901
 110.5966524 103.0903717  84.4406961 111.3829613 102.6723140  84.0897378
 110.8605229 103.9949809  84.6088609 105.2719530 105.9896044  78.8356592
 105.1555788 105.3140948  79.5037677 105.3821790 105.5028418  78.0188745
 107.6151071 105.4506192  82.5403282 107.2509278 104.9236813  83.2516203
 108.4718187 105.0604661  82.3669767 107.2556558 100.4796091  77.5364630
 107.4230960 101.3476328  77.9035101 107.0653727 100.6423373  76.6125919
 103.4644373 105.3926867  85.2367165 102.5394869 105.2603081  85.4444857
 103.7128786 106.1721086  85.7337107 107.2345779 102.9353749  78.5211297
 107.1145404 103.3810800  79.3596777 106.5398367 103.2839066  77.9624835
 100.8253184 105.0360141  86.0710954 100.9545565 105.2894619  86.9850366
 100.1450635 105.6287849  85.7515609 112.9330845 103.4075222  79.3491631
 113.8448701 103.6402609  79.1739329 112.4240492 103.9912266  78.7866710
 110.2766820  99.5833258  87.5981492 109.4151299  99.8814511  87.8898230
 110.3029255  99.8003657  86.6662525 107.0928389 108.1275448  84.0055298
 107.5566735 108.4063151  83.2159920 106.8285187 107.2258893  83.8228388
 106.0297275 104.2498601  80.8144863 106.7321319 104.7019644  81.2818789
 105.6977904 103.6082420  81.4424756  99.7722609 102.5082153  86.1161996
  98.9821663 102.7639682  85.6402107 100.2633857 103.3230491  86.2214037
 101.7237355 102.8726733  83.0745473 100.9268518 102.9845427  83.5928969
 101.4962947 103.2113385  82.2086364  98.0560312 102.7612644  88.5476987
  98.3068351 103.6459654  88.8134563  98.5919861 102.5817245  87.7752079
 100.7220437 108.5814981  81.4634893 101.2344958 109.3758232  81.6140458
 101.3743150 107.8841272  81.3968495 110.6183504  94.5870105  89.4205861
 110.2747773  95.4771747  89.3444972 110.9862466  94.3971763  88.5575446
  98.6869354 106.9103636  82.2394464  99.5244576 107.3200644  82.0228171
  98.8647622 105.9703078  82.2094657 110.5833786 104.5778716  77.9278297
 110.0680410 105.3483321  78.1666684 110.3111095 103.9043853  78.5511358
 108.1680897  99.4228417  82.9863535 107.3122494  99.0335268  82.8069174
 108.5807849  99.5020378  82.1263320 109.6980044  96.9574760  87.3855095
 109.1944840  96.9204896  86.5722900 109.9910651  97.8667503  87.4451751
 105.9422930  97.0413490  86.3921276 106.8075927  96.8456299  86.0327166
 106.0100439  96.8123842  87.3190633 110.3720089 102.4505809  79.7538078
 110.0670225 102.7651958  80.6048221 111.3250532 102.5287228  79.7965411
 103.5485249  99.2715698  83.7637643 104.1229001  99.0490880  83.0310836
 104.1356231  99.3404393  84.5166245 103.8754836 101.3020159  77.7833529
 103.0392148 101.6394846  78.1042803 103.7359606 101.1669139  76.8460665
 105.8507917  96.1456947  82.4912713 105.1972329  95.8305964  81.8669327
 105.8088391  95.5232687  83.2172536 106.9619121 106.4276242  74.4066005
 106.0546183 106.1965496  74.6057154 107.4590153 105.6313861  74.5939986
 109.8680705 104.0330296  81.9463041 110.6152524 104.5451693  81.6370163
 110.1372294 103.7114349  82.8067434 108.1407355 106.5288837  78.9289995
 107.2318574 106.2447870  79.0262465 108.1702439 106.9487916  78.0693302
 112.3159542 101.0687413  83.9281830 111.5782299 100.5564799  84.2592072
 112.5686315 100.6287794  83.1165107 112.4171169  93.8463665  84.5223599
 112.7230046  92.9861028  84.2349514 113.1423774  94.4381285  84.3222593
  98.7095525 104.2494351  82.9105197  98.5119925 103.6563712  82.1856264
  98.1542189 103.9446561  83.6281136 106.6892249 104.1417458  85.0299790
 106.7440859 103.1891294  84.9542267 105.8783451 104.2976897  85.5141089
 104.6284609 102.7594517  82.7890169 103.8152474 103.0588688  83.1955361
 105.1243603 102.3650206  83.5064651 104.1198684 100.3312873  88.4051404
 104.7598063 100.1901632  87.7074367 103.2876214 100.0447386  88.0290006
 101.2041751 103.7758385  80.5946149 100.2739339 103.7142840  80.8116111
 101.2999223 103.2534338  79.7982790 101.1227300 100.3013198  83.1824391
 101.3834117 101.2158531  83.0733551 101.9444472  99.8337640  83.3321004
 103.7493216 101.1467387  74.9831435 102.8722683 101.0256187  74.6193682
 104.2250969 100.3553465  74.7310324  95.2695356 105.9344546  85.0772942
  95.9566396 105.6206276  84.4893958  95.1143485 106.8385911  84.8040194
 100.0730079 100.8234743  89.5057966  99.9888267 100.2160412  88.7708376
  99.2512785 101.3143761  89.5067462 110.2453792  99.3088306  84.8728161
 110.7422492  98.5558269  84.5529231 109.4740774  99.3452623  84.3071370
 106.8288761 101.4505689  84.5999846 106.4586549 100.8976730  85.2880751
 107.3247854 100.8463823  84.0474846 112.6872787  96.2757900  87.0207520
 111.7735867  96.5062127  87.1889727 113.1165889  96.3596344  87.8721552
  94.8463332 104.0145140  87.3490410  94.8847432 103.4808730  88.1427528
  94.3403625 103.4880345  86.7301387 102.2254095  98.8609680  90.8452952
 102.2895421  99.7224511  90.4330350 102.1621215  98.2483682  90.1125310
  98.4771910 102.7409242  80.4244341  98.7725351 101.8319920  80.3711395
  97.5759946 102.7196981  80.1025343 102.0066157 100.8165238  86.4071890
 101.2852743 101.4301206  86.2679363 102.7959413 101.3523003  86.3288535
 100.2059752 100.4223339  80.5483666  99.8772458  99.5420718  80.3658772
 100.5599122 100.3671008  81.4360055 103.3201575 100.7096309  80.9159144
 103.6597647 101.2382231  80.1937752 103.7673695 101.0476715  81.6917710
 106.6661487  96.1782672  88.8189535 107.4887557  95.7043151  88.6968425
 106.9099551  96.9573156  89.3188221 105.3069722  99.2070931  79.1152437
 106.0278084  99.5852184  78.6116153 104.6835026  99.9259808  79.2187414
 109.4500845  99.9116080  80.0510769 109.6664459 100.7940718  79.7499597
 108.9694912  99.5202293  79.3216411 104.1900066 102.8701793  86.6281513
 104.0444647 103.1842096  87.5205795 103.7125270 103.4886693  86.0752412
 106.0496449  99.8604341  86.6762403 106.0358018  98.9645434  86.3394701
 106.7668877  99.8675005  87.3100689 105.4533345  98.7418721  81.9449973
 105.5749256  97.8135368  82.1440861 105.1635387  98.7557407  81.0328289
 108.3224535  96.4273632  85.0816693 108.3446232  96.4912965  84.1268673
 108.7392594  95.5878140  85.2757199  99.8968364 112.4242462  84.4909726
 100.7226384 112.1246234  84.1108370  99.5462416 111.6550085  84.9399515
  98.0976969 110.3428789  85.4498660  97.2608877 109.9150963  85.2682661
  98.0700614 110.5361232  86.3869451 102.1816037 106.3538032  81.0426929
 101.9362079 105.4500362  81.2407139 102.3511952 106.3555182  80.1006407
 101.4511685 102.0866389  78.5413091 100.7580929 102.1610744  77.8853127
 101.2063436 101.3226733  79.0634608 110.1225341  93.6461991  85.9452581
 110.4027095  92.9785180  86.5713008 110.9075948  93.8391086  85.4327245
 108.3105608 104.1581797  74.8493660 109.2564713 104.0288005  74.9182078
 107.9319853 103.4196459  75.3263088 114.2827493  95.8237803  84.8120552
 114.0852314  95.5152891  85.6963884 114.8927198  96.5499442  84.9418482
 106.4948525 102.0831774  74.7848545 105.5879981 101.7864886  74.8611259
 106.7724506 101.7861592  73.9182832  97.4126466 103.4038137  85.2347592
  97.0929250 102.5503445  84.9421966  96.8659894 103.6186715  85.9905559
 108.1110591  96.6268663  80.9392787 107.3011319  96.2815748  81.3148033
 108.7995008  96.3176207  81.5280398 110.0401139  95.7046710  82.5617083
 110.5932178  96.1242164  83.2207106 110.2771226  94.7782458  82.6040039
 105.2647310  98.9418709  74.9260525 106.1266474  99.2673607  75.1856342
 105.4497654  98.1550205  74.4133590  97.2814726 107.0241049  87.2040713
  96.5878197 106.6095001  86.6910668  98.0287717 107.0661585  86.6074132
 113.4179946  97.8147235  82.0695748 112.8378615  98.4732039  81.6873800
 113.1515879  96.9924580  81.6583165 111.8683513  97.2152293  84.2717068
 112.3683291  97.3268828  83.4631387 112.5119121  96.9113346  84.9117876
  99.1951468 106.9559302  85.0806728  99.1722156 107.0546990  84.1288611
  99.5052105 107.8024453  85.4023894 112.2004824  99.9747326  81.1252096
 111.3130679 100.2596976  80.9072291 112.6158813  99.8141089  80.2779373
 115.9850654 101.2791593  82.1652506 115.7287588 100.8788229  82.9960713
 115.3603522 101.9935387  82.0402645 106.2176753  96.1814752  78.2140234
 106.2055423  97.1256592  78.3708504 107.1100175  95.9984897  77.9199695
 110.0328872  92.7757529  82.4686170 109.2661268  92.2216015  82.6142853
 110.4439577  92.8479397  83.3300322  38.6739252  -7.7974216  70.0157475
  38.1104117  -7.8884279  69.2473763  38.5591647  -8.6174311  70.4959967
  36.2203684  -6.3023024  72.8541695  37.0124976  -6.6432200  72.4387995
  36.4600334  -6.1928049  73.7743849  44.2538811  -4.1303248  65.3271940
  43.6026791  -3.5449168  64.9405954  45.0483174  -3.5997053  65.3866977
  38.1794438  -7.0414111  65.7259074  38.9525314  -7.5885124  65.5871950
  38.5319837  -6.1769862  65.9373536  40.0179481  -5.7137729  78.9325973
  39.7269346  -4.8092098  78.8172640  40.6536465  -5.6721201  79.6470043
  40.9435687  -8.3360880  75.5227333  41.5399260  -8.5604858  74.8084296
  41.0010659  -9.0776135  76.1252781  45.7314076  -6.4412816  65.8640924
  45.0959909  -6.3678190  66.5761829  45.4011482  -5.8519217  65.1860003
  40.2357005  -8.9793339  65.5601899  40.1193263  -9.6548436  66.2282983
  40.3459264  -9.4660965  64.7434052  44.9769366  -6.0276313  75.9275767
  44.6770089  -5.1251275  75.8191574  44.6320425  -6.2944130  76.7796920
  39.9590145   0.7368007  68.8946735  39.8814175   1.6875832  68.9735215
  39.3551789   0.3913880  69.5521661  40.7053747  -9.2818674  81.1126069
  41.4468432  -8.7433630  80.8360892  39.9990733  -8.6552385  81.2697621
  46.5037902  -6.5788343  73.4650519  45.8746764  -6.4142629  72.7626587
  46.1163564  -6.1646734  74.2361483  50.3827134  -5.6433905  70.8194883
  49.6978172  -5.2635004  70.2691916  50.4670983  -5.0338579  71.5526831
  42.0565864  -6.8413935  70.7300604  42.5204209  -6.5626232  69.9405227
  41.7922662  -7.7430490  70.5473695  38.9489945  -7.2942453  73.6680368
  39.5191302  -6.8655185  73.0297852  39.5398057  -7.5759869  74.3664553
  48.7523893  -5.1201991  75.5912584  49.5741337  -5.5221804  75.3095265
  48.7486296  -5.2233757  76.5428700  42.5180497  -5.5717948  77.7473294
  42.5824929  -5.1097540  78.5831466  41.8091421  -6.2020583  77.8755604
  42.2328514  -3.9049840  67.6152275  42.0974189  -3.0598304  68.0437122
  42.7738327  -3.7030562  66.8518208  35.6857912  -6.3874402  68.1880200
  36.1982432  -5.5931152  68.3385764  36.3380625  -7.0848112  68.1213801
  37.4952796  -3.2708646  70.2702953  37.6719425  -2.3490681  70.0823937
  38.2909630  -3.5850226  70.6997333  43.8596991  -3.2826274  81.7452617
  43.4160845  -4.0689895  81.4273521  44.5214204  -3.0947123  81.0796507
  38.6184112  -1.7530472  76.2713295  39.1691537  -1.8813409  75.4990289
  37.7795588  -1.4535583  75.9208188  45.9578229  -3.0023474  79.7734018
  45.9396704  -2.1814593  79.2814287  46.8798149  -3.1269398  79.9984159
  42.4151283  -5.4879344  80.6157526  42.9479620  -6.2491056  80.3856834
  41.8865364  -5.7805692  81.3581681  43.7803996  -6.3593352  68.1276338
  43.2525357  -7.0940592  67.8149576  43.2791498  -5.5818675  67.8816307
  44.8324675   0.1684366  64.0507998  44.1586373   0.4716063  64.6592955
  45.2190497   0.9713446  63.7013455  43.1044829  -8.4400546  65.6535301
  42.1956048  -8.7241514  65.7507771  43.1339913  -8.0201468  64.7938608
  48.3364097  -4.8293957  69.4226469  47.8826424  -5.6703047  69.4791660
  47.7058063  -4.1932559  69.7601249  46.7797036  -2.9917460  70.3576287
  47.0720010  -2.4312403  69.6388653  47.2895656  -2.6988899  71.1129446
  42.8020917  -6.8991803  62.9923380  42.3640347  -7.6155944  62.5329017
  43.5431358  -6.6715688  62.4308471  41.7430661  -2.2137109  71.4469740
  41.7006840  -1.9876263  70.5178272  42.6593360  -2.4473735  71.5955542
  39.8596462  -5.3374080  71.2431703  40.6537060  -5.8323760  71.0414278
  39.1488154  -5.8656217  70.8799409  44.6791306  -2.9555985  75.5944071
  44.7328329  -2.3865048  76.3621787  43.8106088  -2.7854100  75.2298108
  46.8694070  -6.3627635  82.1684736  46.7179576  -6.5917084  81.2514820
  46.8598749  -5.4057034  82.1816081  42.4367738  -4.7645058  74.9229540
  42.2978824  -5.1326274  75.7955478  41.6482334  -4.2497419  74.7513498
  43.0315890   0.3364038  66.2655077  43.2067646  -0.1347919  67.0800699
  42.3448678   0.9629804  66.4936337  43.9872953  -5.3863456  72.3118378
  43.6522786  -5.4262686  73.2076028  43.4876899  -6.0518740  71.8388788
  48.5786276  -3.3308513  80.2461218  48.5198822  -4.0149293  79.5791801
  48.9805795  -2.5889523  79.7941844  37.5976975   3.4853401  73.0394937
  37.8373573   4.1171925  73.7173955  36.7546172   3.1341441  73.3260296
  48.5803684  -5.3668929  78.4775198  47.6930462  -5.7043007  78.6001597
  49.1502235  -6.0985898  78.7143963  42.1104837  -0.7067477  75.4436441
  42.0375008   0.0987495  75.9555745  41.6682230  -0.5075511  74.6184462
  41.8994617  -1.4695707  68.9539262  41.1162138  -0.9274026  69.0477487
  42.5987362  -0.9521727  69.3533504  44.5703520  -0.8080643  77.5994600
  45.2831493  -0.1733178  77.5270501  44.0793549  -0.7116777  76.7834601
  39.6215434  -3.0586199  78.4200170  40.3224894  -2.4249716  78.5729565
  39.1510549  -2.7171467  77.6595810  47.7469830  -4.7168249  66.7048077
  48.0229674  -4.8311655  67.6141951  46.8774329  -5.1150764  66.6660250
  44.3823894  -0.4681898  70.3480891  44.5646288  -1.2860242  70.8108643
  45.2056880  -0.2514206  69.9105781  44.7166059  -1.5413713  67.6095939
  45.2453826  -2.0521259  66.9966102  44.9794279  -1.8571183  68.4741473
  35.2183152  -3.5249844  75.3531273  35.8036589  -4.2706156  75.4859177
  35.0207991  -3.2145887  76.2367937  38.0721807  -0.4898597  70.3693715
  37.4032183  -0.0052469  69.8857755  37.9334677  -0.2429376  71.2837094
  42.2127076   1.5445147  76.9676374  42.7645384   1.7076768  77.7325459
  42.5533269   2.1349585  76.2956399  47.0637950  -3.6293596  82.8225028
  47.6077854  -3.0163637  82.3279983  46.4824795  -3.0714017  83.3392041
  45.3495463  -0.5072878  73.9540056  45.2246603  -1.3083138  73.4451001
  46.0074554  -0.0126684  73.4654026  47.4130372  -2.7063857  75.5819606
  46.4660707  -2.8258506  75.5097933  47.7613145  -3.5941359  75.6645867
  44.4176805  -2.9111141  71.7823958  44.2701767  -3.8394434  71.9631528
  45.2430298  -2.8891051  71.2981033  48.0210927  -2.0882583  72.8688831
  48.9457474  -2.2939721  72.7313282  47.8526230  -2.3366181  73.7778173
  47.8106243  -1.5696915  68.2250922  47.9843120  -2.1350493  67.4724775
  48.3035134  -0.7696020  68.0430412  48.7981415  -2.2530151  65.3247821
  49.4932320  -1.6323458  65.5435135  49.1404566  -3.1034799  65.6000199
  50.6972839  -4.8030445  66.8535152  51.2224163  -4.4643172  66.1284472
  50.6095191  -5.7383430  66.6698286  42.3592887  -0.8896371  78.9825028
  42.6680014  -1.1347225  79.8547728  43.1568369  -0.6849733  78.4943898
  42.3813499   1.2641538  71.2130405  41.9418490   0.7717917  71.9063261
  43.1321616   0.7214506  70.9722480  34.8605838  -2.5446921  71.2155033
  35.6863858  -2.8443149  70.8353676  34.5099890  -3.3139299  71.6644821
  39.8287371  -3.1920453  73.2852706  39.2067381  -3.8549748  72.9854934
  40.4992238  -3.1659321  72.6026354  50.3866745  -4.1697541  82.1586349
  49.5962288  -4.1873403  81.6190849  50.1500099  -3.6309248  82.9135386
  39.3900878  -4.6416529  66.7611167  39.5388999  -3.9581065  66.1077840
  40.1967322  -4.6611439  67.2760623  52.0082816  -4.9008134  79.7161100
  51.7167625  -4.5378153  80.5524561  51.3954948  -5.6141125  79.5374432
  42.8896284  -2.1468399  64.2322914  42.3170251  -1.5278212  63.7793386
  43.4629078  -1.5969037  64.7662836  46.1093544  -1.8631249  65.3631497
  47.0424217  -1.9285687  65.5664372  46.0216756  -1.0274982  64.9046029
  48.7381560  -2.5465379  62.3235444  48.6595192  -2.8805515  63.2171202
  49.5591227  -2.0543611  62.3226917  43.1581775  -6.7589840  83.0339624
  44.0784784  -6.5811241  83.2279670  43.1231358  -7.7033795  82.8819323
  36.8176320  -5.9553926  75.9198649  37.7719574  -5.9869984  75.8528581
  36.6188844  -6.4163302  76.7348875  37.4075702  -7.3852810  78.4869447
  38.2268591  -6.8908731  78.5104284  37.6812510  -8.3020842  78.4587015
  35.1726549  -0.4134307  72.9368847  35.0381017  -1.1733906  72.3706845
  34.7558611   0.3106593  72.4697636  46.3085512  -5.2297383  61.9445423
  47.0121362  -5.0247381  62.5603078  45.5848161  -4.6620621  62.2094506
  38.3295675   0.4835010  73.1487290  38.2128059   1.4280443  73.0465980
  37.5088121   0.1808572  73.5373089  48.2172209  -4.7914854  63.9943883
  49.0517813  -5.2233655  63.8121357  48.0556552  -4.9632840  64.9220777
  45.1864009  -5.9833829  84.6853785  46.0555168  -5.8093176  84.3240420
  44.7070760  -5.1639412  84.5629514  39.3550189   1.1363272  76.3643218
  40.2577436   1.1686883  76.6809713  39.1287559   0.2063723  76.3789554
  41.1103791  -0.1105741  73.0253297  40.1599422  -0.1103880  72.9117669
  41.4136277  -0.8573007  72.5089332  56.8456485   5.7254797  74.0899059
  57.4834895   5.6061545  73.3862399  56.7277327   6.6735641  74.1487011
  53.6546191   5.6782225  74.0260584  53.3164702   5.5623290  73.1381119
  54.5235959   5.2773390  74.0061590  49.5133007   7.5317702  70.0157475
  48.9497872   7.4407639  69.2473763  49.3985402   6.7117606  70.4959967
  54.1365974   6.8317077  79.9846790  54.1254615   6.4369875  79.1127293
  54.2986613   6.0983150  80.5780561  47.0597438   9.0268893  72.8541695
  47.8518730   8.6859718  72.4387995  47.2994089   9.1363868  73.7743849
  55.0932565  11.1988669  65.3271940  54.4420545  11.7842750  64.9405954
  55.8876928  11.7294864  65.3866977  49.0188192   8.2877807  65.7259074
  49.7919068   7.7406794  65.5871950  49.3713591   9.1522056  65.9373536
  50.8573235   9.6154189  78.9325973  50.5663101  10.5199820  78.8172640
  51.4930219   9.6570716  79.6470043  51.7829442   6.9931037  75.5227333
  52.3793014   6.7687060  74.8084296  51.8404413   6.2515783  76.1252781
  51.3554470   4.4470473  63.3577524  51.6079991   3.9251994  62.5960987
  50.4179029   4.2836618  63.4604208  56.3997753   3.4506251  71.1652267
  57.1860842   3.0325674  70.8142684  56.6636457   4.3552343  71.3333916
  56.5707830   8.8879101  65.8640924  55.9353663   8.9613728  66.5761829
  56.2405237   9.4772700  65.1860003  61.8006180   3.3881484  72.0685246
  62.5331352   2.8180701  72.3023075  61.0445536   3.0003085  72.5091751
  51.0750759   6.3498579  65.5601899  50.9587017   5.6743482  66.2282983
  51.1853019   5.8630953  64.7434052  53.4182300   5.8108726  69.2648588
  53.0540507   5.2839347  69.9761510  54.2749416   5.4207195  69.0915074
  59.3231601  -2.8996942  76.5279854  58.9914925  -2.0301531  76.3041069
  58.7277214  -3.2160658  77.2073885  53.0587787   0.8398625  64.2609937
  53.2262189   1.7078862  64.6280408  52.8684956   1.0025907  63.3371226
  55.8163120   9.3015604  75.9275767  55.5163843  10.2040643  75.8191574
  55.4714180   9.0347788  76.7796920  49.2675602   5.7529401  71.9612472
  48.3426098   5.6205615  72.1690163  49.5160015   6.5323620  72.4582414
  59.2160264   1.8198145  73.6073205  58.3077141   1.7513553  73.3131965
  59.1647860   2.2970089  74.4355030  53.0377008   3.2956283  65.2456604
  52.9176633   3.7413334  66.0842084  52.3429596   3.6441601  64.6870142
  46.6284413   5.3962675  72.7956261  46.7576794   5.6497154  73.7095672
  45.9481864   5.9890383  72.4760916  50.7983900  16.0659925  68.8946735
  50.7207930  17.0167750  68.9735215  50.1945543  15.7205797  69.5521661
  53.2901130   3.2387790  81.5508102  52.5134464   3.7981710  81.5410966
  53.9291693   3.7244573  82.0722972  61.0821910   0.0214583  75.3851078
  60.4396291   0.3147116  74.7390873  60.5776839  -0.0932497  76.1904275
  58.7362074   3.7677756  66.0736938  59.6479930   4.0005143  65.8984635
  58.2271721   4.3514800  65.5112016  51.5447502   6.0473243  81.1126069
  52.2862186   6.5858287  80.8360892  50.8384487   6.6739532  81.2697621
  57.0202842   8.1902384  79.7098230  57.4286198   7.7484794  78.9652863
  56.2980103   7.6155011  79.9632423  53.3733912   3.1274991  77.0831787
  54.2195107   3.5514404  77.2266436  53.3132549   2.4708615  77.7770350
  57.3431656   8.7503575  73.4650519  56.7140519   8.9149289  72.7626587
  56.9557318   9.1645184  74.2361483  61.2220888   9.6858012  70.8194883
  60.5371926  10.0656914  70.2691916  61.3064737  10.2953339  71.5526831
  56.5233357   0.7879359  78.7412961  56.2794289   1.5421420  78.2047237
  56.7993287   1.1664707  79.5760208  58.4771820   7.3317971  77.4190226
  58.6888715   7.9749731  76.7424608  58.4301568   6.4980288  76.9512157
  56.0798049  -0.0564208  74.3226799  55.2182528   0.2417046  74.6143536
  56.1060483   0.1606191  73.3907831  52.8959618   8.4877983  70.7300604
  53.3597964   8.7665686  69.9405227  52.6316416   7.5861427  70.5473695
  49.7883699   8.0349464  73.6680368  50.3585056   8.4636733  73.0297852
  50.3791811   7.7532049  74.3664553  51.8328504   4.6101135  67.5390169
  52.5352548   5.0622179  68.0064096  51.5009133   3.9684954  68.1670063
  50.2808866   3.2012892  81.9141379  49.6507526   3.8829173  82.1476776
  50.1744954   3.0895973  80.9694517  45.5753838   2.8684688  72.8407303
  44.7852892   3.1242216  72.3647414  46.0665086   3.6833026  72.9459343
  59.5917648  10.2089927  75.5912584  60.4135091   9.8070114  75.3095265
  59.5880051  10.1058161  76.5428700  47.5268584   3.2329267  69.7990780
  46.7299747   3.3447961  70.3174275  47.2994176   3.5715919  68.9331670
  53.3574251   9.7573970  77.7473294  53.4218684  10.2194377  78.5831466
  52.6485175   9.1271335  77.8755604  43.8591541   3.1215178  75.2722294
  44.1099580   4.0062188  75.5379870  44.3951090   2.9419780  74.4997386
  67.6823641   6.5528675  71.9397555  66.9287349   5.9836073  71.7841560
  67.8171182   6.5191340  72.8868190  53.0722269  11.4242078  67.6152275
  52.9367944  12.2693613  68.0437122  53.6132081  11.6261355  66.8518208
  49.5589608  -2.4966342  84.2766630  49.1656554  -3.0500144  84.9514274
  50.3755749  -2.1855764  84.6673147  46.5251666   8.9417516  68.1880200
  47.0376187   9.7360766  68.3385764  47.1774379   8.2443806  68.1213801
  48.3346551  12.0583272  70.2702953  48.5113179  12.9801237  70.0823937
  49.1303384  11.7441691  70.6997333  52.4757569  -1.0808463  81.8686886
  53.2167283  -0.4801310  81.7891349  52.7075492  -1.8230826  81.3104929
  47.6198907   4.1047904  80.1465116  47.5052423   3.2033161  80.4472215
  46.7643425   4.3511601  79.7949933  54.6990745  12.0465644  81.7452617
  54.2554599  11.2602023  81.4273521  55.3607959  12.2344795  81.0796507
  49.4577866  13.5761446  76.2713295  50.0085291  13.4478509  75.4990289
  48.6189342  13.8756335  75.9208188  56.7971983  12.3268444  79.7734018
  56.7790459  13.1477325  79.2814287  57.7191903  12.2022519  79.9984159
  53.2545037   9.8412574  80.6157526  53.7873374   9.0800862  80.3856834
  52.7259118   9.5486225  81.3581681  44.4900583   7.2706170  68.9639770
  45.3275805   7.6803178  68.7473478  44.6678851   6.3305612  68.9339964
  56.3865015   4.9381251  64.6523603  55.8711639   5.7085855  64.8911991
  56.1142324   4.2646387  65.2756665  53.9712126  -0.2169049  69.7108842
  53.1153722  -0.6062198  69.5314480  54.3839078  -0.1377088  68.8508627
  55.5011273  -2.6822705  74.1100401  54.9976068  -2.7192570  73.2968207
  55.7941880  -1.7729963  74.1697058  51.7454159  -2.5983976  73.1166583
  52.6107155  -2.7941167  72.7572473  51.8131668  -2.8273624  74.0435940
  61.3599289   7.6913605  66.5876777  60.5828732   7.3524765  66.1431939
  62.0390770   7.6966228  65.9131742  56.1751318   2.8108343  66.4783384
  55.8701454   3.1254492  67.3293528  57.1281760   2.8889763  66.5210717
  54.6197750   8.9698566  68.1276338  54.0919112   8.2351326  67.8149576
  54.1185253   9.7473242  67.8816307  59.5990596   7.1647587  73.2443385
  58.9414271   7.8546848  73.3323513  60.4030995   7.5544018  73.5877371
  49.3516478  -0.3681768  70.4882950  49.9260230  -0.5906586  69.7556143
  49.9387460  -0.2993073  71.2411551  58.4096055   5.5191959  71.2947326
  58.9227937   6.1521951  71.7969036  59.0597279   4.9193155  70.9290686
  49.6786065   1.6622693  64.5078835  48.8423377   1.9997380  64.8288110
  49.5390834   1.5271673  63.5705972  51.6539145  -3.4940519  69.2158019
  51.0003558  -3.8091502  68.5914634  51.6119620  -4.1164778  69.9417842
  52.7650350   6.7878776  61.1311311  51.8577412   6.5568030  61.3302460
  53.2621382   5.9916396  61.3185293  55.6718429  15.4976284  64.0507998
  54.9980128  15.8007980  64.6592955  56.0584251  16.3005364  63.7013455
  54.8876886   2.9941415  73.5405667  53.9699447   3.2156362  73.3827355
  55.3037029   3.0687725  72.6817374  55.6711934   4.3932830  68.6708347
  56.4183752   4.9054228  68.3615469  55.9403523   4.0716883  69.5312741
  53.9438584   6.8891371  65.6535301  53.0349803   6.6050404  65.7507771
  53.9733668   7.3090450  64.7938608  59.1757851  10.4997961  69.4226469
  58.7220178   9.6588871  69.4791660  58.5451818  11.1359359  69.7601249
  58.1190771   1.4289947  70.6527136  57.3813527   0.9167333  70.9837379
  58.3717544   0.9890328  69.8410413  57.6190790  12.3374457  70.3576287
  57.9113765  12.8979514  69.6388653  58.1289411  12.6303018  71.1129446
  44.5126754   4.6096885  69.6350504  44.3151154   4.0166246  68.9101570
  43.9573418   4.3049096  70.3526442  52.4923478   4.5019992  71.7545097
  52.5472088   3.5493828  71.6787573  51.6814680   4.6579431  72.2386395
  53.6414672   8.4300115  62.9923380  53.2034101   7.7135974  62.5329017
  54.3825112   8.6576230  62.4308471  50.4315838   3.1197052  69.5135476
  49.6183703   3.4191222  69.9200668  50.9274832   2.7252740  70.2309958
  52.5824416  13.1154808  71.4469740  52.5400594  13.3415655  70.5178272
  53.4987114  12.8818183  71.5955542  56.0290049   3.5838876  78.3450370
  56.3839437   3.8110349  79.2044835  56.6762181   3.9157253  77.7227625
  61.7587786   6.7057312  69.0499699  61.6205685   6.8958908  68.1220888
  61.4024005   7.4676695  69.5067750  49.9229912   0.6915407  75.1296711
  50.5629292   0.5504166  74.4319674  49.0907443   0.4049920  74.7535313
  61.7857166   8.7733839  74.0610970  62.2193673   8.6809128  74.9094024
  62.4988747   8.7491339  73.4230986  50.6990216   9.9917837  71.2431703
  51.4930815   9.4968158  71.0414278  49.9881909   9.4635701  70.8799409
  55.5185061  12.3735933  75.5944071  55.5722083  12.9426869  76.3621787
  54.6499842  12.5437818  75.2298108  47.0072980   4.1360919  67.3191456
  46.0770568   4.0745375  67.5361418  47.1030452   3.6136872  66.5228097
  46.9258529   0.6615732  69.9069697  47.1865346   1.5761065  69.7978858
  47.7475701   0.1940175  70.0566310  48.3983454   2.0753489  77.0768522
  49.0706508   1.8670851  76.4281171  47.5713241   1.8775575  76.6373754
  62.6472715   8.8157540  76.5943856  62.8408606   9.7203350  76.8403130
  62.5473334   8.3564959  77.4282441  54.3009026  -1.2984570  79.0934183
  53.6536941  -0.5994620  78.9998659  55.0710042  -0.8648426  79.4610431
  57.7087824   8.9664282  82.1684736  57.5573331   8.7374834  81.2514820
  57.6992504   9.9234884  82.1816081  54.4773161   6.5396195  77.1531003
  55.4065221   6.6907355  76.9799970  54.0564191   6.6280216  76.2979649
  53.2761492  10.5646859  74.9229540  53.1372578  10.1965644  75.7955478
  52.4876089  11.0794499  74.7513498  53.8709644  15.6655956  66.2655077
  54.0461400  15.1943999  67.0800699  53.1842432  16.2921722  66.4936337
  54.8266707   9.9428462  72.3118378  54.4916540   9.9029232  73.2076028
  54.3270653   9.2773178  71.8388788  48.8010951   5.3496092  77.8370959
  48.6630749   4.6176331  78.4382498  49.7115875   5.2604992  77.5555147
  57.7625899   7.2884497  62.5855438  57.1455070   6.5631325  62.4888490
  57.2942388   8.0493857  62.2422512  51.4293252   5.0616052  77.3254639
  52.1392871   4.4209244  77.2841257  51.3862560   5.3128946  78.2480820
  59.4180031  11.9983405  80.2461218  59.3592577  11.3142625  79.5791801
  59.8199549  12.7402395  79.7941844  50.1422186   2.0481269  79.1450278
  49.6059543   1.5972008  79.7971875  49.5538895   2.1827178  78.4020743
  48.4370730  18.8145319  73.0394937  48.6767328  19.4463843  73.7173955
  47.5939926  18.4633359  73.3260296  49.5524445   1.5069921  61.7076742
  48.6753911   1.3858722  61.3438989  50.0282198   0.7155999  61.4555631
  59.4197438   9.9622989  78.4775198  58.5324217   9.6248911  78.6001597
  59.9895989   9.2306020  78.7143963  41.0726585   6.2947081  71.8018249
  41.7597625   5.9808811  71.2139264  40.9174714   7.1988445  71.5285500
  45.8761307   1.1837277  76.2303273  45.7919496   0.5762947  75.4953683
  45.0544014   1.6746295  76.2312769  52.9498591  14.6224441  75.4436441
  52.8768763  15.4279413  75.9555745  52.5075985  14.8216407  74.6184462
  52.7388371  13.8596211  68.9539262  51.9555893  14.4017891  69.0477487
  53.4381116  14.3770191  69.3533504  56.0485021  -0.3309159  71.5973468
  56.5453721  -1.0839197  71.2774538  55.2772003  -0.2944843  71.0316677
  63.9014779   5.3731206  73.2391759  63.8904655   6.2555922  72.8685692
  63.0332158   5.0202757  73.0446296  55.4097275  14.5211275  77.5994600
  56.1225247  15.1558740  77.5270501  54.9187304  14.6175141  76.7834601
  57.1314802   8.4262528  69.1711891  56.1971081   8.5463990  69.0016596
  57.3091470   7.5234995  68.9071901  52.6319990   1.8108224  71.3245152
  52.2617777   1.2579264  72.0126058  53.1279082   1.2066357  70.7720152
  60.5187353   4.2679847  69.7061925  60.9847805   5.1007839  69.6322228
  60.9694854   3.8024829  70.4107184  50.4609189  12.2705719  78.4200170
  51.1618648  12.9042202  78.5729565  49.9904304  12.6120450  77.6595810
  58.5863584  10.6123668  66.7048077  58.8623428  10.4980263  67.6141951
  57.7168083  10.2141153  66.6660250  58.2610474   4.8250326  76.2452721
  57.6081925   5.0726234  75.5905173  58.6390854   4.0114464  75.9115198
  55.2217648  14.8610019  70.3480891  55.4040043  14.0431675  70.8108643
  56.0450634  15.0777712  69.9105781  55.5559814  13.7878204  67.6095939
  56.0847580  13.2770659  66.9966102  55.8188033  13.4720735  68.4741473
  54.3098048   5.5670137  82.7318758  53.6338685   5.4664266  83.4021133
  55.1325681   5.4109351  83.1954755  46.0576907  11.8042074  75.3531273
  46.6430343  11.0585762  75.4859177  45.8601745  12.1146030  76.2367937
  48.9115562  14.8393321  70.3693715  48.2425937  15.3239449  69.8857755
  48.7728431  15.0862542  71.2837094  40.6494561   4.3747674  74.0735716
  40.6878661   3.8411265  74.8672834  40.1434854   3.8482879  73.4546693
  53.0520830  16.8737065  76.9676374  53.6039138  17.0368686  77.7325459
  53.3927024  17.4641502  76.2956399  48.0285324  -0.7787786  77.5698258
  48.0926650   0.0827045  77.1575656  47.9652444  -1.3913784  76.8370617
  47.5037596   1.2935347  81.2171293  48.1309635   0.9112424  81.8308817
  46.6465515   1.0749549  81.5826985  57.9031705  11.6998322  82.8225028
  58.4471609  12.3128280  82.3279983  57.3218550  12.2577901  83.3392041
  44.2803139   3.1011776  67.1489648  44.5756580   2.1922454  67.0956701
  43.3791175   3.0799515  66.8270650  56.1889218  14.8219040  73.9540056
  56.0640357  14.0208780  73.4451001  56.8468309  15.3165233  73.4654026
  47.8097386   1.1767773  73.1317196  47.0883972   1.7903740  72.9924669
  48.5990642   1.7125537  73.0533842  58.2524126  12.6228060  75.5819606
  57.3054462  12.5033411  75.5097933  58.6006899  11.7350558  75.6645867
  50.6123699  -1.4877801  79.4057848  51.1358101  -1.2415504  80.1684157
  50.3936033  -0.6557766  78.9860985  46.0090980   0.7825874  67.2728973
  45.6803687  -0.0976747  67.0904079  46.3630351   0.7273542  68.1605362
  55.2570559  12.4180776  71.7823958  55.1095522  11.4897484  71.9631528
  56.0824053  12.4400867  71.2981033  49.1232804   1.0698844  67.6404450
  49.4628876   1.5984765  66.9183059  49.5704924   1.4079250  68.4163017
  58.8604681  13.2409335  72.8688831  59.7851229  13.0352196  72.7313282
  58.6919985  12.9925736  73.7778173  51.8176244  -0.5464106  77.0907518
  51.4773065  -1.3456293  77.4928198  51.1115251  -0.2462395  76.5184352
  52.4692716  -3.4614793  75.5434841  53.2918786  -3.9354315  75.4213732
  52.7130780  -2.6824310  76.0433528  51.1100951  -0.4326535  65.8397743
  51.8309313  -0.0545282  65.3361460  50.4866255   0.2862342  65.9432721
  55.2532074   0.2718614  66.7756076  55.4695688   1.1543252  66.4744904
  54.7726141  -0.1195173  66.0461717  49.9931295   3.2304327  73.3526820
  49.8475876   3.5444630  74.2451102  49.5156499   3.8489228  72.7997719
  51.8527678   0.2206875  73.4007710  51.8389247  -0.6752031  73.0640008
  52.5700106   0.2277539  74.0345996  53.7053809   0.6544215  75.4460837
  53.4471586   1.5761286  75.4445168  53.1738849   0.2574650  76.1361301
  58.6499997  13.7595003  68.2250922  58.8236875  13.1941425  67.4724775
  59.1428889  14.5595897  68.0430412  44.4676957   5.7709672  76.2914481
  43.9230425   6.5469480  76.4234756  45.3456307   6.1180476  76.1333603
  51.2564574  -0.8978744  68.6695280  51.3780485  -1.8262098  68.8686167
  50.9666616  -0.8840058  67.7573595  54.1255764  -3.2123834  71.8062000
  54.1477461  -3.1484501  70.8513979  54.5423823  -4.0519325  72.0002506
  64.5039389   6.5231426  69.8441222  64.9470535   5.7738751  69.4460345
  63.6265899   6.5141562  69.4614954  59.6375170  13.0761767  65.3247821
  60.3326075  13.6968460  65.5435135  59.9798320  12.2257118  65.6000199
  45.2542979   4.8979568  79.1844638  44.5124715   5.0462203  79.7709269
  44.9335723   5.1587834  78.3211388  61.5366593  10.5261473  66.8535152
  62.0617917  10.8648745  66.1284472  61.4488946   9.5908488  66.6698286
  53.1986642  14.4395546  78.9825028  53.5073768  14.1944693  79.8547728
  53.9962124  14.6442185  78.4943898  53.2207254  16.5933456  71.2130405
  52.7812244  16.1009835  71.9063261  53.9715371  16.0506423  70.9722480
  45.6999593  12.7844997  71.2155033  46.5257613  12.4848769  70.8353676
  45.3493645  12.0152619  71.6644821  50.6681126  12.1371465  73.2852706
  50.0461135  11.4742170  72.9854934  51.3385993  12.1632597  72.6026354
  43.9008198  10.7031323  72.1743966  43.0640106  10.2753497  71.9927968
  43.8731843  10.8963766  73.1114758  50.7405653   0.6153253  82.8785212
  50.7893809   1.4915376  82.4962982  51.2828168   0.0730646  82.3056856
  61.2260499  11.1594376  82.1586349  60.4356043  11.1418515  81.6190849
  60.9893854  11.6982670  82.9135386  61.3458374   8.0086843  79.4719078
  61.3956379   7.8436850  80.4134601  61.2372297   7.1414102  79.0816959
  50.2294633  10.6875388  66.7611167  50.3782753  11.3710853  66.1077840
  51.0361076  10.6680478  67.2760623  58.6362137   3.9917771  80.7878385
  59.5371999   3.8524235  80.4962383  58.7110111   4.1572225  81.7276562
  52.9704942   1.3684625  79.6331571  52.1008251   1.6618191  79.3614160
  53.2064422   1.9525070  80.3538835  62.8476571  10.4283784  79.7161100
  62.5561379  10.7913765  80.5524561  62.2348702   9.7150792  79.5374432
  64.0472253   7.9936664  72.2363670  64.8819145   8.4326468  72.4001230
  64.1831382   7.5175317  71.4171916  61.0963759   5.5516399  78.1841158
  61.5717881   5.7444045  77.3760009  60.1729325   5.6075585  77.9384541
  47.9847266   6.7140566  67.7672236  47.7393308   5.8102896  67.9652446
  48.1543180   6.7157716  66.8251714  55.6743976  -2.4135758  77.1496991
  56.1925920  -1.6774731  76.8243480  55.3199108  -2.1071764  77.9843751
  47.2542913   2.4468923  65.2658397  46.5612158   2.5213278  64.6098433
  47.0094665   1.6829267  65.7879914  53.7290038  13.1823519  64.2322914
  53.1564005  13.8013706  63.7793386  54.3022832  13.7322880  64.7662836
  59.7965428   2.4282159  76.4169463  60.7482851   2.5280256  76.4381687
  59.6268879   1.6360427  76.9267548  57.8179808  -0.4862258  76.6028864
  57.2229740  -0.2057245  75.9075353  57.5329504   0.0031643  77.3745605
  56.9487298  13.4660669  65.3631497  57.8817971  13.4006231  65.5664372
  56.8610511  14.3016936  64.9046029  59.5775315  12.7826539  62.3235444
  59.4988946  12.4486403  63.2171202  60.3984982  13.2748307  62.3226917
  62.2753506   5.6488278  75.5311763  62.2429826   4.7104279  75.7171447
  62.8854130   5.7272315  74.7977588  54.1136837   4.5184331  61.5738967
  55.0595942   4.3890540  61.6427385  53.7351082   3.7798993  62.0508395
  62.4247994   2.4399322  75.5770046  61.9087043   1.6557779  75.3899975
  63.3087943   2.1118039  75.7416565  68.0930056   6.7104285  74.6717800
  68.8233444   6.4489573  75.2325503  67.4837001   5.9733007  74.7119868
  66.1745353   4.8512148  75.2692251  65.4478517   4.7168113  74.6608742
  65.7592640   5.1588977  76.0748969  53.9975529   8.5702078  83.0339624
  54.9178539   8.7480677  83.2279670  53.9625112   7.6258123  82.8819323
  52.2979754   2.4434308  61.5093852  51.3911209   2.1467421  61.5856566
  52.5755735   2.1464126  60.6428138  43.2157694   3.7640671  71.9592898
  42.8960479   2.9105979  71.6667272  42.6691123   3.9789249  72.7150866
  46.9937602   6.4803112  75.6762405  47.2123612   7.4120220  75.6950439
  47.4063376   6.1211087  76.4617209  53.9141820  -3.0128802  67.6638093
  53.1042548  -3.3581717  68.0393339  54.6026237  -3.3221259  68.2525705
  51.8665467   2.0536318  85.0665154  51.7662194   3.0030675  84.9977245
  51.6487009   1.7254557  84.1941224  51.0678539  -0.6978757  61.6505831
  51.9297703  -0.3723859  61.9101649  51.2528883  -1.4847261  61.1378897
  43.0845954   7.3843583  73.9286020  42.3909426   6.9697536  73.4155974
  43.8318945   7.4264119  73.3319439  59.2211175  -1.8250230  68.7941054
  58.6409844  -1.1665426  68.4119107  58.9547108  -2.6472886  68.3828472
  57.6714741  -2.4245173  70.9962375  58.1714520  -2.3128638  70.1876693
  58.3150349  -2.7284120  71.6363183  51.7296737   5.4833457  83.8830216
  51.2463819   6.2833817  84.0894105  51.8157676   5.4941402  82.9297660
  44.9982697   7.3161837  71.8052035  44.9753385   7.4149524  70.8533918
  45.3083333   8.1626987  72.1269201  47.6570075   9.3737992  75.9198649
  48.6113328   9.3421934  75.8528581  47.4582598   8.9128615  76.7348875
  48.2469457   7.9439108  78.4869447  49.0662346   8.4383186  78.5104284
  48.5206265   7.0271076  78.4587015  58.0036053   0.3349860  67.8497403
  57.1161908   0.6199511  67.6317597  58.4190042   0.1743623  67.0024679
  61.3550589   0.3596381  71.5651742  62.1310979   0.8492833  71.8376359
  60.6298723   0.7854435  72.0223611  63.7923148   1.0724000  72.6225682
  64.3867639   0.8319736  71.9118991  63.8649732   0.3531131  73.2499219
  46.0120304  14.9157611  72.9368847  45.8774771  14.1558012  72.3706845
  45.5952366  15.6398511  72.4697636  57.1479267  10.0994535  61.9445423
  57.8515117  10.3044537  62.5603078  56.4241915  10.6671296  62.2094506
  57.9777077   5.8504396  68.0647693  57.9212278   6.3072947  67.2255325
  58.5305419   5.0895080  67.8870535  61.7881883   1.6394128  68.8897812
  61.5318817   1.2390763  69.7206020  61.1634751   2.3537922  68.7647951
  66.0994221   4.3790201  71.3969104  65.5393779   4.4483390  72.1700666
  65.4937724   4.2031186  70.6768600  49.1689429  15.8126928  73.1487290
  49.0521814  16.7572361  73.0465980  48.3481876  15.5100490  73.5373089
  59.0565964  10.5377064  63.9943883  59.8911568  10.1058262  63.8121357
  58.8950307  10.3659077  64.9220777  58.7111856   7.0409177  65.3600222
  58.6560660   6.8753449  64.4188666  58.0857911   7.7485210  65.5162412
  43.5004371   2.2777241  79.1861644  44.1463235   1.7676195  79.6748869
  43.2921522   3.0145923  79.7605069  56.0257763   9.3458089  84.6853785
  56.8948923   9.5198741  84.3240420  55.5464515  10.1652506  84.5629514
  52.0207982  -3.4582714  64.9385540  52.0086651  -2.5140874  65.0953811
  52.9131403  -3.6412569  64.6445001  50.1943944  16.4655190  76.3643218
  51.0971190  16.4978800  76.6809713  49.9681314  15.5355641  76.3789554
  51.9497546  15.2186176  73.0253297  50.9993177  15.2188038  72.9117669
  52.2530032  14.4718911  72.5089332  47.8401862  -0.5755141  83.2836658
  48.7033324  -0.9318337  83.4939983  47.2667273  -0.9141247  83.9712063
  67.6850239  21.0546715  74.0899059  68.3228649  20.9353462  73.3862399
  67.5671082  22.0027559  74.1487011  64.4939945  21.0074143  74.0260584
  64.1558457  20.8915208  73.1381119  65.3629714  20.6065308  74.0061590
  60.3526761  22.8609619  70.0157475  59.7891626  22.7699556  69.2473763
  60.2379156  22.0409524  70.4959967  64.9759728  22.1608995  79.9846790
  64.9648369  21.7661793  79.1127293  65.1380368  21.4275067  80.5780561
  57.8991193  24.3560811  72.8541695  58.6912485  24.0151636  72.4387995
  58.1387843  24.4655786  73.7743849  65.9326320  26.5280587  65.3271940
  65.2814300  27.1134668  64.9405954  66.7270683  27.0586782  65.3866977
  59.8581947  23.6169724  65.7259074  60.6312823  23.0698711  65.5871950
  60.2107346  24.4813974  65.9373536  61.6966989  24.9446107  78.9325973
  61.4056855  25.8491737  78.8172640  62.3323974  24.9862634  79.6470043
  62.6223196  22.3222955  75.5227333  63.2186769  22.0978977  74.8084296
  62.6798168  21.5807701  76.1252781  62.1948225  19.7762390  63.3577524
  62.4473745  19.2543912  62.5960987  61.2572784  19.6128536  63.4604208
  67.2391508  18.7798169  71.1652267  68.0254597  18.3617592  70.8142684
  67.5030212  19.6844261  71.3333916  67.4101585  24.2171019  65.8640924
  66.7747418  24.2905646  66.5761829  67.0798991  24.8064618  65.1860003
  72.6399935  18.7173402  72.0685246  73.3725107  18.1472619  72.3023075
  71.8839290  18.3295002  72.5091751  61.9144513  21.6790496  65.5601899
  61.7980772  21.0035400  66.2282983  62.0246773  21.1922870  64.7434052
  64.2576054  21.1400643  69.2648588  63.8934262  20.6131264  69.9761510
  65.1143170  20.7499112  69.0915074  70.1625355  12.4294976  76.5279854
  69.8308680  13.2990387  76.3041069  69.5670968  12.1131260  77.2073885
  63.8981541  16.1690543  64.2609937  64.0655944  17.0370780  64.6280408
  63.7078710  16.3317825  63.3371226  66.6556875  24.6307522  75.9275767
  66.3557598  25.5332561  75.8191574  66.3107934  24.3639705  76.7796920
  60.1069356  21.0821319  71.9612472  59.1819853  20.9497533  72.1690163
  60.3553769  21.8615538  72.4582414  70.0554018  17.1490062  73.6073205
  69.1470896  17.0805471  73.3131965  70.0041614  17.6262007  74.4355030
  63.8770762  18.6248201  65.2456604  63.7570387  19.0705251  66.0842084
  63.1823351  18.9733518  64.6870142  57.4678167  20.7254592  72.7956261
  57.5970548  20.9789071  73.7095672  56.7875618  21.3182300  72.4760916
  61.6377654  31.3951842  68.8946735  61.5601684  32.3459667  68.9735215
  61.0339298  31.0497715  69.5521661  64.1294884  18.5679708  81.5508102
  63.3528218  19.1273628  81.5410966  64.7685447  19.0536491  82.0722972
  71.9215665  15.3506501  75.3851078  71.2790045  15.6439034  74.7390873
  71.4170593  15.2359421  76.1904275  69.5755828  19.0969674  66.0736938
  70.4873685  19.3297061  65.8984635  69.0665475  19.6806718  65.5112016
  62.3841256  21.3765161  81.1126069  63.1255941  21.9150205  80.8360892
  61.6778242  22.0031450  81.2697621  67.8596596  23.5194302  79.7098230
  68.2679952  23.0776712  78.9652863  67.1373858  22.9446929  79.9632423
  64.2127666  18.4566908  77.0831787  65.0588861  18.8806322  77.2266436
  64.1526304  17.8000533  77.7770350  68.1825411  24.0795492  73.4650519
  67.5534273  24.2441206  72.7626587  67.7951073  24.4937102  74.2361483
  72.0614643  25.0149930  70.8194883  71.3765681  25.3948831  70.2691916
  72.1458492  25.6245257  71.5526831  67.3627111  16.1171277  78.7412961
  67.1188043  16.8713337  78.2047237  67.6387042  16.4956624  79.5760208
  69.3165574  22.6609889  77.4190226  69.5282469  23.3041649  76.7424608
  69.2695322  21.8272206  76.9512157  66.9191803  15.2727710  74.3226799
  66.0576282  15.5708963  74.6143536  66.9454238  15.4898109  73.3907831
  63.7353373  23.8169900  70.7300604  64.1991718  24.0957603  69.9405227
  63.4710171  22.9153345  70.5473695  60.6277454  23.3641382  73.6680368
  61.1978811  23.7928650  73.0297852  61.2185566  23.0823967  74.3664553
  62.6722259  19.9393053  67.5390169  63.3746302  20.3914096  68.0064096
  62.3402887  19.2976872  68.1670063  61.1202620  18.5304809  81.9141379
  60.4901281  19.2121090  82.1476776  61.0138708  18.4187891  80.9694517
  56.4147593  18.1976605  72.8407303  55.6246647  18.4534134  72.3647414
  56.9058840  19.0124943  72.9459343  70.4311402  25.5381845  75.5912584
  71.2528846  25.1362032  75.3095265  70.4273805  25.4350079  76.5428700
  58.3662338  18.5621185  69.7990780  57.5693501  18.6739879  70.3174275
  58.1387930  18.9007837  68.9331670  64.1968006  25.0865888  77.7473294
  64.2612438  25.5486295  78.5831466  63.4878930  24.4563253  77.8755604
  54.6985296  18.4507096  75.2722294  54.9493334  19.3354106  75.5379870
  55.2344844  18.2711697  74.4997386  78.5217395  21.8820593  71.9397555
  77.7681104  21.3127991  71.7841560  78.6564936  21.8483258  72.8868190
  63.9116023  26.7533995  67.6152275  63.7761698  27.5985531  68.0437122
  64.4525836  26.9553273  66.8518208  60.3983363  12.8325575  84.2766630
  60.0050308  12.2791774  84.9514274  61.2149503  13.1436154  84.6673147
  57.3645421  24.2709433  68.1880200  57.8769941  25.0652684  68.3385764
  58.0168134  23.5735724  68.1213801  59.1740305  27.3875190  70.2702953
  59.3506934  28.3093154  70.0823937  59.9697139  27.0733609  70.6997333
  63.3151324  14.2483454  81.8686886  64.0561037  14.8490607  81.7891349
  63.5469247  13.5061092  81.3104929  58.4592662  19.4339822  80.1465116
  58.3446177  18.5325079  80.4472215  57.6037180  19.6803518  79.7949933
  65.5384500  27.3757562  81.7452617  65.0948354  26.5893940  81.4273521
  66.2001713  27.5636712  81.0796507  60.2971621  28.9053363  76.2713295
  60.8479046  28.7770427  75.4990289  59.4583097  29.2048252  75.9208188
  67.6365738  27.6560362  79.7734018  67.6184213  28.4769243  79.2814287
  68.5585658  27.5314437  79.9984159  64.0938792  25.1704491  80.6157526
  64.6267129  24.4092779  80.3856834  63.5652873  24.8778143  81.3581681
  67.2608487  10.2764557  76.1451168  66.9172756  11.1666199  76.0690279
  67.6287449  10.0866215  75.2820753  55.3294337  22.5998088  68.9639770
  56.1669559  23.0095096  68.7473478  55.5072605  21.6597530  68.9339964
  67.2258770  20.2673168  64.6523603  66.7105393  21.0377773  64.8911991
  66.9536078  19.5938304  65.2756665  64.8105881  15.1122869  69.7108842
  63.9547477  14.7229719  69.5314480  65.2232832  15.1914830  68.8508627
  66.3405027  12.6469212  74.1100401  65.8369823  12.6099348  73.2968207
  66.6335634  13.5561955  74.1697058  62.5847913  12.7307942  73.1166583
  63.4500910  12.5350751  72.7572473  62.6525422  12.5018294  74.0435940
  72.1993044  23.0205523  66.5876777  71.4222486  22.6816682  66.1431939
  72.8784525  23.0258146  65.9131742  67.0145073  18.1400260  66.4783384
  66.7095208  18.4546410  67.3293528  67.9675515  18.2181680  66.5210717
  65.4591505  24.2990484  68.1276338  64.9312866  23.5643243  67.8149576
  64.9579007  25.0765160  67.8816307  70.4384351  22.4939504  73.2443385
  69.7808025  23.1838766  73.3323513  71.2424750  22.8835936  73.5877371
  60.1910232  14.9610150  70.4882950  60.7653984  14.7385332  69.7556143
  60.7781215  15.0298845  71.2411551  69.2489809  20.8483877  71.2947326
  69.7621691  21.4813869  71.7969036  69.8991033  20.2485072  70.9290686
  60.5179819  16.9914611  64.5078835  59.6817132  17.3289298  64.8288110
  60.3784589  16.8563591  63.5705972  62.4932900  11.8351399  69.2158019
  61.8397312  11.5200416  68.5914634  62.4513374  11.2127139  69.9417842
  63.6044105  22.1170694  61.1311311  62.6971167  21.8859947  61.3302460
  64.1015137  21.3208313  61.3185293  66.5112184  30.8268201  64.0507998
  65.8373882  31.1299898  64.6592955  66.8978006  31.6297282  63.7013455
  65.7270640  18.3233332  73.5405667  64.8093202  18.5448279  73.3827355
  66.1430784  18.3979643  72.6817374  66.5105688  19.7224748  68.6708347
  67.2577507  20.2346145  68.3615469  66.7797278  19.4008801  69.5312741
  64.7832338  22.2183289  65.6535301  63.8743557  21.9342322  65.7507771
  64.8127422  22.6382367  64.7938608  70.0151606  25.8289878  69.4226469
  69.5613933  24.9880788  69.4791660  69.3845572  26.4651277  69.7601249
  68.9584525  16.7581864  70.6527136  68.2207282  16.2459251  70.9837379
  69.2111299  16.3182246  69.8410413  68.4584545  27.6666375  70.3576287
  68.7507519  28.2271432  69.6388653  68.9683165  27.9594936  71.1129446
  69.0596153   9.5358116  71.2468906  69.3655029   8.6755480  70.9594821
  69.7848757  10.1275737  71.0467900  55.3520509  19.9388803  69.6350504
  55.1544908  19.3458164  68.9101570  54.7967173  19.6341013  70.3526442
  63.3317232  19.8311909  71.7545097  63.3865842  18.8785746  71.6787573
  62.5208434  19.9871349  72.2386395  64.4808426  23.7592033  62.9923380
  64.0427856  23.0427891  62.5329017  65.2218867  23.9868147  62.4308471
  61.2709592  18.4488969  69.5135476  60.4577458  18.7483140  69.9200668
  61.7668586  18.0544658  70.2309958  63.4218170  28.4446726  71.4469740
  63.3794349  28.6707572  70.5178272  64.3380869  28.2110101  71.5955542
  66.8683804  18.9130794  78.3450370  67.2233192  19.1402267  79.2044835
  67.5155935  19.2449170  77.7227625  72.5981541  22.0349230  69.0499699
  72.4599439  22.2250826  68.1220888  72.2417760  22.7968612  69.5067750
  60.7623667  16.0207325  75.1296711  61.4023046  15.8796084  74.4319674
  59.9301197  15.7341838  74.7535313  72.6250920  24.1025757  74.0610970
  73.0587427  24.0101046  74.9094024  73.3382501  24.0783257  73.4230986
  61.5383971  25.3209755  71.2431703  62.3324569  24.8260075  71.0414278
  60.8275663  24.7927618  70.8799409  66.3578815  27.7027851  75.5944071
  66.4115838  28.2718787  76.3621787  65.4893597  27.8729736  75.2298108
  57.8466734  19.4652837  67.3191456  56.9164322  19.4037292  67.5361418
  57.9424206  18.9428790  66.5228097  57.7652283  15.9907650  69.9069697
  58.0259101  16.9052983  69.7978858  58.5869456  15.5232092  70.0566310
  59.2377209  17.4045407  77.0768522  59.9100262  17.1962769  76.4281171
  58.4106995  17.2067493  76.6373754  73.4866470  24.1449457  76.5943856
  73.6802360  25.0495268  76.8403130  73.3867088  23.6856876  77.4282441
  65.1402781  14.0307348  79.0934183  64.4930696  14.7297297  78.9998659
  65.9103796  14.4643492  79.4610431  68.5481579  24.2956200  82.1684736
  68.3967085  24.0666752  81.2514820  68.5386258  25.2526801  82.1816081
  65.3166915  21.8688113  77.1531003  66.2458975  22.0199272  76.9799970
  64.8957945  21.9572134  76.2979649  64.1155247  25.8938777  74.9229540
  63.9766333  25.5257562  75.7955478  63.3269843  26.4086417  74.7513498
  64.7103399  30.9947874  66.2655077  64.8855154  30.5235917  67.0800699
  64.0236187  31.6213640  66.4936337  65.6660462  25.2720380  72.3118378
  65.3310295  25.2321150  73.2076028  65.1664408  24.6065096  71.8388788
  59.6404706  20.6788010  77.8370959  59.5024504  19.9468249  78.4382498
  60.5509629  20.5896910  77.5555147  68.6019654  22.6176414  62.5855438
  67.9848824  21.8923242  62.4888490  68.1336142  23.3785774  62.2422512
  62.2687007  20.3907969  77.3254639  62.9786625  19.7501161  77.2841257
  62.2256315  20.6420864  78.2480820  70.2573785  27.3275323  80.2461218
  70.1986331  26.6434543  79.5791801  70.6593304  28.0694313  79.7941844
  60.9815941  17.3773187  79.1450278  60.4453298  16.9263926  79.7971875
  60.3932649  17.5119096  78.4020743  59.2764484  34.1437236  73.0394937
  59.5161082  34.7755761  73.7173955  58.4333681  33.7925276  73.3260296
  60.3918200  16.8361838  61.7076742  59.5147666  16.7150639  61.3438989
  60.8675953  16.0447917  61.4555631  70.2591193  25.2914906  78.4775198
  69.3717971  24.9540828  78.6001597  70.8289744  24.5597938  78.7143963
  51.9120340  21.6238998  71.8018249  52.5991380  21.3100728  71.2139264
  51.7568468  22.5280363  71.5285500  56.7155062  16.5129195  76.2303273
  56.6313251  15.9054864  75.4953683  55.8937768  17.0038213  76.2312769
  63.7892346  29.9516359  75.4436441  63.7162517  30.7571330  75.9555745
  63.3469739  30.1508325  74.6184462  63.5782126  29.1888129  68.9539262
  62.7949647  29.7309809  69.0477487  64.2774871  29.7062108  69.3533504
  66.8878776  14.9982758  71.5973468  67.3847475  14.2452721  71.2774538
  66.1165757  15.0347075  71.0316677  74.7408533  20.7023124  73.2391759
  74.7298409  21.5847839  72.8685692  73.8725913  20.3494675  73.0446296
  66.2491029  29.8503193  77.5994600  66.9619002  30.4850658  77.5270501
  65.7581058  29.9467059  76.7834601  67.9708556  23.7554446  69.1711891
  67.0364835  23.8755908  69.0016596  68.1485225  22.8526912  68.9071901
  63.4713744  17.1400141  71.3245152  63.1011532  16.5871182  72.0126058
  63.9672837  16.5358275  70.7720152  71.3581108  19.5971765  69.7061925
  71.8241560  20.4299756  69.6322228  71.8088608  19.1316746  70.4107184
  61.3002943  27.5997636  78.4200170  62.0012402  28.2334119  78.5729565
  60.8298058  27.9412368  77.6595810  69.4257339  25.9415586  66.7048077
  69.7017183  25.8272181  67.6141951  68.5561838  25.5433071  66.6660250
  69.3297770  11.9652352  73.7452827  68.4160850  12.1956579  73.9135034
  69.7590872  12.0490796  74.5966859  69.1004229  20.1542244  76.2452721
  68.4475679  20.4018151  75.5905173  69.4784609  19.3406382  75.9115198
  66.0611403  30.1901937  70.3480891  66.2433797  29.3723593  70.8108643
  66.8844389  30.4069629  69.9105781  66.3953568  29.1170122  67.6095939
  66.9241335  28.6062577  66.9966102  66.6581788  28.8012652  68.4741473
  65.1491802  20.8962055  82.7318758  64.4732439  20.7956184  83.4021133
  65.9719436  20.7401269  83.1954755  56.8970661  27.1333991  75.3531273
  57.4824098  26.3877679  75.4859177  56.6995500  27.4437948  76.2367937
  59.7509316  30.1685239  70.3693715  59.0819692  30.6531366  69.8857755
  59.6122186  30.4154459  71.2837094  51.4888316  19.7039592  74.0735716
  51.5272415  19.1703182  74.8672834  50.9828609  19.1774797  73.4546693
  63.8914585  32.2028982  76.9676374  64.4432893  32.3660604  77.7325459
  64.2320778  32.7933420  76.2956399  58.8679078  14.5504132  77.5698258
  58.9320405  15.4118963  77.1575656  58.8046198  13.9378134  76.8370617
  58.3431351  16.6227265  81.2171293  58.9703389  16.2404342  81.8308817
  57.4859269  16.4041467  81.5826985  68.7425459  27.0290240  82.8225028
  69.2865363  27.6420198  82.3279983  68.1612304  27.5869818  83.3392041
  55.1196893  18.4303694  67.1489648  55.4150334  17.5214372  67.0956701
  54.2184929  18.4091433  66.8270650  67.0282972  30.1510958  73.9540056
  66.9034112  29.3500698  73.4451001  67.6862063  30.6457151  73.4654026
  58.6491140  16.5059690  73.1317196  57.9277726  17.1195658  72.9924669
  59.4384396  17.0417455  73.0533842  69.0917881  27.9519978  75.5819606
  68.1448216  27.8325329  75.5097933  69.4400654  27.0642476  75.6645867
  61.4517454  13.8414117  79.4057848  61.9751856  14.0876413  80.1684157
  61.2329787  14.6734152  78.9860985  56.8484735  16.1117791  67.2728973
  56.5197441  15.2315170  67.0904079  57.2024106  16.0565460  68.1605362
  66.0964314  27.7472694  71.7823958  65.9489276  26.8189402  71.9631528
  66.9217807  27.7692785  71.2981033  59.9626558  16.3990761  67.6404450
  60.3022631  16.9276682  66.9183059  60.4098679  16.7371167  68.4163017
  69.6998436  28.5701253  72.8688831  70.6244983  28.3644114  72.7313282
  69.5313739  28.3217654  73.7778173  62.6569999  14.7827812  77.0907518
  62.3166819  13.9835625  77.4928198  61.9509005  15.0829523  76.5184352
  63.3086471  11.8677124  75.5434841  64.1312540  11.3937603  75.4213732
  63.5524534  12.6467608  76.0433528  61.9494705  14.8965383  65.8397743
  62.6703068  15.2746636  65.3361460  61.3260009  15.6154260  65.9432721
  66.0925828  15.6010532  66.7756076  66.3089443  16.4835170  66.4744904
  65.6119895  15.2096745  66.0461717  60.8325050  18.5596245  73.3526820
  60.6869630  18.8736548  74.2451102  60.3550253  19.1781145  72.7997719
  62.6921432  15.5498793  73.4007710  62.6783001  14.6539886  73.0640008
  63.4093861  15.5569457  74.0345996  64.5447563  15.9836133  75.4460837
  64.2865341  16.9053204  75.4445168  64.0132604  15.5866568  76.1361301
  69.4893752  29.0886920  68.2250922  69.6630629  28.5233343  67.4724775
  69.9822643  29.8887815  68.0430412  55.3070712  21.1001589  76.2914481
  54.7624180  21.8761397  76.4234756  56.1850062  21.4472394  76.1333603
  62.0958328  14.4313173  68.6695280  62.2174240  13.5029819  68.8686167
  61.8060371  14.4451859  67.7573595  64.9649519  12.1168084  71.8062000
  64.9871216  12.1807417  70.8513979  65.3817578  11.2772592  72.0002506
  75.3433143  21.8523343  69.8441222  75.7864289  21.1030668  69.4460345
  74.4659653  21.8433480  69.4614954  70.4768924  28.4053685  65.3247821
  71.1719829  29.0260377  65.5435135  70.8192075  27.5549036  65.6000199
  56.0936734  20.2271486  79.1844638  55.3518470  20.3754121  79.7709269
  55.7729478  20.4879751  78.3211388  72.3760347  25.8553390  66.8535152
  72.9011672  26.1940663  66.1284472  72.2882700  24.9200406  66.6698286
  64.0380396  29.7687464  78.9825028  64.3467523  29.5236611  79.8547728
  64.8355878  29.9734102  78.4943898  64.0601008  31.9225373  71.2130405
  63.6205999  31.4301752  71.9063261  64.8109125  31.3798341  70.9722480
  56.5393347  28.1136914  71.2155033  57.3651367  27.8140686  70.8353676
  56.1887399  27.3444537  71.6644821  61.5074880  27.4663383  73.2852706
  60.8854890  26.8034088  72.9854934  62.1779747  27.4924514  72.6026354
  54.7401952  26.0323241  72.1743966  53.9033861  25.6045415  71.9927968
  54.7125598  26.2255684  73.1114758  61.5799408  15.9445171  82.8785212
  61.6287563  16.8207293  82.4962982  62.1221922  15.4022564  82.3056856
  72.0654254  26.4886294  82.1586349  71.2749797  26.4710433  81.6190849
  71.8287608  27.0274588  82.9135386  72.1852129  23.3378760  79.4719078
  72.2350134  23.1728768  80.4134601  72.0766052  22.4706019  79.0816959
  61.0688387  26.0167306  66.7611167  61.2176508  26.7002770  66.1077840
  61.8754831  25.9972396  67.2760623  69.4755891  19.3209688  80.7878385
  70.3765754  19.1816153  80.4962383  69.5503866  19.4864143  81.7276562
  63.8098696  16.6976543  79.6331571  62.9402006  16.9910109  79.3614160
  64.0458177  17.2816988  80.3538835  73.6870325  25.7575702  79.7161100
  73.3955134  26.1205682  80.5524561  73.0742457  25.0442710  79.5374432
  74.8866008  23.3228582  72.2363670  75.7212899  23.7618386  72.4001230
  75.0225137  22.8467235  71.4171916  71.9357514  20.8808316  78.1841158
  72.4111635  21.0735963  77.3760009  71.0123079  20.9367502  77.9384541
  58.8241020  22.0432484  67.7672236  58.5787062  21.1394814  67.9652446
  58.9936935  22.0449634  66.8251714  66.5137730  12.9156160  77.1496991
  67.0319674  13.6517187  76.8243480  66.1592863  13.2220153  77.9843751
  58.0936668  17.7760841  65.2658397  57.4005913  17.8505196  64.6098433
  57.8488420  17.0121185  65.7879914  66.7650324   9.3356442  72.6697888
  67.0452078   8.6679632  73.2958315  67.5500931   9.5285538  72.1572552
  64.5683793  28.5115436  64.2322914  63.9957760  29.1305624  63.7793386
  65.1416586  29.0614798  64.7662836  70.6359183  17.7574076  76.4169463
  71.5876606  17.8572174  76.4381687  70.4662633  16.9652345  76.9267548
  68.6573562  14.8429660  76.6028864  68.0623494  15.1234672  75.9075353
  68.3723259  15.3323561  77.3745605  67.7881053  28.7952587  65.3631497
  68.7211726  28.7298148  65.5664372  67.7004265  29.6308853  64.9046029
  70.4169069  28.1118457  62.3235444  70.3382701  27.7778320  63.2171202
  71.2378736  28.6040225  62.3226917  73.1147260  20.9780196  75.5311763
  73.0823581  20.0396197  75.7171447  73.7247884  21.0564233  74.7977588
  64.9530591  19.8476249  61.5738967  65.8989696  19.7182457  61.6427385
  64.5744836  19.1090911  62.0508395  73.2641749  17.7691240  75.5770046
  72.7480798  16.9849696  75.3899975  74.1481697  17.4409956  75.7416565
  70.9252476  11.5132255  71.5365859  70.7277297  11.2047343  72.4209191
  71.5352181  12.2393894  71.6663789  78.9323810  22.0396203  74.6717800
  79.6627199  21.7781491  75.2325503  78.3230756  21.3024925  74.7119868
  77.0139107  20.1804066  75.2692251  76.2872271  20.0460031  74.6608742
  76.5986394  20.4880894  76.0748969  64.8369284  23.8993995  83.0339624
  65.7572293  24.0772594  83.2279670  64.8018867  22.9550041  82.8819323
  63.1373508  17.7726226  61.5093852  62.2304964  17.4759338  61.5856566
  63.4149489  17.4756044  60.6428138  54.0551449  19.0932589  71.9592898
  53.7354233  18.2397897  71.6667272  53.5084877  19.3081167  72.7150866
  57.8331356  21.8095030  75.6762405  58.0517366  22.7412138  75.6950439
  58.2457130  21.4503004  76.4617209  64.7535574  12.3163115  67.6638093
  63.9436303  11.9710200  68.0393339  65.4419991  12.0070659  68.2525705
  66.6826122  11.3941162  69.2862390  67.2357161  11.8136615  69.9452413
  66.9196209  10.4676910  69.3285346  62.7059222  17.3828236  85.0665154
  62.6055949  18.3322593  84.9977245  62.4880764  17.0546475  84.1941224
  61.9072293  14.6313161  61.6505831  62.7691457  14.9568059  61.9101649
  62.0922637  13.8444657  61.1378897  53.9239709  22.7135500  73.9286020
  53.2303180  22.2989453  73.4155974  54.6712700  22.7556037  73.3319439
  70.0604930  13.5041687  68.7941054  69.4803599  14.1626491  68.4119107
  69.7940862  12.6819032  68.3828472  68.5108496  12.9046745  70.9962375
  69.0108274  13.0163279  70.1876693  69.1544104  12.6007798  71.6363183
  62.5690492  20.8125375  83.8830216  62.0857573  21.6125735  84.0894105
  62.6551431  20.8233319  82.9297660  55.8376451  22.6453754  71.8052035
  55.8147139  22.7441441  70.8533918  56.1477088  23.4918905  72.1269201
  58.4963829  24.7029909  75.9198649  59.4507083  24.6713852  75.8528581
  58.2976353  24.2420533  76.7348875  59.0863211  23.2731025  78.4869447
  59.9056100  23.7675104  78.5104284  59.3600019  22.3562993  78.4587015
  68.8429808  15.6641778  67.8497403  67.9555663  15.9491428  67.6317597
  69.2583797  15.5035541  67.0024679  72.1944344  15.6888299  71.5651742
  72.9704734  16.1784751  71.8376359  71.4692478  16.1146353  72.0223611
  74.6316902  16.4015918  72.6225682  75.2261393  16.1611654  71.9118991
  74.7043486  15.6823048  73.2499219  56.8514058  30.2449529  72.9368847
  56.7168526  29.4849930  72.3706845  56.4346120  30.9690429  72.4697636
  67.9873021  25.4286452  61.9445423  68.6908871  25.6336455  62.5603078
  67.2635670  25.9963214  62.2094506  68.8170831  21.1796314  68.0647693
  68.7606033  21.6364865  67.2255325  69.3699174  20.4186998  67.8870535
  72.6275637  16.9686045  68.8897812  72.3712571  16.5682681  69.7206020
  72.0028505  17.6829839  68.7647951  76.9387975  19.7082119  71.3969104
  76.3787533  19.7775308  72.1700666  76.3331478  19.5323103  70.6768600
  60.0083184  31.1418846  73.1487290  59.8915568  32.0864278  73.0465980
  59.1875630  30.8392407  73.5373089  69.8959718  25.8668981  63.9943883
  70.7305322  25.4350180  63.8121357  69.7344061  25.6950995  64.9220777
  69.5505611  22.3701095  65.3600222  69.4954414  22.2045366  64.4188666
  68.9251666  23.0777128  65.5162412  54.3398126  17.6069159  79.1861644
  54.9856989  17.0968113  79.6748869  54.1315277  18.3437841  79.7605069
  66.8651518  24.6750007  84.6853785  67.7342677  24.8490659  84.3240420
  66.3858269  25.4944423  84.5629514  62.8601736  11.8709204  64.9385540
  62.8480406  12.8151044  65.0953811  63.7525158  11.6879349  64.6445001
  61.0337698  31.7947108  76.3643218  61.9364945  31.8270718  76.6809713
  60.8075068  30.8647559  76.3789554  62.7891300  30.5478094  73.0253297
  61.8386931  30.5479956  72.9117669  63.0923786  29.8010829  72.5089332
  66.6753856   8.4651980  69.1931477  65.9086251   7.9110467  69.3388159
  67.0864561   8.5373849  70.0545629  58.6795617  14.7536776  83.2836658
  59.5427078  14.3973581  83.4939983  58.1061027  14.4150671  83.9712063
  78.5243994  36.3838633  74.0899059  79.1622404  36.2645380  73.3862399
  78.4064836  37.3319477  74.1487011  75.3333700  36.3366061  74.0260584
  74.9952211  36.2207125  73.1381119  76.2023468  35.9357226  74.0061590
  71.1920516  38.1901537  70.0157475  70.6285381  38.0991474  69.2473763
  71.0772911  37.3701442  70.4959967  75.8153483  37.4900912  79.9846790
  75.8042124  37.0953711  79.1127293  75.9774122  36.7566985  80.5780561
  68.7384947  39.6852729  72.8541695  69.5306239  39.3443553  72.4387995
  68.9781598  39.7947704  73.7743849  76.7720074  41.8572505  65.3271940
  76.1208054  42.4426585  64.9405954  77.5664437  42.3878700  65.3866977
  70.6975701  38.9461642  65.7259074  71.4706577  38.3990629  65.5871950
  71.0501100  39.8105891  65.9373536  72.5360744  40.2738024  78.9325973
  72.2450610  41.1783655  78.8172640  73.1717728  40.3154552  79.6470043
  73.4616951  37.6514873  75.5227333  74.0580523  37.4270895  74.8084296
  73.5191922  36.9099618  76.1252781  73.0341979  35.1054308  63.3577524
  73.2867500  34.5835829  62.5960987  72.0966538  34.9420453  63.4604208
  78.0785262  34.1090086  71.1652267  78.8648351  33.6909510  70.8142684
  78.3423966  35.0136179  71.3333916  78.2495339  39.5462937  65.8640924
  77.6141172  39.6197563  66.5761829  77.9192746  40.1356536  65.1860003
  83.4793689  34.0465320  72.0685246  84.2118861  33.4764536  72.3023075
  82.7233045  33.6586920  72.5091751  72.7538268  37.0082414  65.5601899
  72.6374526  36.3327317  66.2282983  72.8640528  36.5214788  64.7434052
  75.0969809  36.4692561  69.2648588  74.7328016  35.9423182  69.9761510
  75.9536925  36.0791030  69.0915074  81.0019110  27.7586894  76.5279854
  80.6702434  28.6282305  76.3041069  80.4064723  27.4423178  77.2073885
  74.7375296  31.4982461  64.2609937  74.9049698  32.3662697  64.6280408
  74.5472465  31.6609743  63.3371226  77.4950629  39.9599440  75.9275767
  77.1951352  40.8624479  75.8191574  77.1501689  39.6931623  76.7796920
  70.9463111  36.4113237  71.9612472  70.0213607  36.2789451  72.1690163
  71.1947524  37.1907456  72.4582414  80.8947773  32.4781980  73.6073205
  79.9864650  32.4097388  73.3131965  80.8435369  32.9553925  74.4355030
  74.7164517  33.9540118  65.2456604  74.5964142  34.3997169  66.0842084
  74.0217105  34.3025436  64.6870142  68.3071922  36.0546510  72.7956261
  68.4364303  36.3080989  73.7095672  67.6269373  36.6474218  72.4760916
  72.4771409  46.7243760  68.8946735  72.3995439  47.6751585  68.9735215
  71.8733052  46.3789633  69.5521661  74.9688639  33.8971625  81.5508102
  74.1921973  34.4565546  81.5410966  75.6079202  34.3828408  82.0722972
  82.7609419  30.6798418  75.3851078  82.1183799  30.9730951  74.7390873
  82.2564348  30.5651339  76.1904275  80.4149583  34.4261591  66.0736938
  81.3267439  34.6588978  65.8984635  79.9059230  35.0098636  65.5112016
  73.2235011  36.7057079  81.1126069  73.9649695  37.2442123  80.8360892
  72.5171996  37.3323368  81.2697621  78.6990351  38.8486219  79.7098230
  79.1073707  38.4068630  78.9652863  77.9767612  38.2738847  79.9632423
  75.0521421  33.7858826  77.0831787  75.8982616  34.2098240  77.2266436
  74.9920058  33.1292450  77.7770350  79.0219165  39.4087410  73.4650519
  78.3928028  39.5733124  72.7626587  78.6344827  39.8229019  74.2361483
  82.9008397  40.3441848  70.8194883  82.2159435  40.7240749  70.2691916
  82.9852246  40.9537174  71.5526831  78.2020866  31.4463194  78.7412961
  77.9581798  32.2005255  78.2047237  78.4780796  31.8248542  79.5760208
  80.1559329  37.9901807  77.4190226  80.3676224  38.6333567  76.7424608
  80.1089077  37.1564123  76.9512157  77.7585558  30.6019627  74.3226799
  76.8970037  30.9000881  74.6143536  77.7847992  30.8190026  73.3907831
  74.5747127  39.1461818  70.7300604  75.0385473  39.4249521  69.9405227
  74.3103925  38.2445263  70.5473695  71.4671208  38.6933300  73.6680368
  72.0372565  39.1220568  73.0297852  72.0579320  38.4115884  74.3664553
  73.5116013  35.2684970  67.5390169  74.2140056  35.7206014  68.0064096
  73.1796642  34.6268789  68.1670063  71.9596375  33.8596727  81.9141379
  71.3295035  34.5413008  82.1476776  71.8532463  33.7479809  80.9694517
  67.2541347  33.5268523  72.8407303  66.4640401  33.7826052  72.3647414
  67.7452594  34.3416861  72.9459343  81.2705157  40.8673762  75.5912584
  82.0922600  40.4653950  75.3095265  81.2667560  40.7641996  76.5428700
  69.2056092  33.8913102  69.7990780  68.4087256  34.0031797  70.3174275
  68.9781685  34.2299755  68.9331670  75.0361760  40.4157806  77.7473294
  75.1006193  40.8778213  78.5831466  74.3272684  39.7855170  77.8755604
  65.5379050  33.7799013  75.2722294  65.7887089  34.6646023  75.5379870
  66.0738598  33.6003615  74.4997386  89.3611150  37.2112511  71.9397555
  88.6074858  36.6419909  71.7841560  89.4958691  37.1775175  72.8868190
  74.7509778  42.0825913  67.6152275  74.6155453  42.9277449  68.0437122
  75.2919590  42.2845191  66.8518208  71.2377117  28.1617493  84.2766630
  70.8444063  27.6083691  84.9514274  72.0543258  28.4728071  84.6673147
  68.2039175  39.6001351  68.1880200  68.7163696  40.3944601  68.3385764
  68.8561888  38.9027641  68.1213801  70.0134060  42.7167107  70.2702953
  70.1900688  43.6385072  70.0823937  70.8090893  42.4025527  70.6997333
  74.1545078  29.5775372  81.8686886  74.8954792  30.1782525  81.7891349
  74.3863001  28.8353010  81.3104929  69.2986416  34.7631739  80.1465116
  69.1839932  33.8616996  80.4472215  68.4430934  35.0095436  79.7949933
  76.3778254  42.7049480  81.7452617  75.9342108  41.9185858  81.4273521
  77.0395468  42.8928630  81.0796507  71.1365375  44.2345281  76.2713295
  71.6872800  44.1062344  75.4990289  70.2976851  44.5340170  75.9208188
  78.4759492  42.9852279  79.7734018  78.4577968  43.8061160  79.2814287
  79.3979412  42.8606355  79.9984159  74.9332546  40.4996409  80.6157526
  75.4660883  39.7384697  80.3856834  74.4046627  40.2070061  81.3581681
  78.1002241  25.6056475  76.1451168  77.7566511  26.4958117  76.0690279
  78.4681204  25.4158133  75.2820753  66.1688092  37.9290005  68.9639770
  67.0063314  38.3387014  68.7473478  66.3466360  36.9889448  68.9339964
  78.0652524  35.5965086  64.6523603  77.5499147  36.3669691  64.8911991
  77.7929833  34.9230222  65.2756665  75.6499635  30.4414787  69.7108842
  74.7941231  30.0521637  69.5314480  76.0626587  30.5206748  68.8508627
  77.1798782  27.9761130  74.1100401  76.6763577  27.9391265  73.2968207
  77.4729389  28.8853873  74.1697058  73.4241668  28.0599860  73.1166583
  74.2894664  27.8642668  72.7572473  73.4919177  27.8310212  74.0435940
  83.0386798  38.3497441  66.5876777  82.2616241  38.0108600  66.1431939
  83.7178279  38.3550064  65.9131742  77.8538827  33.4692178  66.4783384
  77.5488963  33.7838327  67.3293528  78.8069269  33.5473598  66.5210717
  76.2985259  39.6282401  68.1276338  75.7706621  38.8935161  67.8149576
  75.7972762  40.4057078  67.8816307  81.2778105  37.8231422  73.2443385
  80.6201780  38.5130683  73.3323513  82.0818504  38.2127854  73.5877371
  71.0303987  30.2902068  70.4882950  71.6047739  30.0677249  69.7556143
  71.6174969  30.3590762  71.2411551  80.0883564  36.1775795  71.2947326
  80.6015446  36.8105786  71.7969036  80.7384788  35.5776990  70.9290686
  71.3573574  32.3206529  64.5078835  70.5210886  32.6581215  64.8288110
  71.2178343  32.1855509  63.5705972  73.3326654  27.1643317  69.2158019
  72.6791067  26.8492334  68.5914634  73.2907129  26.5419057  69.9417842
  74.4437859  37.4462612  61.1311311  73.5364921  37.2151865  61.3302460
  74.9408891  36.6500231  61.3185293  77.3505938  46.1560119  64.0507998
  76.6767637  46.4591816  64.6592955  77.7371760  46.9589199  63.7013455
  76.5664395  33.6525250  73.5405667  75.6486956  33.8740197  73.3827355
  76.9824538  33.7271561  72.6817374  77.3499443  35.0516666  68.6708347
  78.0971261  35.5638063  68.3615469  77.6191032  34.7300719  69.5312741
  75.6226093  37.5475207  65.6535301  74.7137312  37.2634239  65.7507771
  75.6521177  37.9674285  64.7938608  80.8545360  41.1581796  69.4226469
  80.4007687  40.3172706  69.4791660  80.2239327  41.7943194  69.7601249
  79.7978280  32.0873782  70.6527136  79.0601036  31.5751168  70.9837379
  80.0505053  31.6474164  69.8410413  79.2978299  42.9958293  70.3576287
  79.5901274  43.5563350  69.6388653  79.8076920  43.2886854  71.1129446
  79.8989907  24.8650034  71.2468906  80.2048784  24.0047398  70.9594821
  80.6242512  25.4567654  71.0467900  66.1914263  35.2680721  69.6350504
  65.9938663  34.6750081  68.9101570  65.6360927  34.9632931  70.3526442
  74.1710987  35.1603827  71.7545097  74.2259597  34.2077664  71.6787573
  73.3602189  35.3163266  72.2386395  75.3202181  39.0883950  62.9923380
  74.8821610  38.3719809  62.5329017  76.0612621  39.3160065  62.4308471
  72.1103347  33.7780887  69.5135476  71.2971212  34.0775057  69.9200668
  72.6062341  33.3836576  70.2309958  74.2611925  43.7738644  71.4469740
  74.2188103  43.9999490  70.5178272  75.1774623  43.5402018  71.5955542
  77.7077558  34.2422711  78.3450370  78.0626946  34.4694185  79.2044835
  78.3549690  34.5741088  77.7227625  83.4375295  37.3641147  69.0499699
  83.2993194  37.5542743  68.1220888  83.0811514  38.1260530  69.5067750
  71.6017421  31.3499242  75.1296711  72.2416801  31.2088002  74.4319674
  70.7694952  31.0633756  74.7535313  83.4644675  39.4317674  74.0610970
  83.8981182  39.3392963  74.9094024  84.1776256  39.4075175  73.4230986
  72.3777725  40.6501673  71.2431703  73.1718324  40.1551993  71.0414278
  71.6669418  40.1219536  70.8799409  77.1972570  43.0319768  75.5944071
  77.2509592  43.6010705  76.3621787  76.3287351  43.2021653  75.2298108
  68.6860489  34.7944755  67.3191456  67.7558077  34.7329210  67.5361418
  68.7817961  34.2720707  66.5228097  68.6046038  31.3199567  69.9069697
  68.8652855  32.2344901  69.7978858  69.4263210  30.8524010  70.0566310
  70.0770963  32.7337325  77.0768522  70.7494017  32.5254687  76.4281171
  69.2500750  32.5359411  76.6373754  84.3260224  39.4741375  76.5943856
  84.5196115  40.3787185  76.8403130  84.2260843  39.0148794  77.4282441
  75.9796535  29.3599265  79.0934183  75.3324450  30.0589215  78.9998659
  76.7497551  29.7935409  79.4610431  79.3875333  39.6248118  82.1684736
  79.2360840  39.3958669  81.2514820  79.3780013  40.5818719  82.1816081
  76.1560670  37.1980030  77.1531003  77.0852730  37.3491190  76.9799970
  75.7351700  37.2864051  76.2979649  74.9549001  41.2230695  74.9229540
  74.8160087  40.8549479  75.7955478  74.1663598  41.7378334  74.7513498
  75.5497153  46.3239791  66.2655077  75.7248909  45.8527834  67.0800699
  74.8629941  46.9505557  66.4936337  76.5054216  40.6012298  72.3118378
  76.1704049  40.5613067  73.2076028  76.0058162  39.9357013  71.8388788
  70.4798460  36.0079928  77.8370959  70.3418258  35.2760166  78.4382498
  71.3903384  35.9188828  77.5555147  79.4413408  37.9468332  62.5855438
  78.8242579  37.2215160  62.4888490  78.9729897  38.7077692  62.2422512
  73.1080761  35.7199887  77.3254639  73.8180380  35.0793079  77.2841257
  73.0650069  35.9712782  78.2480820  81.0967540  42.6567240  80.2461218
  81.0380086  41.9726460  79.5791801  81.4987058  43.3986230  79.7941844
  71.8209695  32.7065105  79.1450278  71.2847052  32.2555843  79.7971875
  71.2326404  32.8411014  78.4020743  71.2311954  32.1653756  61.7076742
  70.3541420  32.0442557  61.3438989  71.7069707  31.3739834  61.4555631
  81.0984947  40.6206824  78.4775198  80.2111726  40.2832746  78.6001597
  81.6683498  39.8889855  78.7143963  62.7514094  36.9530916  71.8018249
  63.4385134  36.6392646  71.2139264  62.5962223  37.8572281  71.5285500
  67.5548816  31.8421112  76.2303273  67.4707005  31.2346782  75.4953683
  66.7331523  32.3330131  76.2312769  74.6286100  45.2808276  75.4436441
  74.5556272  46.0863248  75.9555745  74.1863494  45.4800242  74.6184462
  74.4175880  44.5180047  68.9539262  73.6343402  45.0601727  69.0477487
  75.1168625  45.0354026  69.3533504  77.7272530  30.3274676  71.5973468
  78.2241230  29.5744638  71.2774538  76.9559512  30.3638993  71.0316677
  85.5802288  36.0315042  73.2391759  85.5692164  36.9139757  72.8685692
  84.7119667  35.6786592  73.0446296  77.0884784  45.1795111  77.5994600
  77.8012756  45.8142575  77.5270501  76.5974813  45.2758977  76.7834601
  78.8102311  39.0846363  69.1711891  77.8758590  39.2047826  69.0016596
  78.9878979  38.1818830  68.9071901  74.3107499  32.4692059  71.3245152
  73.9405286  31.9163099  72.0126058  74.8066591  31.8650192  70.7720152
  82.1974862  34.9263682  69.7061925  82.6635314  35.7591674  69.6322228
  82.6482363  34.4608664  70.4107184  72.1396697  42.9289554  78.4200170
  72.8406157  43.5626037  78.5729565  71.6691812  43.2704286  77.6595810
  80.2651093  41.2707504  66.7048077  80.5410937  41.1564098  67.6141951
  79.3955592  40.8724989  66.6660250  80.1691525  27.2944269  73.7452827
  79.2554605  27.5248496  73.9135034  80.5984626  27.3782714  74.5966859
  79.9397983  35.4834161  76.2452721  79.2869434  35.7310069  75.5905173
  80.3178363  34.6698300  75.9115198  76.9005157  45.5193855  70.3480891
  77.0827552  44.7015511  70.8108643  77.7238143  45.7361547  69.9105781
  77.2347323  44.4462040  67.6095939  77.7635089  43.9354494  66.9966102
  77.4975542  44.1304570  68.4741473  75.9885556  36.2253972  82.7318758
  75.3126193  36.1248102  83.4021133  76.8113190  36.0693186  83.1954755
  67.7364416  42.4625909  75.3531273  68.3217852  41.7169597  75.4859177
  67.5389254  42.7729866  76.2367937  70.5903071  45.4977156  70.3693715
  69.9213446  45.9823284  69.8857755  70.4515940  45.7446377  71.2837094
  62.3282070  35.0331509  74.0735716  62.3666170  34.4995100  74.8672834
  61.8222363  34.5066715  73.4546693  74.7308339  47.5320900  76.9676374
  75.2826647  47.6952521  77.7325459  75.0714533  48.1225338  76.2956399
  69.7072833  29.8796050  77.5698258  69.7714159  30.7410881  77.1575656
  69.6439953  29.2670051  76.8370617  69.1825105  31.9519182  81.2171293
  69.8097144  31.5696260  81.8308817  68.3253024  31.7333384  81.5826985
  79.5819214  42.3582157  82.8225028  80.1259118  42.9712116  82.3279983
  79.0006059  42.9161736  83.3392041  65.9590648  33.7595611  67.1489648
  66.2544089  32.8506290  67.0956701  65.0578684  33.7383351  66.8270650
  77.8676727  45.4802875  73.9540056  77.7427866  44.6792615  73.4451001
  78.5255818  45.9749069  73.4654026  69.4884895  31.8351608  73.1317196
  68.7671481  32.4487576  72.9924669  70.2778151  32.3709373  73.0533842
  79.9311635  43.2811896  75.5819606  78.9841971  43.1617247  75.5097933
  80.2794408  42.3934394  75.6645867  72.2911208  29.1706034  79.4057848
  72.8145610  29.4168331  80.1684157  72.0723542  30.0026069  78.9860985
  67.6878489  31.4409709  67.2728973  67.3591196  30.5607088  67.0904079
  68.0417860  31.3857378  68.1605362  76.9358068  43.0764612  71.7823958
  76.7883031  42.1481319  71.9631528  77.7611562  43.0984702  71.2981033
  70.8020313  31.7282679  67.6404450  71.1416385  32.2568600  66.9183059
  71.2492433  32.0663085  68.4163017  80.5392190  43.8993170  72.8688831
  81.4638738  43.6936032  72.7313282  80.3707494  43.6509572  73.7778173
  73.4963753  30.1119730  77.0907518  73.1560574  29.3127543  77.4928198
  72.7902760  30.4121440  76.5184352  74.1480225  27.1969042  75.5434841
  74.9706295  26.7229520  75.4213732  74.3918289  27.9759526  76.0433528
  72.7888460  30.2257300  65.8397743  73.5096822  30.6038553  65.3361460
  72.1653764  30.9446177  65.9432721  76.9319583  30.9302449  66.7756076
  77.1483197  31.8127087  66.4744904  76.4513650  30.5388663  66.0461717
  71.6718804  33.8888163  73.3526820  71.5263385  34.2028466  74.2451102
  71.1944008  34.5073063  72.7997719  73.5315187  30.8790711  73.4007710
  73.5176756  29.9831804  73.0640008  74.2487615  30.8861374  74.0345996
  75.3841318  31.3128051  75.4460837  75.1259095  32.2345121  75.4445168
  74.8526358  30.9158485  76.1361301  80.3287506  44.4178838  68.2250922
  80.5024384  43.8525260  67.4724775  80.8216398  45.2179733  68.0430412
  66.1464466  36.4293507  76.2914481  65.6017934  37.2053315  76.4234756
  67.0243816  36.7764312  76.1333603  72.9352083  29.7605091  68.6695280
  73.0567994  28.8321737  68.8686167  72.6454125  29.7743777  67.7573595
  75.8043273  27.4460001  71.8062000  75.8264970  27.5099334  70.8513979
  76.2211332  26.6064510  72.0002506  86.1826898  37.1815261  69.8441222
  86.6258044  36.4322586  69.4460345  85.3053408  37.1725397  69.4614954
  81.3162679  43.7345602  65.3247821  82.0113583  44.3552295  65.5435135
  81.6585829  42.8840954  65.6000199  66.9330488  35.5563403  79.1844638
  66.1912224  35.7046039  79.7709269  66.6123232  35.8171669  78.3211388
  83.2154102  41.1845308  66.8535152  83.7405426  41.5232581  66.1284472
  83.1276455  40.2492323  66.6698286  74.8774151  45.0979382  78.9825028
  75.1861277  44.8528528  79.8547728  75.6749633  45.3026020  78.4943898
  74.8994763  47.2517291  71.2130405  74.4599753  46.7593670  71.9063261
  75.6502880  46.7090259  70.9722480  67.3787102  43.4428832  71.2155033
  68.2045122  43.1432604  70.8353676  67.0281154  42.6736454  71.6644821
  72.3468635  42.7955300  73.2852706  71.7248644  42.1326005  72.9854934
  73.0173502  42.8216432  72.6026354  65.5795707  41.3615158  72.1743966
  64.7427615  40.9337333  71.9927968  65.5519352  41.5547602  73.1114758
  72.4193162  31.2737088  82.8785212  72.4681318  32.1499211  82.4962982
  72.9615677  30.7314481  82.3056856  82.9048008  41.8178212  82.1586349
  82.1143552  41.8002350  81.6190849  82.6681363  42.3566505  82.9135386
  83.0245883  38.6670678  79.4719078  83.0743888  38.5020685  80.4134601
  82.9159806  37.7997937  79.0816959  71.9082142  41.3459224  66.7611167
  72.0570262  42.0294688  66.1077840  72.7148585  41.3264314  67.2760623
  80.3149645  34.6501606  80.7878385  81.2159508  34.5108071  80.4962383
  80.3897620  34.8156061  81.7276562  74.6492451  32.0268461  79.6331571
  73.7795760  32.3202027  79.3614160  74.8851931  32.6108906  80.3538835
  84.5264080  41.0867619  79.7161100  84.2348888  41.4497600  80.5524561
  83.9136211  40.3734628  79.5374432  85.7259762  38.6520499  72.2363670
  86.5606654  39.0910303  72.4001230  85.8618891  38.1759152  71.4171916
  82.7751268  36.2100234  78.1841158  83.2505390  36.4027880  77.3760009
  81.8516834  36.2659420  77.9384541  69.6634775  37.3724401  67.7672236
  69.4180817  36.4686731  67.9652446  69.8330689  37.3741552  66.8251714
  77.3531485  28.2448078  77.1496991  77.8713429  28.9809105  76.8243480
  76.9986617  28.5512071  77.9843751  68.9330422  33.1052759  65.2658397
  68.2399667  33.1797114  64.6098433  68.6882174  32.3413102  65.7879914
  77.6044079  24.6648360  72.6697888  77.8845833  23.9971549  73.2958315
  78.3894686  24.8577456  72.1572552  75.4077547  43.8407354  64.2322914
  74.8351514  44.4597541  63.7793386  75.9810341  44.3906716  64.7662836
  81.4752937  33.0865994  76.4169463  82.4270360  33.1864092  76.4381687
  81.3056388  32.2944263  76.9267548  79.4967317  30.1721577  76.6028864
  78.9017249  30.4526590  75.9075353  79.2117013  30.6615478  77.3745605
  78.6274807  44.1244504  65.3631497  79.5605480  44.0590066  65.5664372
  78.5398020  44.9600771  64.9046029  81.2562824  43.4410375  62.3235444
  81.1776455  43.1070238  63.2171202  82.0772491  43.9332142  62.3226917
  83.9541015  36.3072114  75.5311763  83.9217335  35.3688115  75.7171447
  84.5641639  36.3856151  74.7977588  75.7924346  35.1768167  61.5738967
  76.7383451  35.0474375  61.6427385  75.4138591  34.4382829  62.0508395
  84.1035503  33.0983157  75.5770046  83.5874552  32.3141614  75.3899975
  84.9875452  32.7701874  75.7416565  81.7646230  26.8424173  71.5365859
  81.5671051  26.5339261  72.4209191  82.3745936  27.5685812  71.6663789
  89.7717565  37.3688121  74.6717800  90.5020953  37.1073409  75.2325503
  89.1624510  36.6316843  74.7119868  87.8532862  35.5095983  75.2692251
  87.1266026  35.3751948  74.6608742  87.4380149  35.8172812  76.0748969
  75.6763038  39.2285913  83.0339624  76.5966048  39.4064512  83.2279670
  75.6412621  38.2841958  82.8819323  73.9767263  33.1018143  61.5093852
  73.0698718  32.8051256  61.5856566  74.2543244  32.8047961  60.6428138
  64.8945203  34.4224507  71.9592898  64.5747988  33.5689815  71.6667272
  64.3478632  34.6373085  72.7150866  68.6725111  37.1386948  75.6762405
  68.8911121  38.0704055  75.6950439  69.0850885  36.7794922  76.4617209
  75.5929329  27.6455033  67.6638093  74.7830057  27.3002118  68.0393339
  76.2813746  27.3362577  68.2525705  77.5219877  26.7233080  69.2862390
  78.0750916  27.1428533  69.9452413  77.7589963  25.7968828  69.3285346
  73.5452976  32.7120153  85.0665154  73.4449703  33.6614510  84.9977245
  73.3274518  32.3838392  84.1941224  72.7466048  29.9605078  61.6505831
  73.6085212  30.2859977  61.9101649  72.9316392  29.1736574  61.1378897
  64.7633463  38.0427418  73.9286020  64.0696935  37.6281371  73.4155974
  65.5106454  38.0847955  73.3319439  80.8998684  28.8333605  68.7941054
  80.3197353  29.4918409  68.4119107  80.6334617  28.0110949  68.3828472
  79.3502250  28.2338663  70.9962375  79.8502029  28.3455197  70.1876693
  79.9937858  27.9299715  71.6363183  73.4084246  36.1417292  83.8830216
  72.9251328  36.9417652  84.0894105  73.4945185  36.1525237  82.9297660
  66.6770206  37.9745672  71.8052035  66.6540894  38.0733359  70.8533918
  66.9870842  38.8210823  72.1269201  69.3357584  40.0321827  75.9198649
  70.2900837  40.0005769  75.8528581  69.1370107  39.5712451  76.7348875
  69.9256966  38.6022943  78.4869447  70.7449855  39.0967022  78.5104284
  70.1993774  37.6854911  78.4587015  79.6823562  30.9933695  67.8497403
  78.7949417  31.2783346  67.6317597  80.0977551  30.8327459  67.0024679
  83.0338098  31.0180216  71.5651742  83.8098488  31.5076669  71.8376359
  82.3086232  31.4438270  72.0223611  85.4710657  31.7307835  72.6225682
  86.0655148  31.4903571  71.9118991  85.5437241  31.0114966  73.2499219
  67.6907813  45.5741446  72.9368847  67.5562280  44.8141847  72.3706845
  67.2739875  46.2982346  72.4697636  78.8266776  40.7578370  61.9445423
  79.5302626  40.9628372  62.5603078  78.1029424  41.3255132  62.2094506
  79.6564586  36.5088231  68.0647693  79.5999787  36.9656783  67.2255325
  80.2092928  35.7478916  67.8870535  83.4669392  32.2977963  68.8897812
  83.2106326  31.8974599  69.7206020  82.8422260  33.0121757  68.7647951
  87.7781730  35.0374036  71.3969104  87.2181288  35.1067226  72.1700666
  87.1725233  34.8615021  70.6768600  70.8476938  46.4710763  73.1487290
  70.7309323  47.4156196  73.0465980  70.0269385  46.1684325  73.5373089
  80.7353473  41.1960899  63.9943883  81.5699077  40.7642098  63.8121357
  80.5737816  41.0242913  64.9220777  80.3899365  37.6993012  65.3600222
  80.3348169  37.5337284  64.4188666  79.7645420  38.4069045  65.5162412
  65.1791880  32.9361077  79.1861644  65.8250744  32.4260031  79.6748869
  64.9709031  33.6729758  79.7605069  77.7045272  40.0041924  84.6853785
  78.5736432  40.1782577  84.3240420  77.2252024  40.8236341  84.5629514
  73.6995491  27.2001121  64.9385540  73.6874160  28.1442961  65.0953811
  74.5918912  27.0171267  64.6445001  71.8731453  47.1239025  76.3643218
  72.7758699  47.1562636  76.6809713  71.6468823  46.1939476  76.3789554
  73.6285055  45.8770012  73.0253297  72.6780686  45.8771873  72.9117669
  73.9317541  45.1302746  72.5089332  77.5147610  23.7943898  69.1931477
  76.7480006  23.2402385  69.3388159  77.9258315  23.8665767  70.0545629
  69.5189371  30.0828694  83.2836658  70.3820833  29.7265499  83.4939983
  68.9454782  29.7442589  83.9712063  89.3637748  51.7130550  74.0899059
  90.0016158  51.5937298  73.3862399  89.2458591  52.6611394  74.1487011
  86.1727454  51.6657978  74.0260584  85.8345966  51.5499043  73.1381119
  87.0417223  51.2649143  74.0061590  82.0314270  53.5193455  70.0157475
  81.4679135  53.4283392  69.2473763  81.9166665  52.6993359  70.4959967
  86.6547237  52.8192830  79.9846790  86.6435878  52.4245628  79.1127293
  86.8167877  52.0858903  80.5780561  87.6113829  57.1864422  65.3271940
  86.9601809  57.7718503  64.9405954  88.4058192  57.7170617  65.3866977
  83.3754498  55.6029942  78.9325973  83.0844364  56.5075573  78.8172640
  84.0111483  55.6446469  79.6470043  84.3010705  52.9806790  75.5227333
  84.8974278  52.7562813  74.8084296  84.3585677  52.2391536  76.1252781
  83.8735734  50.4346226  63.3577524  84.1261254  49.9127747  62.5960987
  82.9360293  50.2712371  63.4604208  88.9179017  49.4382004  71.1652267
  89.7042106  49.0201427  70.8142684  89.1817721  50.3428096  71.3333916
  89.0889094  54.8754854  65.8640924  88.4534927  54.9489481  66.5761829
  88.7586500  55.4648453  65.1860003  94.3187444  49.3757237  72.0685246
  95.0512616  48.8056454  72.3023075  93.5626799  48.9878838  72.5091751
  83.5932022  52.3374332  65.5601899  83.4768281  51.6619235  66.2282983
  83.7034282  51.8506706  64.7434052  85.9363563  51.7984479  69.2648588
  85.5721771  51.2715100  69.9761510  86.7930679  51.4082948  69.0915074
  91.8412864  43.0878811  76.5279854  91.5096189  43.9574222  76.3041069
  91.2458477  42.7715095  77.2073885  85.5769050  46.8274378  64.2609937
  85.7443453  47.6954615  64.6280408  85.3866219  46.9901660  63.3371226
  88.3344384  55.2891357  75.9275767  88.0345107  56.1916396  75.8191574
  87.9895443  55.0223541  76.7796920  81.7856865  51.7405154  71.9612472
  80.8607362  51.6081368  72.1690163  82.0341278  52.5199373  72.4582414
  91.7341527  47.8073898  73.6073205  90.8258405  47.7389306  73.3131965
  91.6829123  48.2845842  74.4355030  85.5558271  49.2832036  65.2456604
  85.4357896  49.7289087  66.0842084  84.8610860  49.6317354  64.6870142
  79.1465676  51.3838428  72.7956261  79.2758057  51.6372907  73.7095672
  78.4663127  51.9766136  72.4760916  85.8082393  49.2263543  81.5508102
  85.0315727  49.7857463  81.5410966  86.4472956  49.7120326  82.0722972
  93.6003174  46.0090336  75.3851078  92.9577554  46.3022869  74.7390873
  93.0958102  45.8943256  76.1904275  91.2543337  49.7553509  66.0736938
  92.1661194  49.9880896  65.8984635  90.7452984  50.3390553  65.5112016
  84.0628765  52.0348997  81.1126069  84.8043450  52.5734040  80.8360892
  83.3565751  52.6615285  81.2697621  89.5384105  54.1778137  79.7098230
  89.9467461  53.7360548  78.9652863  88.8161367  53.6030764  79.9632423
  85.8915175  49.1150744  77.0831787  86.7376370  49.5390157  77.2266436
  85.8313813  48.4584368  77.7770350  89.8612920  54.7379328  73.4650519
  89.2321782  54.9025042  72.7626587  89.4738582  55.1520937  74.2361483
  93.7402152  55.6733765  70.8194883  93.0553190  56.0532667  70.2691916
  93.8246001  56.2829092  71.5526831  89.0414620  46.7755112  78.7412961
  88.7975552  47.5297173  78.2047237  89.3174551  47.1540460  79.5760208
  90.9953083  53.3193724  77.4190226  91.2069978  53.9625484  76.7424608
  90.9482831  52.4856041  76.9512157  88.5979312  45.9311545  74.3226799
  87.7363791  46.2292799  74.6143536  88.6241747  46.1481944  73.3907831
  85.4140882  54.4753736  70.7300604  85.8779227  54.7541439  69.9405227
  85.1497680  53.5737180  70.5473695  82.3064963  54.0225217  73.6680368
  82.8766320  54.4512486  73.0297852  82.8973074  53.7407802  74.3664553
  84.3509768  50.5976888  67.5390169  85.0533811  51.0497932  68.0064096
  84.0190396  49.9560707  68.1670063  82.7990129  49.1888645  81.9141379
  82.1688790  49.8704926  82.1476776  82.6926217  49.0771726  80.9694517
  78.0935102  48.8560441  72.8407303  77.3034156  49.1117969  72.3647414
  78.5846349  49.6708779  72.9459343  80.0449847  49.2205020  69.7990780
  79.2481010  49.3323714  70.3174275  79.8175439  49.5591672  68.9331670
  85.8755515  55.7449723  77.7473294  85.9399947  56.2070130  78.5831466
  85.1666438  55.1147088  77.8755604  76.3772805  49.1090931  75.2722294
  76.6280843  49.9937941  75.5379870  76.9132353  48.9295533  74.4997386
 100.2004904  52.5404428  71.9397555  99.4468613  51.9711826  71.7841560
 100.3352445  52.5067093  72.8868190  82.0770872  43.4909411  84.2766630
  81.6837817  42.9375609  84.9514274  82.8937012  43.8019989  84.6673147
  84.9938833  44.9067290  81.8686886  85.7348546  45.5074443  81.7891349
  85.2256756  44.1644927  81.3104929  80.1380171  50.0923657  80.1465116
  80.0233686  49.1908914  80.4472215  79.2824689  50.3387354  79.7949933
  85.7726301  55.8288327  80.6157526  86.3054638  55.0676615  80.3856834
  85.2440382  55.5361978  81.3581681  88.9395996  40.9348393  76.1451168
  88.5960265  41.8250034  76.0690279  89.3074958  40.7450050  75.2820753
  88.9046279  50.9257004  64.6523603  88.3892902  51.6961608  64.8911991
  88.6323587  50.2522140  65.2756665  86.4893390  45.7706704  69.7108842
  85.6334986  45.3813555  69.5314480  86.9020341  45.8498665  68.8508627
  88.0192536  43.3053048  74.1100401  87.5157332  43.2683183  73.2968207
  88.3123143  44.2145790  74.1697058  84.2635422  43.3891777  73.1166583
  85.1288419  43.1934586  72.7572473  84.3312931  43.1602129  74.0435940
  93.8780553  53.6789358  66.5876777  93.1009995  53.3400518  66.1431939
  94.5572034  53.6841981  65.9131742  88.6932582  48.7984096  66.4783384
  88.3882717  49.1130245  67.3293528  89.6463024  48.8765516  66.5210717
  87.1379014  54.9574319  68.1276338  86.6100375  54.2227079  67.8149576
  86.6366516  55.7348995  67.8816307  92.1171860  53.1523340  73.2443385
  91.4595534  53.8422601  73.3323513  92.9212259  53.5419772  73.5877371
  81.8697741  45.6193985  70.4882950  82.4441493  45.3969167  69.7556143
  82.4568724  45.6882680  71.2411551  90.9277318  51.5067712  71.2947326
  91.4409200  52.1397704  71.7969036  91.5778542  50.9068908  70.9290686
  82.1967328  47.6498446  64.5078835  81.3604641  47.9873133  64.8288110
  82.0572098  47.5147426  63.5705972  84.1720409  42.4935234  69.2158019
  83.5184821  42.1784251  68.5914634  84.1300883  41.8710975  69.9417842
  85.2831614  52.7754529  61.1311311  84.3758675  52.5443783  61.3302460
  85.7802646  51.9792149  61.3185293  88.1899693  61.4852037  64.0507998
  87.5161391  61.7883733  64.6592955  88.5765515  62.2881117  63.7013455
  87.4058149  48.9817168  73.5405667  86.4880711  49.2032115  73.3827355
  87.8218293  49.0563478  72.6817374  88.1893197  50.3808583  68.6708347
  88.9365016  50.8929981  68.3615469  88.4584787  50.0592636  69.5312741
  86.4619847  52.8767124  65.6535301  85.5531066  52.5926157  65.7507771
  86.4914931  53.2966203  64.7938608  91.6939115  56.4873714  69.4226469
  91.2401442  55.6464624  69.4791660  91.0633081  57.1235112  69.7601249
  90.6372034  47.4165700  70.6527136  89.8994791  46.9043086  70.9837379
  90.8898808  46.9766081  69.8410413  90.1372054  58.3250210  70.3576287
  90.4295028  58.8855268  69.6388653  90.6470674  58.6178771  71.1129446
  90.7383661  40.1941952  71.2468906  91.0442538  39.3339315  70.9594821
  91.4636266  40.7859572  71.0467900  85.0104741  50.4895745  71.7545097
  85.0653351  49.5369581  71.6787573  84.1995943  50.6455184  72.2386395
  86.1595935  54.4175868  62.9923380  85.7215365  53.7011727  62.5329017
  86.9006376  54.6451983  62.4308471  82.9497101  49.1072805  69.5135476
  82.1364967  49.4066975  69.9200668  83.4456095  48.7128493  70.2309958
  88.5471313  49.5714629  78.3450370  88.9020701  49.7986102  79.2044835
  89.1943444  49.9033006  77.7227625  94.2769050  52.6933065  69.0499699
  94.1386948  52.8834661  68.1220888  93.9205269  53.4552448  69.5067750
  82.4411176  46.6791160  75.1296711  83.0810555  46.5379919  74.4319674
  81.6088706  46.3925673  74.7535313  94.3038429  54.7609592  74.0610970
  94.7374936  54.6684881  74.9094024  95.0170010  54.7367092  73.4230986
  79.5254243  50.1236672  67.3191456  78.5951831  50.0621128  67.5361418
  79.6211715  49.6012625  66.5228097  79.4439792  46.6491485  69.9069697
  79.7046610  47.5636818  69.7978858  80.2656965  46.1815928  70.0566310
  80.9164718  48.0629242  77.0768522  81.5887771  47.8546604  76.4281171
  80.0894504  47.8651328  76.6373754  95.1653979  54.8033293  76.5943856
  95.3589869  55.7079103  76.8403130  95.0654597  54.3440712  77.4282441
  86.8190290  44.6891183  79.0934183  86.1718205  45.3881133  78.9998659
  87.5891305  45.1227327  79.4610431  90.2269088  54.9540035  82.1684736
  90.0754594  54.7250587  81.2514820  90.2173767  55.9110637  82.1816081
  86.9954424  52.5271948  77.1531003  87.9246484  52.6783108  76.9799970
  86.5745454  52.6155969  76.2979649  87.3447971  55.9304215  72.3118378
  87.0097804  55.8904985  73.2076028  86.8451917  55.2648931  71.8388788
  81.3192215  51.3371845  77.8370959  81.1812013  50.6052084  78.4382498
  82.2297138  51.2480745  77.5555147  90.2807163  53.2760250  62.5855438
  89.6636333  52.5507078  62.4888490  89.8123651  54.0369610  62.2422512
  83.9474516  51.0491805  77.3254639  84.6574134  50.4084997  77.2841257
  83.9043824  51.3004699  78.2480820  82.6603450  48.0357022  79.1450278
  82.1240807  47.5847761  79.7971875  82.0720158  48.1702931  78.4020743
  82.0705709  47.4945674  61.7076742  81.1935175  47.3734475  61.3438989
  82.5463462  46.7031752  61.4555631  78.3942571  47.1713030  76.2303273
  78.3100760  46.5638700  75.4953683  77.5725277  47.6622048  76.2312769
  88.5666285  45.6566594  71.5973468  89.0634984  44.9036556  71.2774538
  87.7953266  45.6930910  71.0316677  96.4196042  51.3606959  73.2391759
  96.4085918  52.2431675  72.8685692  95.5513422  51.0078510  73.0446296
  89.6496065  54.4138281  69.1711891  88.7152344  54.5339743  69.0016596
  89.8272734  53.5110748  68.9071901  85.1501253  47.7983977  71.3245152
  84.7799041  47.2455017  72.0126058  85.6460346  47.1942110  70.7720152
  93.0368617  50.2555600  69.7061925  93.5029069  51.0883592  69.6322228
  93.4876117  49.7900582  70.4107184  91.1044848  56.5999421  66.7048077
  91.3804692  56.4856016  67.6141951  90.2349347  56.2016906  66.6660250
  91.0085279  42.6236187  73.7452827  90.0948359  42.8540414  73.9135034
  91.4378381  42.7074631  74.5966859  90.7791738  50.8126079  76.2452721
  90.1263188  51.0601987  75.5905173  91.1572118  49.9990217  75.9115198
  86.8279311  51.5545890  82.7318758  86.1519948  51.4540020  83.4021133
  87.6506945  51.3985104  83.1954755  80.5466587  45.2087967  77.5698258
  80.6107914  46.0702798  77.1575656  80.4833707  44.5961969  76.8370617
  80.0218860  47.2811100  81.2171293  80.6490898  46.8988177  81.8308817
  79.1646778  47.0625302  81.5826985  80.3278649  47.1643526  73.1317196
  79.6065235  47.7779493  72.9924669  81.1171905  47.7001290  73.0533842
  83.1304963  44.4997952  79.4057848  83.6539365  44.7460249  80.1684157
  82.9117296  45.3317987  78.9860985  78.5272244  46.7701627  67.2728973
  78.1984950  45.8899006  67.0904079  78.8811615  46.7149295  68.1605362
  81.6414067  47.0574597  67.6404450  81.9810140  47.5860518  66.9183059
  82.0886188  47.3955003  68.4163017  84.3357508  45.4411647  77.0907518
  83.9954328  44.6419460  77.4928198  83.6296514  45.7413358  76.5184352
  84.9873980  42.5260960  75.5434841  85.8100049  42.0521438  75.4213732
  85.2312043  43.3051443  76.0433528  83.6282214  45.5549218  65.8397743
  84.3490577  45.9330471  65.3361460  83.0047518  46.2738095  65.9432721
  87.7713337  46.2594367  66.7756076  87.9876952  47.1419005  66.4744904
  87.2907404  45.8680581  66.0461717  82.5112559  49.2180080  73.3526820
  82.3657139  49.5320383  74.2451102  82.0337762  49.8364981  72.7997719
  84.3708941  46.2082628  73.4007710  84.3570510  45.3123722  73.0640008
  85.0881370  46.2153292  74.0345996  86.2235072  46.6419969  75.4460837
  85.9652850  47.5637039  75.4445168  85.6920112  46.2450403  76.1361301
  91.1681261  59.7470756  68.2250922  91.3418138  59.1817178  67.4724775
  91.6610152  60.5471651  68.0430412  76.9858221  51.7585425  76.2914481
  76.4411689  52.5345233  76.4234756  77.8637571  52.1056229  76.1333603
  83.7745837  45.0897009  68.6695280  83.8961749  44.1613655  68.8686167
  83.4847880  45.1035695  67.7573595  86.6437028  42.7751919  71.8062000
  86.6658725  42.8391252  70.8513979  87.0605087  41.9356428  72.0002506
  97.0220652  52.5107179  69.8441222  97.4651798  51.7614504  69.4460345
  96.1447162  52.5017315  69.4614954  92.1556433  59.0637520  65.3247821
  92.8507338  59.6844213  65.5435135  92.4979583  58.2132871  65.6000199
  77.7724243  50.8855321  79.1844638  77.0305979  51.0337956  79.7709269
  77.4516987  51.1463587  78.3211388  94.0547856  56.5137226  66.8535152
  94.5799181  56.8524498  66.1284472  93.9670209  55.5784241  66.6698286
  83.2586917  46.6029006  82.8785212  83.3075072  47.4791129  82.4962982
  83.8009431  46.0606399  82.3056856  93.8639638  53.9962596  79.4719078
  93.9137643  53.8312603  80.4134601  93.7553561  53.1289855  79.0816959
  91.1543400  49.9793524  80.7878385  92.0553263  49.8399988  80.4962383
  91.2291374  50.1447978  81.7276562  85.4886205  47.3560378  79.6331571
  84.6189515  47.6493944  79.3614160  85.7245686  47.9400823  80.3538835
  95.3657834  56.4159537  79.7161100  95.0742643  56.7789518  80.5524561
  94.7529966  55.7026545  79.5374432  96.5653517  53.9812417  72.2363670
  97.4000408  54.4202221  72.4001230  96.7012646  53.5051070  71.4171916
  93.6145023  51.5392152  78.1841158  94.0899144  51.7319798  77.3760009
  92.6910588  51.5951338  77.9384541  88.1925239  43.5739995  77.1496991
  88.7107183  44.3101022  76.8243480  87.8380372  43.8803989  77.9843751
  79.7724177  48.4344676  65.2658397  79.0793422  48.5089031  64.6098433
  79.5275929  47.6705020  65.7879914  88.4437833  39.9940278  72.6697888
  88.7239587  39.3263467  73.2958315  89.2288440  40.1869373  72.1572552
  92.3146692  48.4157912  76.4169463  93.2664115  48.5156009  76.4381687
  92.1450142  47.6236180  76.9267548  90.3361071  45.5013495  76.6028864
  89.7411003  45.7818508  75.9075353  90.0510768  45.9907396  77.3745605
  89.4668562  59.4536422  65.3631497  90.3999235  59.3881984  65.5664372
  89.3791774  60.2892689  64.9046029  92.0956578  58.7702292  62.3235444
  92.0170210  58.4362156  63.2171202  92.9166245  59.2624060  62.3226917
  94.7934769  51.6364032  75.5311763  94.7611090  50.6980032  75.7171447
  95.4035393  51.7148068  74.7977588  86.6318100  50.5060084  61.5738967
  87.5777205  50.3766293  61.6427385  86.2532345  49.7674746  62.0508395
  94.9429258  48.4275075  75.5770046  94.4268307  47.6433532  75.3899975
  95.8269206  48.0993792  75.7416565  92.6039985  42.1716091  71.5365859
  92.4064806  41.8631179  72.4209191  93.2139690  42.8977729  71.6663789
 100.6111319  52.6980038  74.6717800 101.3414708  52.4365326  75.2325503
 100.0018265  51.9608760  74.7119868  98.6926616  50.8387901  75.2692251
  97.9659780  50.7043866  74.6608742  98.2773903  51.1464730  76.0748969
  86.5156793  54.5577831  83.0339624  87.4359802  54.7356430  83.2279670
  86.4806376  53.6133876  82.8819323  84.8161017  48.4310061  61.5093852
  83.9092473  48.1343174  61.5856566  85.0936998  48.1339879  60.6428138
  79.5118865  52.4678865  75.6762405  79.7304875  53.3995973  75.6950439
  79.9244639  52.1086840  76.4617209  86.4323083  42.9746951  67.6638093
  85.6223812  42.6294036  68.0393339  87.1207500  42.6654494  68.2525705
  88.3613631  42.0524997  69.2862390  88.9144670  42.4720451  69.9452413
  88.5983718  41.1260745  69.3285346  84.3846731  48.0412071  85.0665154
  84.2843458  48.9906428  84.9977245  84.1668273  47.7130310  84.1941224
  83.5859802  45.2896996  61.6505831  84.4478966  45.6151894  61.9101649
  83.7710146  44.5028492  61.1378897  91.7392439  44.1625523  68.7941054
  91.1591108  44.8210327  68.4119107  91.4728371  43.3402867  68.3828472
  90.1896005  43.5630580  70.9962375  90.6895783  43.6747115  70.1876693
  90.8331613  43.2591633  71.6363183  84.2478001  51.4709210  83.8830216
  83.7645082  52.2709570  84.0894105  84.3338940  51.4817155  82.9297660
  80.1751338  55.3613745  75.9198649  81.1294592  55.3297687  75.8528581
  79.9763862  54.9004368  76.7348875  80.7650720  53.9314861  78.4869447
  81.5843609  54.4258939  78.5104284  81.0387528  53.0146829  78.4587015
  90.5217317  46.3225613  67.8497403  89.6343172  46.6075264  67.6317597
  90.9371306  46.1619376  67.0024679  93.8731853  46.3472134  71.5651742
  94.6492243  46.8368586  71.8376359  93.1479987  46.7730188  72.0223611
  96.3104411  47.0599753  72.6225682  96.9048902  46.8195489  71.9118991
  96.3830995  46.3406884  73.2499219  89.6660530  56.0870288  61.9445423
  90.3696380  56.2920290  62.5603078  88.9423179  56.6547049  62.2094506
  90.4958340  51.8380149  68.0647693  90.4393542  52.2948700  67.2255325
  91.0486683  51.0770833  67.8870535  94.3063146  47.6269881  68.8897812
  94.0500080  47.2266516  69.7206020  93.6816014  48.3413675  68.7647951
  98.6175484  50.3665954  71.3969104  98.0575042  50.4359143  72.1700666
  98.0118987  50.1906939  70.6768600  91.5747227  56.5252817  63.9943883
  92.4092831  56.0934015  63.8121357  91.4131570  56.3534830  64.9220777
  91.2293120  53.0284930  65.3600222  91.1741923  52.8629202  64.4188666
  90.6039175  53.7360963  65.5162412  76.0185635  48.2652994  79.1861644
  76.6644498  47.7551948  79.6748869  75.8102786  49.0021676  79.7605069
  88.5439027  55.3333842  84.6853785  89.4130186  55.5074494  84.3240420
  88.0645778  56.1528259  84.5629514  84.5389245  42.5293039  64.9385540
  84.5267915  43.4734879  65.0953811  85.4312667  42.3463185  64.6445001
  88.3541365  39.1235816  69.1931477  87.5873760  38.5694302  69.3388159
  88.7652070  39.1957685  70.0545629  80.3583126  45.4120612  83.2836658
  81.2214587  45.0557416  83.4939983  79.7848536  45.0734506  83.9712063
 100.2031503  67.0422468  74.0899059 100.8409912  66.9229215  73.3862399
 100.0852345  67.9903312  74.1487011  97.0121209  66.9949896  74.0260584
  96.6739720  66.8790961  73.1381119  97.8810977  66.5941061  74.0061590
  92.8708025  68.8485372  70.0157475  92.3072890  68.7575309  69.2473763
  92.7560420  68.0285277  70.4959967  97.4940992  68.1484748  79.9846790
  97.4829633  67.7537546  79.1127293  97.6561631  67.4150820  80.5780561
  90.4172456  70.3436564  72.8541695  91.2093748  70.0027389  72.4387995
  90.6569107  70.4531539  73.7743849  98.4507583  72.5156340  65.3271940
  97.7995563  73.1010421  64.9405954  99.2451946  73.0462535  65.3866977
  92.3763210  69.6045477  65.7259074  93.1494086  69.0574464  65.5871950
  92.7288609  70.4689727  65.9373536  94.2148253  70.9321860  78.9325973
  93.9238119  71.8367490  78.8172640  94.8505237  70.9738387  79.6470043
  95.1404460  68.3098708  75.5227333  95.7368032  68.0854730  74.8084296
  95.1979431  67.5683454  76.1252781  94.7129488  65.7638143  63.3577524
  94.9655009  65.2419665  62.5960987  93.7754047  65.6004289  63.4604208
  99.7572771  64.7673922  71.1652267 100.5435860  64.3493345  70.8142684
 100.0211475  65.6720014  71.3333916  99.9282848  70.2046772  65.8640924
  99.2928681  70.2781399  66.5761829  99.5980255  70.7940371  65.1860003
 105.1581198  64.7049155  72.0685246 105.8906370  64.1348372  72.3023075
 104.4020554  64.3170755  72.5091751  94.4325777  67.6666249  65.5601899
  94.3162035  66.9911153  66.2282983  94.5428037  67.1798623  64.7434052
  96.7757318  67.1276396  69.2648588  96.4115525  66.6007017  69.9761510
  97.6324434  66.7374866  69.0915074 102.6806618  58.4170729  76.5279854
 102.3489943  59.2866140  76.3041069 102.0852232  58.1007013  77.2073885
  96.4162805  62.1566296  64.2609937  96.5837207  63.0246533  64.6280408
  96.2259974  62.3193578  63.3371226  99.1738138  70.6183275  75.9275767
  98.8738861  71.5208314  75.8191574  98.8289198  70.3515458  76.7796920
  92.6250620  67.0697072  71.9612472  91.7001116  66.9373286  72.1690163
  92.8735033  67.8491291  72.4582414 102.5735282  63.1365815  73.6073205
 101.6652159  63.0681224  73.3131965 102.5222878  63.6137760  74.4355030
  96.3952026  64.6123954  65.2456604  96.2751651  65.0581004  66.0842084
  95.7004614  64.9609271  64.6870142  89.9859431  66.7130345  72.7956261
  90.1151812  66.9664824  73.7095672  89.3056882  67.3058053  72.4760916
  94.1558918  77.3827595  68.8946735  94.0782948  78.3335420  68.9735215
  93.5520561  77.0373468  69.5521661 104.4396928  61.3382254  75.3851078
 103.7971308  61.6314787  74.7390873 103.9351857  61.2235174  76.1904275
 102.0937092  65.0845427  66.0736938 103.0054948  65.3172814  65.8984635
 101.5846739  65.6682471  65.5112016 100.3777860  69.5070055  79.7098230
 100.7861216  69.0652465  78.9652863  99.6555121  68.9322682  79.9632423
  96.7308930  64.4442661  77.0831787  97.5770125  64.8682075  77.2266436
  96.6707567  63.7876286  77.7770350 100.7006674  70.0671245  73.4650519
 100.0715537  70.2316959  72.7626587 100.3132336  70.4812855  74.2361483
 104.5795906  71.0025683  70.8194883 103.8946944  71.3824584  70.2691916
 104.6639755  71.6121010  71.5526831  99.8808375  62.1047030  78.7412961
  99.6369307  62.8589090  78.2047237 100.1568305  62.4832377  79.5760208
 101.8346838  68.6485642  77.4190226 102.0463733  69.2917402  76.7424608
 101.7876586  67.8147959  76.9512157  99.4373067  61.2603463  74.3226799
  98.5757546  61.5584716  74.6143536  99.4635501  61.4773862  73.3907831
  96.2534636  69.8045653  70.7300604  96.7172982  70.0833356  69.9405227
  95.9891434  68.9029098  70.5473695  93.1458717  69.3517135  73.6680368
  93.7160074  69.7804403  73.0297852  93.7366829  69.0699720  74.3664553
  95.1903522  65.9268806  67.5390169  95.8927565  66.3789849  68.0064096
  94.8584151  65.2852625  68.1670063 102.9492666  71.5257598  75.5912584
 103.7710109  71.1237785  75.3095265 102.9455069  71.4225832  76.5428700
  90.8843601  64.5496938  69.7990780  90.0874765  64.6615632  70.3174275
  90.6569194  64.8883590  68.9331670  96.7149269  71.0741641  77.7473294
  96.7793702  71.5362048  78.5831466  96.0060193  70.4439006  77.8755604
 111.0398659  67.8696346  71.9397555 110.2862367  67.3003744  71.7841560
 111.1746200  67.8359011  72.8868190  96.4297287  72.7409748  67.6152275
  96.2942962  73.5861284  68.0437122  96.9707099  72.9429026  66.8518208
  89.8826684  70.2585186  68.1880200  90.3951205  71.0528437  68.3385764
  90.5349397  69.5611477  68.1213801  91.6921569  73.3750943  70.2702953
  91.8688197  74.2968907  70.0823937  92.4878402  73.0609362  70.6997333
  98.0565763  73.3633315  81.7452617  97.6129617  72.5769693  81.4273521
  98.7182977  73.5512465  81.0796507  92.8152884  74.8929116  76.2713295
  93.3660309  74.7646180  75.4990289  91.9764360  75.1924005  75.9208188
 100.1547001  73.6436115  79.7734018 100.1365477  74.4644996  79.2814287
 101.0766921  73.5190190  79.9984159  96.6120055  71.1580244  80.6157526
  97.1448392  70.3968532  80.3856834  96.0834136  70.8653896  81.3581681
  99.7789750  56.2640310  76.1451168  99.4354020  57.1541952  76.0690279
 100.1468713  56.0741968  75.2820753  99.7440033  66.2548921  64.6523603
  99.2286656  67.0253526  64.8911991  99.4717341  65.5814058  65.2756665
  97.3287144  61.0998622  69.7108842  96.4728740  60.7105473  69.5314480
  97.7414096  61.1790583  68.8508627  98.8586291  58.6344965  74.1100401
  98.3551086  58.5975101  73.2968207  99.1516898  59.5437708  74.1697058
  95.1029177  58.7183695  73.1166583  95.9682173  58.5226504  72.7572473
  95.1706685  58.4894047  74.0435940 104.7174307  69.0081276  66.5876777
 103.9403750  68.6692435  66.1431939 105.3965788  69.0133899  65.9131742
  99.5326336  64.1276013  66.4783384  99.2276472  64.4422163  67.3293528
 100.4856778  64.2057433  66.5210717  97.9772768  70.2866237  68.1276338
  97.4494130  69.5518996  67.8149576  97.4760271  71.0640913  67.8816307
 102.9565614  68.4815257  73.2443385 102.2989289  69.1714519  73.3323513
 103.7606013  68.8711689  73.5877371  92.7091496  60.9485903  70.4882950
  93.2835248  60.7261085  69.7556143  93.2962478  61.0174598  71.2411551
 101.7671073  66.8359630  71.2947326 102.2802955  67.4689622  71.7969036
 102.4172297  66.2360825  70.9290686  93.0361083  62.9790364  64.5078835
  92.1998395  63.3165051  64.8288110  92.8965852  62.8439344  63.5705972
  95.0114163  57.8227152  69.2158019  94.3578576  57.5076169  68.5914634
  94.9694638  57.2002892  69.9417842  96.1225368  68.1046447  61.1311311
  95.2152430  67.8735700  61.3302460  96.6196400  67.3084066  61.3185293
  99.0293447  76.8143954  64.0507998  98.3555146  77.1175651  64.6592955
  99.4159269  77.6173035  63.7013455  98.2451904  64.3109085  73.5405667
  97.3274465  64.5324032  73.3827355  98.6612047  64.3855396  72.6817374
  99.0286951  65.7100501  68.6708347  99.7758770  66.2221898  68.3615469
  99.2978541  65.3884554  69.5312741  97.3013602  68.2059042  65.6535301
  96.3924821  67.9218075  65.7507771  97.3308685  68.6258120  64.7938608
 102.5332869  71.8165631  69.4226469 102.0795196  70.9756541  69.4791660
 101.9026836  72.4527030  69.7601249 101.4765789  62.7457617  70.6527136
 100.7388545  62.2335004  70.9837379 101.7292562  62.3057999  69.8410413
 100.9765808  73.6542128  70.3576287 101.2688783  74.2147185  69.6388653
 101.4864429  73.9470689  71.1129446 101.5777416  55.5233869  71.2468906
 101.8836293  54.6631233  70.9594821 102.3030021  56.1151490  71.0467900
  95.8498496  65.8187662  71.7545097  95.9047105  64.8661499  71.6787573
  95.0389698  65.9747102  72.2386395  96.9989689  69.7467786  62.9923380
  96.5609119  69.0303644  62.5329017  97.7400130  69.9743900  62.4308471
  93.7890856  64.4364722  69.5135476  92.9758721  64.7358893  69.9200668
  94.2849850  64.0420411  70.2309958  95.9399434  74.4322479  71.4469740
  95.8975612  74.6583325  70.5178272  96.8562132  74.1985854  71.5955542
  99.3865067  64.9006547  78.3450370  99.7414455  65.1278020  79.2044835
 100.0337199  65.2324924  77.7227625 105.1162804  68.0224983  69.0499699
 104.9780703  68.2126579  68.1220888 104.7599023  68.7844365  69.5067750
 105.1432184  70.0901510  74.0610970 105.5768691  69.9976799  74.9094024
 105.8563765  70.0659010  73.4230986  94.0565234  71.3085508  71.2431703
  94.8505833  70.8135828  71.0414278  93.3456927  70.7803371  70.8799409
  98.8760079  73.6903604  75.5944071  98.9297101  74.2594540  76.3621787
  98.0074860  73.8605489  75.2298108  90.3647998  65.4528590  67.3191456
  89.4345586  65.3913045  67.5361418  90.4605470  64.9304543  66.5228097
  90.2833547  61.9783403  69.9069697  90.5440364  62.8928736  69.7978858
  91.1050719  61.5107845  70.0566310 106.0047733  70.1325210  76.5943856
 106.1983624  71.0371021  76.8403130 105.9048352  69.6732629  77.4282441
  97.6584044  60.0183101  79.0934183  97.0111959  60.7173051  78.9998659
  98.4285060  60.4519245  79.4610431 101.0662842  70.2831953  82.1684736
 100.9148349  70.0542505  81.2514820 101.0567522  71.2402554  82.1816081
  97.8348179  67.8563866  77.1531003  98.7640239  68.0075025  76.9799970
  97.4139209  67.9447887  76.2979649  96.6336510  71.8814530  74.9229540
  96.4947596  71.5133315  75.7955478  95.8451107  72.3962170  74.7513498
  97.2284662  76.9823627  66.2655077  97.4036418  76.5111670  67.0800699
  96.5417450  77.6089393  66.4936337  98.1841725  71.2596133  72.3118378
  97.8491558  71.2196903  73.2076028  97.6845671  70.5940849  71.8388788
 101.1200917  68.6052167  62.5855438 100.5030088  67.8798995  62.4888490
 100.6517406  69.3661527  62.2422512 102.7755049  73.3151076  80.2461218
 102.7167595  72.6310296  79.5791801 103.1774567  74.0570066  79.7941844
  91.7945748  80.1312989  73.0394937  92.0342346  80.7631514  73.7173955
  90.9514944  79.7801029  73.3260296  92.9099463  62.8237592  61.7076742
  92.0328929  62.7026392  61.3438989  93.3857216  62.0323670  61.4555631
 102.7772456  71.2790660  78.4775198 101.8899235  70.9416581  78.6001597
 103.3471007  70.5473691  78.7143963  96.3073609  75.9392112  75.4436441
  96.2343781  76.7447083  75.9555745  95.8651003  76.1384078  74.6184462
  96.0963389  75.1763882  68.9539262  95.3130911  75.7185562  69.0477487
  96.7956134  75.6937862  69.3533504  99.4060039  60.9858511  71.5973468
  99.9028739  60.2328474  71.2774538  98.6347021  61.0222828  71.0316677
 107.2589797  66.6898877  73.2391759 107.2479673  67.5723592  72.8685692
 106.3907176  66.3370428  73.0446296  98.7672293  75.8378946  77.5994600
  99.4800265  76.4726411  77.5270501  98.2762322  75.9342812  76.7834601
 100.4889820  69.7430199  69.1711891  99.5546099  69.8631661  69.0016596
 100.6666488  68.8402665  68.9071901  95.9895008  63.1275894  71.3245152
  95.6192795  62.5746935  72.0126058  96.4854100  62.5234028  70.7720152
 103.8762371  65.5847518  69.7061925 104.3422823  66.4175509  69.6322228
 104.3269872  65.1192499  70.4107184  93.8184206  73.5873389  78.4200170
  94.5193666  74.2209872  78.5729565  93.3479321  73.9288121  77.6595810
 101.9438602  71.9291339  66.7048077 102.2198446  71.8147934  67.6141951
 101.0743101  71.5308824  66.6660250 101.8479034  57.9528105  73.7452827
 100.9342114  58.1832332  73.9135034 102.2772135  58.0366549  74.5966859
 101.6185492  66.1417997  76.2452721 100.9656943  66.3893904  75.5905173
 101.9965872  65.3282135  75.9115198  98.5792666  76.1777690  70.3480891
  98.7615061  75.3599346  70.8108643  99.4025652  76.3945382  69.9105781
  98.9134832  75.1045875  67.6095939  99.4422598  74.5938330  66.9966102
  99.1763051  74.7888405  68.4741473  92.2690580  76.1560992  70.3693715
  91.6000955  76.6407119  69.8857755  92.1303449  76.4030212  71.2837094
  96.4095848  78.1904735  76.9676374  96.9614156  78.3536357  77.7325459
  96.7502042  78.7809173  76.2956399 101.2606723  73.0165993  82.8225028
 101.8046627  73.6295951  82.3279983 100.6793568  73.5745571  83.3392041
  87.6378157  64.4179447  67.1489648  87.9331598  63.5090125  67.0956701
  86.7366193  64.3967186  66.8270650  99.5464236  76.1386711  73.9540056
  99.4215375  75.3376451  73.4451001 100.2043327  76.6332904  73.4654026
 101.6099144  73.9395731  75.5819606 100.6629480  73.8201082  75.5097933
 101.9581917  73.0518229  75.6645867  89.3665998  62.0993544  67.2728973
  89.0378705  61.2190923  67.0904079  89.7205369  62.0441213  68.1605362
  98.6145577  73.7348447  71.7823958  98.4670540  72.8065155  71.9631528
  99.4399071  73.7568538  71.2981033  92.4807822  62.3866514  67.6404450
  92.8203894  62.9152435  66.9183059  92.9279942  62.7246920  68.4163017
 102.2179699  74.5577006  72.8688831 103.1426247  74.3519867  72.7313282
 102.0495003  74.3093407  73.7778173  95.1751262  60.7703565  77.0907518
  94.8348083  59.9711378  77.4928198  94.4690269  61.0705276  76.5184352
  95.8267734  57.8552877  75.5434841  96.6493804  57.3813356  75.4213732
  96.0705798  58.6343361  76.0433528  94.4675969  60.8841136  65.8397743
  95.1884331  61.2622389  65.3361460  93.8441273  61.6030013  65.9432721
  98.6107092  61.5886285  66.7756076  98.8270706  62.4710923  66.4744904
  98.1301159  61.1972498  66.0461717  95.2102696  61.5374546  73.4007710
  95.1964265  60.6415639  73.0640008  95.9275124  61.5445210  74.0345996
  97.0628827  61.9711886  75.4460837  96.8046604  62.8928957  75.4445168
  96.5313867  61.5742321  76.1361301 102.0075015  75.0762673  68.2250922
 102.1811893  74.5109096  67.4724775 102.5003907  75.8763568  68.0430412
  94.6139592  60.4188926  68.6695280  94.7355503  59.4905572  68.8686167
  94.3241634  60.4327612  67.7573595  97.4830782  58.1043837  71.8062000
  97.5052479  58.1683170  70.8513979  97.8998841  57.2648345  72.0002506
 107.8614407  67.8399096  69.8441222 108.3045553  67.0906421  69.4460345
 106.9840917  67.8309233  69.4614954 102.9950188  74.3929438  65.3247821
 103.6901092  75.0136130  65.5435135 103.3373338  73.5424789  65.6000199
 104.8941611  71.8429143  66.8535152 105.4192935  72.1816416  66.1284472
 104.8063964  70.9076159  66.6698286  96.5561660  75.7563217  78.9825028
  96.8648786  75.5112364  79.8547728  97.3537142  75.9609855  78.4943898
  96.5782272  77.9101127  71.2130405  96.1387262  77.4177505  71.9063261
  97.3290389  77.3674094  70.9722480  89.0574611  74.1012667  71.2155033
  89.8832631  73.8016439  70.8353676  88.7068663  73.3320290  71.6644821
  94.0256144  73.4539136  73.2852706  93.4036153  72.7909841  72.9854934
  94.6961011  73.4800268  72.6026354  87.2583216  72.0198994  72.1743966
  86.4215124  71.5921168  71.9927968  87.2306861  72.2131437  73.1114758
 104.5835517  72.4762047  82.1586349 103.7931061  72.4586186  81.6190849
 104.3468872  73.0150341  82.9135386 104.7033392  69.3254513  79.4719078
 104.7531397  69.1604521  80.4134601 104.5947315  68.4581772  79.0816959
  93.5869651  72.0043059  66.7611167  93.7357771  72.6878523  66.1077840
  94.3936094  71.9848149  67.2760623 101.9937154  65.3085441  80.7878385
 102.8947017  65.1691906  80.4962383 102.0685129  65.4739896  81.7276562
 106.2051589  71.7451455  79.7161100 105.9136397  72.1081435  80.5524561
 105.5923720  71.0318463  79.5374432 107.4047271  69.3104335  72.2363670
 108.2394163  69.7494139  72.4001230 107.5406400  68.8342988  71.4171916
 104.4538777  66.8684069  78.1841158 104.9292899  67.0611716  77.3760009
 103.5304343  66.9243255  77.9384541  91.3422284  68.0308237  67.7672236
  91.0968326  67.1270567  67.9652446  91.5118198  68.0325387  66.8251714
  99.0318994  58.9031913  77.1496991  99.5500937  59.6392940  76.8243480
  98.6774126  59.2095906  77.9843751  90.6117931  63.7636594  65.2658397
  89.9187176  63.8380949  64.6098433  90.3669683  62.9996938  65.7879914
  99.2831588  55.3232196  72.6697888  99.5633342  54.6555385  73.2958315
 100.0682195  55.5161291  72.1572552  97.0865056  74.4991189  64.2322914
  96.5139023  75.1181377  63.7793386  97.6597850  75.0490551  64.7662836
 103.1540446  63.7449829  76.4169463 104.1057869  63.8447927  76.4381687
 102.9843897  62.9528098  76.9267548 101.1754826  60.8305413  76.6028864
 100.5804758  61.1110425  75.9075353 100.8904522  61.3199314  77.3745605
 100.3062316  74.7828340  65.3631497 101.2392989  74.7173901  65.5664372
 100.2185529  75.6184606  64.9046029 102.9350333  74.0994210  62.3235444
 102.8563964  73.7654073  63.2171202 103.7560000  74.5915978  62.3226917
 105.6328524  66.9655949  75.5311763 105.6004844  66.0271950  75.7171447
 106.2429148  67.0439986  74.7977588  97.4711855  65.8352002  61.5738967
  98.4170960  65.7058210  61.6427385  97.0926100  65.0966664  62.0508395
 105.7823012  63.7566993  75.5770046 105.2662061  62.9725449  75.3899975
 106.6662961  63.4285709  75.7416565 103.4433739  57.5008008  71.5365859
 103.2458560  57.1923096  72.4209191 104.0533445  58.2269647  71.6663789
 111.4505074  68.0271956  74.6717800 112.1808462  67.7657244  75.2325503
 110.8412019  67.2900678  74.7119868 109.5320371  66.1679819  75.2692251
 108.8053534  66.0335784  74.6608742 109.1167658  66.4756647  76.0748969
  95.6554772  63.7601979  61.5093852  94.7486227  63.4635091  61.5856566
  95.9330753  63.4631797  60.6428138  97.2716838  58.3038868  67.6638093
  96.4617566  57.9585953  68.0393339  97.9601255  57.9946412  68.2525705
  99.2007386  57.3816915  69.2862390  99.7538425  57.8012368  69.9452413
  99.4377472  56.4552663  69.3285346  94.4253557  60.6188914  61.6505831
  95.2872721  60.9443812  61.9101649  94.6103901  59.8320410  61.1378897
 102.5786193  59.4917440  68.7941054 101.9984862  60.1502244  68.4119107
 102.3122126  58.6694785  68.3828472 101.0289759  58.8922498  70.9962375
 101.5289538  59.0039032  70.1876693 101.6725367  58.5883551  71.6363183
  88.3557715  68.6329507  71.8052035  88.3328403  68.7317194  70.8533918
  88.6658351  69.4794658  72.1269201  91.0145093  70.6905662  75.9198649
  91.9688346  70.6589605  75.8528581  90.8157616  70.2296286  76.7348875
 101.3611071  61.6517531  67.8497403 100.4736926  61.9367181  67.6317597
 101.7765060  61.4911294  67.0024679 104.7125607  61.6764052  71.5651742
 105.4885997  62.1660504  71.8376359 103.9873741  62.1022106  72.0223611
 107.1498166  62.3891671  72.6225682 107.7442657  62.1487407  71.9118991
 107.2224750  61.6698801  73.2499219  89.3695322  76.2325282  72.9368847
  89.2349789  75.4725683  72.3706845  88.9527384  76.9566182  72.4697636
 100.5054285  71.4162205  61.9445423 101.2090135  71.6212208  62.5603078
  99.7816933  71.9838967  62.2094506 101.3352095  67.1672067  68.0647693
 101.2787296  67.6240618  67.2255325 101.8880437  66.4062751  67.8870535
 105.1456901  62.9561798  68.8897812 104.8893835  62.5558434  69.7206020
 104.5209769  63.6705592  68.7647951 109.4569239  65.6957872  71.3969104
 108.8968797  65.7651061  72.1700666 108.8512742  65.5198856  70.6768600
  92.5264447  77.1294599  73.1487290  92.4096832  78.0740031  73.0465980
  91.7056894  76.8268160  73.5373089 102.4140982  71.8544734  63.9943883
 103.2486586  71.4225933  63.8121357 102.2525325  71.6826748  64.9220777
 102.0686874  68.3576848  65.3600222 102.0135678  68.1921119  64.4188666
 101.4432929  69.0652881  65.5162412  99.3832781  70.6625760  84.6853785
 100.2523941  70.8366412  84.3240420  98.9039533  71.4820176  84.5629514
  95.3783000  57.8584957  64.9385540  95.3661669  58.8026797  65.0953811
  96.2706421  57.6755102  64.6445001  93.5518962  77.7822861  76.3643218
  94.4546208  77.8146471  76.6809713  93.3256332  76.8523312  76.3789554
  95.3072564  76.5353847  73.0253297  94.3568195  76.5355709  72.9117669
  95.6105050  75.7886582  72.5089332  99.1935119  54.4527733  69.1931477
  98.4267515  53.8986220  69.3388159  99.6045824  54.5249602  70.0545629
 111.0425257  82.3714386  74.0899059 111.6803667  82.2521133  73.3862399
 110.9246100  83.3195230  74.1487011 107.8514963  82.3241814  74.0260584
 107.5133475  82.2082878  73.1381119 108.7204732  81.9232979  74.0061590
 103.7101779  84.1777290  70.0157475 103.1466644  84.0867227  69.2473763
 103.5954174  83.3577195  70.4959967 108.3334746  83.4776665  79.9846790
 108.3223387  83.0829464  79.1127293 108.4955386  82.7442738  80.5780561
 101.2566211  85.6728482  72.8541695 102.0487503  85.3319306  72.4387995
 101.4962861  85.7823457  73.7743849 109.2901338  87.8448258  65.3271940
 108.6389317  88.4302338  64.9405954 110.0845701  88.3754453  65.3866977
 103.2156965  84.9337395  65.7259074 103.9887841  84.3866382  65.5871950
 103.5682364  85.7981644  65.9373536 105.0542007  86.2613777  78.9325973
 104.7631873  87.1659408  78.8172640 105.6898992  86.3030305  79.6470043
 105.9798214  83.6390626  75.5227333 106.5761787  83.4146648  74.8084296
 106.0373186  82.8975371  76.1252781 105.5523243  81.0930061  63.3577524
 105.8048763  80.5711582  62.5960987 104.6147802  80.9296207  63.4604208
 110.5966526  80.0965839  71.1652267 111.3829615  79.6785263  70.8142684
 110.8605230  81.0011932  71.3333916 110.7676603  85.5338690  65.8640924
 110.1322436  85.6073316  66.5761829 110.4374009  86.1232289  65.1860003
 115.9974953  80.0341073  72.0685246 116.7300125  79.4640289  72.3023075
 115.2414308  79.6462673  72.5091751 105.2719531  82.9958167  65.5601899
 105.1555790  82.3203070  66.2282983 105.3821791  82.5090541  64.7434052
 107.6151072  82.4568314  69.2648588 107.2509280  81.9298935  69.9761510
 108.4718188  82.0666783  69.0915074 113.5200373  73.7462647  76.5279854
 113.1883698  74.6158058  76.3041069 112.9245986  73.4298931  77.2073885
 107.2556559  77.4858214  64.2609937 107.4230962  78.3538450  64.6280408
 107.0653728  77.6485496  63.3371226 110.0131893  85.9475193  75.9275767
 109.7132616  86.8500232  75.8191574 109.6682952  85.6807376  76.7796920
 103.4644374  82.3988990  71.9612472 102.5394870  82.2665204  72.1690163
 103.7128787  83.1783209  72.4582414 113.4129036  78.4657733  73.6073205
 112.5045914  78.3973141  73.3131965 113.3616632  78.9429678  74.4355030
 107.2345780  79.9415871  65.2456604 107.1145405  80.3872922  66.0842084
 106.5398369  80.2901189  64.6870142 100.8253185  82.0422263  72.7956261
 100.9545566  82.2956742  73.7095672 100.1450636  82.6349971  72.4760916
 104.9952672  92.7119513  68.8946735 104.9176702  93.6627338  68.9735215
 104.3914316  92.3665386  69.5521661 107.4869902  79.8847379  81.5508102
 106.7103236  80.4441299  81.5410966 108.1260465  80.3704161  82.0722972
 115.2790683  76.6674171  75.3851078 114.6365063  76.9606704  74.7390873
 114.7745611  76.5527092  76.1904275 112.9330846  80.4137345  66.0736938
 113.8448702  80.6464731  65.8984635 112.4240493  80.9974389  65.5112016
 105.7416274  82.6932832  81.1126069 106.4830959  83.2317876  80.8360892
 105.0353260  83.3199121  81.2697621 111.2171614  84.8361972  79.7098230
 111.6254970  84.3944383  78.9652863 110.4948876  84.2614600  79.9632423
 107.5702684  79.7734579  77.0831787 108.4163879  80.1973993  77.2266436
 107.5101322  79.1168203  77.7770350 111.5400429  85.3963163  73.4650519
 110.9109291  85.5608877  72.7626587 111.1526091  85.8104773  74.2361483
 115.4189661  86.3317601  70.8194883 114.7340699  86.7116502  70.2691916
 115.5033510  86.9412927  71.5526831 110.7202129  77.4338947  78.7412961
 110.4763061  78.1881008  78.2047237 110.9962060  77.8124295  79.5760208
 112.6740592  83.9777560  77.4190226 112.8857487  84.6209320  76.7424608
 112.6270340  83.1439876  76.9512157 110.2766821  76.5895380  74.3226799
 109.4151300  76.8876634  74.6143536 110.3029256  76.8065779  73.3907831
 107.0928391  85.1337571  70.7300604 107.5566736  85.4125274  69.9405227
 106.8285189  84.2321016  70.5473695 103.9852472  84.6809053  73.6680368
 104.5553829  85.1096321  73.0297852 104.5760583  84.3991637  74.3664553
 106.0297277  81.2560723  67.5390169 106.7321320  81.7081767  68.0064096
 105.6977905  80.6144542  68.1670063 104.4777638  79.8472480  81.9141379
 103.8476299  80.5288761  82.1476776 104.3713726  79.7355562  80.9694517
  99.7722611  79.5144276  72.8407303  98.9821665  79.7701805  72.3647414
 100.2633858  80.3292614  72.9459343 113.7886420  86.8549515  75.5912584
 114.6103864  86.4529703  75.3095265 113.7848823  86.7517749  76.5428700
 101.7237356  79.8788855  69.7990780 100.9268519  79.9907550  70.3174275
 101.4962948  80.2175508  68.9331670 107.5543024  86.4033559  77.7473294
 107.6187456  86.8653966  78.5831466 106.8453947  85.7730923  77.8755604
  98.0560314  79.7674767  75.2722294  98.3068352  80.6521776  75.5379870
  98.5919862  79.5879368  74.4997386 107.2691041  88.0701666  67.6152275
 107.1336716  88.9153202  68.0437122 107.8100854  88.2720944  66.8518208
 103.7558381  74.1493246  84.2766630 103.3625326  73.5959444  84.9514274
 104.5724521  74.4603824  84.6673147 100.7220439  85.5877104  68.1880200
 101.2344959  86.3820354  68.3385764 101.3743151  84.8903395  68.1213801
 102.5315323  88.7042860  70.2702953 102.7081952  89.6260825  70.0823937
 103.3272157  88.3901280  70.6997333 106.6726342  75.5651125  81.8686886
 107.4136055  76.1658278  81.7891349 106.9044265  74.8228763  81.3104929
 101.8167680  80.7507492  80.1465116 101.7021195  79.8492749  80.4472215
 100.9612198  80.9971189  79.7949933 108.8959518  88.6925233  81.7452617
 108.4523372  87.9061611  81.4273521 109.5576731  88.8804383  81.0796507
 103.6546639  90.2221034  76.2713295 104.2054064  90.0938098  75.4990289
 102.8158115  90.5215923  75.9208188 110.9940756  88.9728032  79.7734018
 110.9759231  89.7936914  79.2814287 111.9160676  88.8482108  79.9984159
 107.4513810  86.4872162  80.6157526 107.9842147  85.7260450  80.3856834
 106.9227891  86.1945814  81.3581681 110.6183505  71.5932228  76.1451168
 110.2747774  72.4833870  76.0690279 110.9862467  71.4033886  75.2820753
  98.6869355  83.9165758  68.9639770  99.5244577  84.3262767  68.7473478
  98.8647623  82.9765201  68.9339964 110.5833788  81.5840839  64.6523603
 110.0680411  82.3545444  64.8911991 110.3111096  80.9105975  65.2756665
 108.1680899  76.4290540  69.7108842 107.3122495  76.0397390  69.5314480
 108.5807850  76.5082501  68.8508627 109.6980045  73.9636883  74.1100401
 109.1944841  73.9267018  73.2968207 109.9910652  74.8729626  74.1697058
 105.9422931  74.0475613  73.1166583 106.8075928  73.8518421  72.7572473
 106.0100440  73.8185965  74.0435940 115.5568062  84.3373194  66.5876777
 114.7797504  83.9984353  66.1431939 116.2359543  84.3425817  65.9131742
 110.3720091  79.4567931  66.4783384 110.0670226  79.7714080  67.3293528
 111.3250533  79.5349351  66.5210717 108.8166523  85.6158154  68.1276338
 108.2887884  84.8810914  67.8149576 108.3154025  86.3932831  67.8816307
 113.7959369  83.8107175  73.2443385 113.1383043  84.5006436  73.3323513
 114.5999768  84.2003607  73.5877371 103.5485250  76.2777821  70.4882950
 104.1229002  76.0553002  69.7556143 104.1356233  76.3466515  71.2411551
 112.6064827  82.1651548  71.2947326 113.1196709  82.7981539  71.7969036
 113.2566051  81.5652743  70.9290686 103.8754837  78.3082282  64.5078835
 103.0392150  78.6456968  64.8288110 103.7359607  78.1731262  63.5705972
 105.8507918  73.1519070  69.2158019 105.1972330  72.8368087  68.5914634
 105.8088392  72.5294810  69.9417842 106.9619123  83.4338365  61.1311311
 106.0546184  83.2027618  61.3302460 107.4590155  82.6375984  61.3185293
 109.8687202  92.1435872  64.0507998 109.1948900  92.4467569  64.6592955
 110.2553024  92.9464952  63.7013455 109.0845658  79.6401003  73.5405667
 108.1668220  79.8615950  73.3827355 109.5005802  79.7147314  72.6817374
 109.8680706  81.0392419  68.6708347 110.6152525  81.5513816  68.3615469
 110.1372296  80.7176472  69.5312741 108.1407356  83.5350960  65.6535301
 107.2318575  83.2509992  65.7507771 108.1702440  83.9550038  64.7938608
 113.3726624  87.1457549  69.4226469 112.9188951  86.3048459  69.4791660
 112.7420590  87.7818947  69.7601249 112.3159543  78.0749535  70.6527136
 111.5782300  77.5626921  70.9837379 112.5686317  77.6349917  69.8410413
 111.8159563  88.9834046  70.3576287 112.1082537  89.5439103  69.6388653
 112.3258183  89.2762607  71.1129446 112.4171170  70.8525787  71.2468906
 112.7230047  69.9923151  70.9594821 113.1423775  71.4443407  71.0467900
  98.7095527  81.2556474  69.6350504  98.5119926  80.6625834  68.9101570
  98.1542191  80.9508684  70.3526442 106.6892250  81.1479580  71.7545097
 106.7440860  80.1953417  71.6787573 105.8783452  81.3039019  72.2386395
 107.8383444  85.0759703  62.9923380 107.4002874  84.3595562  62.5329017
 108.5793885  85.3035818  62.4308471 104.6284610  79.7656640  69.5135476
 103.8152476  80.0650810  69.9200668 105.1243604  79.3712329  70.2309958
 106.7793188  89.7614397  71.4469740 106.7369367  89.9875243  70.5178272
 107.6955887  89.5277771  71.5955542 110.2258822  80.2298464  78.3450370
 110.5808210  80.4569938  79.2044835 110.8730953  80.5616841  77.7227625
 115.9556559  83.3516900  69.0499699 115.8174457  83.5418496  68.1220888
 115.5992778  84.1136283  69.5067750 104.1198685  77.3374995  75.1296711
 104.7598064  77.1963755  74.4319674 103.2876215  77.0509509  74.7535313
 115.9825938  85.4193427  74.0610970 116.4162445  85.3268716  74.9094024
 116.6957519  85.3950928  73.4230986 104.8958989  86.6377426  71.2431703
 105.6899587  86.1427746  71.0414278 104.1850681  86.1095289  70.8799409
 109.7153833  89.0195521  75.5944071 109.7690856  89.5886458  76.3621787
 108.8468615  89.1897406  75.2298108 101.2041752  80.7820508  67.3191456
 100.2739340  80.7204963  67.5361418 101.2999224  80.2596460  66.5228097
 101.1227301  77.3075320  69.9069697 101.3834119  78.2220654  69.7978858
 101.9444474  76.8399763  70.0566310 102.5952227  78.7213078  77.0768522
 103.2675280  78.5130440  76.4281171 101.7682013  78.5235164  76.6373754
 116.8441488  85.4617128  76.5943856 117.0377378  86.3662938  76.8403130
 116.7442106  85.0024547  77.4282441 108.4977799  75.3475019  79.0934183
 107.8505714  76.0464968  78.9998659 109.2678814  75.7811162  79.4610431
 111.9056597  85.6123871  82.1684736 111.7542103  85.3834422  81.2514820
 111.8961276  86.5694472  82.1816081 108.6741933  83.1855783  77.1531003
 109.6033993  83.3366943  76.9799970 108.2532963  83.2739804  76.2979649
 107.4730265  87.2106448  74.9229540 107.3341350  86.8425232  75.7955478
 106.6844861  87.7254087  74.7513498 108.0678417  92.3115544  66.2655077
 108.2430172  91.8403588  67.0800699 107.3811205  92.9381311  66.4936337
 109.0235480  86.5888051  72.3118378 108.6885313  86.5488821  73.2076028
 108.5239426  85.9232766  71.8388788 102.9979724  81.9955681  77.8370959
 102.8599522  81.2635919  78.4382498 103.9084647  81.9064581  77.5555147
 111.9594672  83.9344085  62.5855438 111.3423842  83.2090913  62.4888490
 111.4911160  84.6953445  62.2422512 105.6262025  81.7075640  77.3254639
 106.3361643  81.0668832  77.2841257 105.5831333  81.9588535  78.2480820
 113.6148803  88.6442993  80.2461218 113.5561349  87.9602213  79.5791801
 114.0168322  89.3861983  79.7941844 104.3390959  78.6940858  79.1450278
 103.8028316  78.2431596  79.7971875 103.7507667  78.8286767  78.4020743
 102.6339502  95.4604907  73.0394937 102.8736100  96.0923431  73.7173955
 101.7908699  95.1092947  73.3260296 103.7493217  78.1529509  61.7076742
 102.8722684  78.0318310  61.3438989 104.2250971  77.3615587  61.4555631
 113.6166211  86.6082577  78.4775198 112.7292989  86.2708499  78.6001597
 114.1864762  85.8765608  78.7143963  95.2695358  82.9406669  71.8018249
  95.9566397  82.6268399  71.2139264  95.1143486  83.8448034  71.5285500
 100.0730080  77.8296865  76.2303273  99.9888269  77.2222535  75.4953683
  99.2512786  78.3205884  76.2312769 107.1467364  91.2684030  75.4436441
 107.0737535  92.0739001  75.9555745 106.7044757  91.4675995  74.6184462
 106.9357144  90.5055800  68.9539262 106.1524665  91.0477480  69.0477487
 107.6349889  91.0229779  69.3533504 110.2453794  76.3150429  71.5973468
 110.7422493  75.5620391  71.2774538 109.4740775  76.3514746  71.0316677
 118.0983551  82.0190795  73.2391759 118.0873427  82.9015510  72.8685692
 117.2300930  81.6662345  73.0446296 109.6066047  91.1670864  77.5994600
 110.3194020  91.8018328  77.5270501 109.1156076  91.2634730  76.7834601
 111.3283574  85.0722116  69.1711891 110.3939853  85.1923579  69.0016596
 111.5060243  84.1694583  68.9071901 106.8288762  78.4567812  71.3245152
 106.4586550  77.9038852  72.0126058 107.3247855  77.8525945  70.7720152
 114.7156126  80.9139436  69.7061925 115.1816578  81.7467427  69.6322228
 115.1663626  80.4484417  70.4107184 104.6577961  88.9165307  78.4200170
 105.3587420  89.5501790  78.5729565 104.1873076  89.2580039  77.6595810
 112.7832357  87.2583257  66.7048077 113.0592201  87.1439851  67.6141951
 111.9136856  86.8600742  66.6660250 112.6872788  73.2820023  73.7452827
 111.7735868  73.5124249  73.9135034 113.1165890  73.3658467  74.5966859
 112.4579247  81.4709914  76.2452721 111.8050697  81.7185822  75.5905173
 112.8359627  80.6574053  75.9115198 109.4186421  91.5069608  70.3480891
 109.6008815  90.6891264  70.8108643 110.2419407  91.7237300  69.9105781
 109.7528586  90.4337793  67.6095939 110.2816353  89.9230247  66.9966102
 110.0156806  90.1180323  68.4741473 108.5066820  82.2129726  82.7318758
 107.8307457  82.1123855  83.4021133 109.3294454  82.0568939  83.1954755
 100.2545679  88.4501662  75.3531273 100.8399116  87.7045350  75.4859177
 100.0570517  88.7605619  76.2367937 103.1084334  91.4852909  70.3693715
 102.4394710  91.9699037  69.8857755 102.9697204  91.7322130  71.2837094
  94.8463334  81.0207262  74.0735716  94.8847433  80.4870853  74.8672834
  94.3403627  80.4942468  73.4546693 107.2489603  93.5196653  76.9676374
 107.8007911  93.6828274  77.7325459 107.5895796  94.1101091  76.2956399
 102.2254096  75.8671803  77.5698258 102.2895423  76.7286634  77.1575656
 102.1621216  75.2545804  76.8370617 101.7006369  77.9394935  81.2171293
 102.3278407  77.5572013  81.8308817 100.8434287  77.7209137  81.5826985
 112.1000477  88.3457910  82.8225028 112.6440381  88.9587869  82.3279983
 111.5187322  88.9037489  83.3392041  98.4771911  79.7471364  67.1489648
  98.7725352  78.8382043  67.0956701  97.5759947  79.7259104  66.8270650
 110.3857990  91.4678629  73.9540056 110.2609130  90.6668368  73.4451001
 111.0437081  91.9624822  73.4654026 102.0066158  77.8227361  73.1317196
 101.2852744  78.4363329  72.9924669 102.7959414  78.3585126  73.0533842
 112.4492898  89.2687649  75.5819606 111.5023234  89.1493000  75.5097933
 112.7975672  88.3810147  75.6645867 104.8092472  75.1581788  79.4057848
 105.3326874  75.4044084  80.1684157 104.5904805  75.9901822  78.9860985
 100.2059753  77.4285462  67.2728973  99.8772459  76.5482841  67.0904079
 100.5599124  77.3733131  68.1605362 109.4539332  89.0640365  71.7823958
 109.3064294  88.1357072  71.9631528 110.2792825  89.0860456  71.2981033
 103.3201576  77.7158432  67.6404450 103.6597649  78.2444353  66.9183059
 103.7673697  78.0538838  68.4163017 113.0573454  89.8868924  72.8688831
 113.9820001  89.6811785  72.7313282 112.8888757  89.6385325  73.7778173
 106.0145017  76.0995483  77.0907518 105.6741837  75.3003296  77.4928198
 105.3084023  76.3997193  76.5184352 106.6661489  73.1844795  75.5434841
 107.4887558  72.7105273  75.4213732 106.9099552  73.9635279  76.0433528
 105.3069723  76.2133053  65.8397743 106.0278086  76.5914306  65.3361460
 104.6835027  76.9321930  65.9432721 109.4500846  76.9178202  66.7756076
 109.6664460  77.8002840  66.4744904 108.9694913  76.5264416  66.0461717
 104.1900067  79.8763916  73.3526820 104.0444648  80.1904219  74.2451102
 103.7125271  80.4948816  72.7997719 106.0496450  76.8666464  73.4007710
 106.0358019  75.9707557  73.0640008 106.7668878  76.8737127  74.0345996
 107.9022581  77.3003804  75.4460837 107.6440359  78.2220875  75.4445168
 107.3707621  76.9034238  76.1361301 112.8468770  90.4054591  68.2250922
 113.0205647  89.8401013  67.4724775 113.3397661  91.2055486  68.0430412
  98.6645730  82.4169260  76.2914481  98.1199198  83.1929068  76.4234756
  99.5425080  82.7640065  76.1333603 105.4533346  75.7480844  68.6695280
 105.5749257  74.8197490  68.8686167 105.1635389  75.7619530  67.7573595
 108.3224537  73.4335754  71.8062000 108.3446234  73.4975087  70.8513979
 108.7392596  72.5940263  72.0002506 113.8343942  89.7221355  65.3247821
 114.5294847  90.3428048  65.5435135 114.1767092  88.8716707  65.6000199
  99.4511752  81.5439156  79.1844638  98.7093488  81.6921792  79.7709269
  99.1304496  81.8047422  78.3211388 115.7335365  87.1721061  66.8535152
 116.2586690  87.5108334  66.1284472 115.6457718  86.2368076  66.6698286
 107.3955414  91.0855135  78.9825028 107.7042541  90.8404281  79.8547728
 108.1930896  91.2901773  78.4943898 107.4176026  93.2393044  71.2130405
 106.9781016  92.7469423  71.9063261 108.1684143  92.6966012  70.9722480
  99.8968365  89.4304585  71.2155033 100.7226385  89.1308357  70.8353676
  99.5462417  88.6612207  71.6644821 104.8649898  88.7831053  73.2852706
 104.2429908  88.1201758  72.9854934 105.5354765  88.8092185  72.6026354
  98.0976970  87.3490912  72.1743966  97.2608879  86.9213086  71.9927968
  98.0700616  87.5423355  73.1114758 104.9374426  77.2612841  82.8785212
 104.9862581  78.1374964  82.4962982 105.4796940  76.7190234  82.3056856
 115.4229272  87.8053965  82.1586349 114.6324815  87.7878103  81.6190849
 115.1862626  88.3442258  82.9135386 115.5427147  84.6546431  79.4719078
 115.5925151  84.4896438  80.4134601 115.4341070  83.7873690  79.0816959
 104.4263405  87.3334977  66.7611167 104.5751526  88.0170441  66.1077840
 105.2329849  87.3140067  67.2760623 112.8330909  80.6377359  80.7878385
 113.7340772  80.4983824  80.4962383 112.9078883  80.8031814  81.7276562
 107.1673714  78.0144214  79.6331571 106.2977024  78.3077780  79.3614160
 107.4033195  78.5984659  80.3538835 117.0445343  87.0743372  79.7161100
 116.7530152  87.4373353  80.5524561 116.4317475  86.3610381  79.5374432
 115.2932532  82.1975987  78.1841158 115.7686653  82.3903633  77.3760009
 114.3698097  82.2535173  77.9384541 102.1816038  83.3600154  67.7672236
 101.9362080  82.4562484  67.9652446 102.3511953  83.3617305  66.8251714
 109.8712748  74.2323831  77.1496991 110.3894692  74.9684858  76.8243480
 109.5167881  74.5387824  77.9843751 101.4511686  79.0928512  65.2658397
 100.7580931  79.1672867  64.6098433 101.2063438  78.3288855  65.7879914
 110.1225342  70.6524113  72.6697888 110.4027096  69.9847302  73.2958315
 110.9075949  70.8453209  72.1572552 107.9258811  89.8283107  64.2322914
 107.3532778  90.4473294  63.7793386 108.4991604  90.3782469  64.7662836
 113.9934201  79.0741747  76.4169463 114.9451624  79.1739845  76.4381687
 113.8237651  78.2820016  76.9267548 112.0148580  76.1597330  76.6028864
 111.4198512  76.4402343  75.9075353 111.7298277  76.6491231  77.3745605
 111.1456071  90.1120257  65.3631497 112.0786744  90.0465819  65.5664372
 111.0579283  90.9476524  64.9046029 113.7744087  89.4286128  62.3235444
 113.6957719  89.0945991  63.2171202 114.5953754  89.9207895  62.3226917
 116.4722278  82.2947867  75.5311763 116.4398599  81.3563868  75.7171447
 117.0822902  82.3731904  74.7977588 108.3105609  81.1643920  61.5738967
 109.2564714  81.0350128  61.6427385 107.9319854  80.4258582  62.0508395
 116.6216767  79.0858910  75.5770046 116.1055816  78.3017367  75.3899975
 117.5056715  78.7577627  75.7416565 114.2827494  72.8299926  71.5365859
 114.0852315  72.5215014  72.4209191 114.8927199  73.5561565  71.6663789
 108.1944302  85.2161666  83.0339624 109.1147311  85.3940265  83.2279670
 108.1593885  84.2717711  82.8819323 106.4948526  79.0893896  61.5093852
 105.5879982  78.7927009  61.5856566 106.7724507  78.7923714  60.6428138
  97.4126467  80.4100260  71.9592898  97.0929251  79.5565568  71.6667272
  96.8659895  80.6248838  72.7150866 101.1906374  83.1262701  75.6762405
 101.4092384  84.0579808  75.6950439 101.6032148  82.7670675  76.4617209
 108.1110592  73.6330786  67.6638093 107.3011320  73.2877871  68.0393339
 108.7995009  73.3238330  68.2525705 110.0401140  72.7108833  69.2862390
 110.5932179  73.1304286  69.9452413 110.2771227  71.7844581  69.3285346
 106.0634240  78.6995906  85.0665154 105.9630967  79.6490263  84.9977245
 105.8455782  78.3714145  84.1941224 105.2647311  75.9480831  61.6505831
 106.1266475  76.2735730  61.9101649 105.4497655  75.1612327  61.1378897
  97.2814727  84.0303171  73.9286020  96.5878198  83.6157124  73.4155974
  98.0287718  84.0723708  73.3319439 113.4179948  74.8209358  68.7941054
 112.8378617  75.4794162  68.4119107 113.1515880  73.9986702  68.3828472
 111.8683514  74.2214416  70.9962375 112.3683292  74.3330950  70.1876693
 112.5119122  73.9175468  71.6363183 105.9265510  82.1293045  83.8830216
 105.4432591  82.9293405  84.0894105 106.0126449  82.1400990  82.9297660
  99.1951469  83.9621425  71.8052035  99.1722157  84.0609112  70.8533918
  99.5052106  84.8086576  72.1269201 101.8538847  86.0197580  75.9198649
 102.8082101  85.9881522  75.8528581 101.6551371  85.5588204  76.7348875
 102.4438229  84.5898696  78.4869447 103.2631118  85.0842775  78.5104284
 102.7175037  83.6730664  78.4587015 112.2004826  76.9809448  67.8497403
 111.3130681  77.2659099  67.6317597 112.6158815  76.8203212  67.0024679
 115.5519362  77.0055969  71.5651742 116.3279752  77.4952422  71.8376359
 114.8267496  77.4314023  72.0223611 100.2089076  91.5617199  72.9368847
 100.0743544  90.8017600  72.3706845  99.7921138  92.2858099  72.4697636
 111.3448039  86.7454123  61.9445423 112.0483889  86.9504125  62.5603078
 110.6210688  87.3130885  62.2094506 112.1745849  82.4963984  68.0647693
 112.1181051  82.9532536  67.2255325 112.7274192  81.7354669  67.8870535
 115.9850655  78.2853716  68.8897812 115.7287589  77.8850352  69.7206020
 115.3603523  78.9997510  68.7647951 103.3658202  92.4586516  73.1487290
 103.2490586  93.4031949  73.0465980 102.5450648  92.1560078  73.5373089
 113.2534736  87.1836652  63.9943883 114.0880340  86.7517851  63.8121357
 113.0919079  87.0118666  64.9220777 112.9080629  83.6868765  65.3600222
 112.8529432  83.5213037  64.4188666 112.2826684  84.3944798  65.5162412
  97.6973144  78.9236830  79.1861644  98.3432007  78.4135784  79.6748869
  97.4890295  79.6605511  79.7605069 110.2226536  85.9917677  84.6853785
 111.0917695  86.1658330  84.3240420 109.7433287  86.8112094  84.5629514
 106.2176754  73.1876874  64.9385540 106.2055424  74.1318714  65.0953811
 107.1100176  73.0047020  64.6445001 104.3912716  93.1114778  76.3643218
 105.2939963  93.1438389  76.6809713 104.1650086  92.1815229  76.3789554
 106.1466318  91.8645765  73.0253297 105.1961949  91.8647626  72.9117669
 106.4498804  91.1178499  72.5089332 110.0328874  69.7819651  69.1931477
 109.2661269  69.2278138  69.3388159 110.4439578  69.8541520  70.0545629
 102.0370635  76.0704447  83.2836658 102.9002096  75.7141252  83.4939983
 101.4636045  75.7318342  83.9712063 114.5495533  99.5069208  70.0157475
 113.9860399  99.4159145  69.2473763 114.4347929  98.6869112  70.4959967
 112.0959965 101.0020399  72.8541695 112.8881257 100.6611224  72.4387995
 112.3356616 101.1115374  73.7743849 114.0550719 100.2629313  65.7259074
 114.8281595  99.7158300  65.5871950 114.4076118 101.1273562  65.9373536
 115.8935762 101.5905695  78.9325973 115.6025628 102.4951326  78.8172640
 116.5292746 101.6322223  79.6470043 116.8191969  98.9682543  75.5227333
 117.4155541  98.7438566  74.8084296 116.8766940  98.2267289  76.1252781
 116.3916997  96.4221979  63.3577524 116.6442518  95.9003500  62.5960987
 115.4541556  96.2588124  63.4604208 116.1113286  98.3250085  65.5601899
 115.9949544  97.6494988  66.2282983 116.2215546  97.8382459  64.7434052
 118.0950314  92.8150132  64.2609937 118.2624716  93.6830368  64.6280408
 117.9047483  92.9777413  63.3371226 114.3038128  97.7280907  71.9612472
 113.3788625  97.5957121  72.1690163 114.5522542  98.5075126  72.4582414
 118.0739535  95.2707789  65.2456604 117.9539160  95.7164840  66.0842084
 117.3792123  95.6193107  64.6870142 111.6646940  97.3714181  72.7956261
 111.7939321  97.6248660  73.7095672 110.9844391  97.9641889  72.4760916
 116.5810029  98.0224750  81.1126069 117.3224713  98.5609794  80.8360892
 115.8747014  98.6491038  81.2697621 114.8246226 100.0100970  73.6680368
 115.3947583 100.4388239  73.0297852 115.4154338  99.7283555  74.3664553
 116.8691031  96.5852641  67.5390169 117.5715074  97.0373685  68.0064096
 116.5371660  95.9436460  68.1670063 115.3171393  95.1764398  81.9141379
 114.6870053  95.8580679  82.1476776 115.2107481  95.0647479  80.9694517
 110.6116365  94.8436194  72.8407303 109.8215419  95.0993722  72.3647414
 111.1027612  95.6584532  72.9459343 112.5631110  95.2080773  69.7990780
 111.7662274  95.3199467  70.3174275 112.3356703  95.5467425  68.9331670
 108.8954068  95.0966684  75.2722294 109.1462106  95.9813694  75.5379870
 109.4313616  94.9171286  74.4997386 114.5952135  89.4785164  84.2766630
 114.2019081  88.9251362  84.9514274 115.4118276  89.7895742  84.6673147
 111.5614193 100.9169022  68.1880200 112.0738714 101.7112272  68.3385764
 112.2136906 100.2195312  68.1213801 117.5120096  90.8943043  81.8686886
 118.2529810  91.4950196  81.7891349 117.7438019  90.1520680  81.3104929
 112.6561434  96.0799410  80.1465116 112.5414950  95.1784667  80.4472215
 111.8005952  96.3263107  79.7949933 109.5263110  99.2457676  68.9639770
 110.3638332  99.6554684  68.7473478 109.7041378  98.3057118  68.9339964
 116.7816686  89.3767530  73.1166583 117.6469682  89.1810339  72.7572473
 116.8494194  89.1477882  74.0435940 114.3879005  91.6069738  70.4882950
 114.9622757  91.3844920  69.7556143 114.9749987  91.6758433  71.2411551
 114.7148592  93.6374199  64.5078835 113.8785904  93.9748886  64.8288110
 114.5753361  93.5023179  63.5705972 116.6901672  88.4810987  69.2158019
 116.0366085  88.1660004  68.5914634 116.6482147  87.8586728  69.9417842
 109.5489281  96.5848391  69.6350504 109.3513681  95.9917752  68.9101570
 108.9935945  96.2800602  70.3526442 117.5286005  96.4771498  71.7545097
 117.5834614  95.5245334  71.6787573 116.7177207  96.6330937  72.2386395
 115.4678365  95.0948558  69.5135476 114.6546230  95.3942728  69.9200668
 115.9637359  94.7004246  70.2309958 114.9592439  92.6666913  75.1296711
 115.5991819  92.5255672  74.4319674 114.1269970  92.3801427  74.7535313
 115.7352743 101.9669344  71.2431703 116.5293342 101.4719664  71.0414278
 115.0244436 101.4387207  70.8799409 112.0435507  96.1112425  67.3191456
 111.1133095  96.0496881  67.5361418 112.1392979  95.5888378  66.5228097
 111.9621056  92.6367238  69.9069697 112.2227873  93.5512571  69.7978858
 112.7838228  92.1691681  70.0566310 113.4345981  94.0504995  77.0768522
 114.1069035  93.8422357  76.4281171 112.6075768  93.8527081  76.6373754
 113.8373478  97.3247598  77.8370959 113.6993276  96.5927837  78.4382498
 114.7478402  97.2356498  77.5555147 116.4655779  97.0367558  77.3254639
 117.1755398  96.3960750  77.2841257 116.4225087  97.2880452  78.2480820
 115.1784713  94.0232775  79.1450278 114.6422070  93.5723514  79.7971875
 114.5901421  94.1578684  78.4020743 114.5886972  93.4821427  61.7076742
 113.7116438  93.3610228  61.3438989 115.0644725  92.6907505  61.4555631
 106.1089112  98.2698587  71.8018249 106.7960152  97.9560317  71.2139264
 105.9537241  99.1739951  71.5285500 110.9123834  93.1588783  76.2303273
 110.8282023  92.5514453  75.4953683 110.0906541  93.6497801  76.2312769
 117.6682517  93.7859730  71.3245152 117.2980304  93.2330770  72.0126058
 118.1641609  93.1817863  70.7720152 111.0939434 103.7793580  75.3531273
 111.6792870 103.0337268  75.4859177 110.8964272 104.0897536  76.2367937
 105.6857088  96.3499180  74.0735716 105.7241188  95.8162771  74.8672834
 105.1797381  95.8234385  73.4546693 113.0647851  91.1963720  77.5698258
 113.1289177  92.0578551  77.1575656 113.0014971  90.5837722  76.8370617
 112.5400123  93.2686853  81.2171293 113.1672162  92.8863930  81.8308817
 111.6828042  93.0501055  81.5826985 109.3165666  95.0763282  67.1489648
 109.6119107  94.1673961  67.0956701 108.4153702  95.0551022  66.8270650
 112.8459913  93.1519279  73.1317196 112.1246499  93.7655246  72.9924669
 113.6353169  93.6877044  73.0533842 115.6486226  90.4873705  79.4057848
 116.1720628  90.7336002  80.1684157 115.4298560  91.3193740  78.9860985
 111.0453507  92.7577380  67.2728973 110.7166214  91.8774759  67.0904079
 111.3992878  92.7025048  68.1605362 114.1595331  93.0450350  67.6404450
 114.4991403  93.5736271  66.9183059 114.6067451  93.3830756  68.4163017
 116.8538771  91.4287400  77.0907518 116.5135592  90.6295213  77.4928198
 116.1477778  91.7289111  76.5184352 116.1463478  91.5424971  65.8397743
 116.8671840  91.9206224  65.3361460 115.5228782  92.2613848  65.9432721
 115.0293822  95.2055833  73.3526820 114.8838403  95.5196136  74.2451102
 114.5519026  95.8240734  72.7997719 116.8890205  92.1958381  73.4007710
 116.8751774  91.2999475  73.0640008 117.6062633  92.2029045  74.0345996
 109.5039484  97.7461178  76.2914481 108.9592952  98.5220986  76.4234756
 110.3818834  98.0931982  76.1333603 116.2927101  91.0772762  68.6695280
 116.4143012  90.1489408  68.8686167 116.0029143  91.0911448  67.7573595
 110.2905506  96.8731074  79.1844638 109.5487242  97.0213709  79.7709269
 109.9698250  97.1339340  78.3211388 110.7362120 104.7596503  71.2155033
 111.5620140 104.4600275  70.8353676 110.3856172 103.9904125  71.6644821
 108.9370725 102.6782829  72.1743966 108.1002633 102.2505004  71.9927968
 108.9094370 102.8715273  73.1114758 115.7768180  92.5904759  82.8785212
 115.8256336  93.4666882  82.4962982 116.3190695  92.0482152  82.3056856
 118.0067469  93.3436131  79.6331571 117.1370778  93.6369697  79.3614160
 118.2426949  93.9276576  80.3538835 113.0209793  98.6892072  67.7672236
 112.7755835  97.7854402  67.9652446 113.1905707  98.6909222  66.8251714
 112.2905440  94.4220430  65.2658397 111.5974685  94.4964785  64.6098433
 112.0457192  93.6580773  65.7879914 117.3342281  94.4185814  61.5093852
 116.4273736  94.1218927  61.5856566 117.6118262  94.1215632  60.6428138
 108.2520221  95.7392177  71.9592898 107.9323006  94.8857485  71.6667272
 107.7053649  95.9540755  72.7150866 112.0300129  98.4554618  75.6762405
 112.2486139  99.3871726  75.6950439 112.4425903  98.0962593  76.4617209
 116.9027994  94.0287824  85.0665154 116.8024721  94.9782181  84.9977245
 116.6849536  93.7006063  84.1941224 116.1041066  91.2772749  61.6505831
 116.9660230  91.6027647  61.9101649 116.2891410  90.4904245  61.1378897
 108.1208481  99.3595089  73.9286020 107.4271953  98.9449042  73.4155974
 108.8681472  99.4015625  73.3319439 116.7659264  97.4584963  83.8830216
 116.2826346  98.2585323  84.0894105 116.8520203  97.4692908  82.9297660
 110.0345224  99.2913343  71.8052035 110.0115912  99.3901030  70.8533918
 110.3445860 100.1378493  72.1269201 112.6932602 101.3489498  75.9198649
 113.6475855 101.3173440  75.8528581 112.4945125 100.8880121  76.7348875
 113.2831984  99.9190614  78.4869447 114.1024873 100.4134692  78.5104284
 113.5568792  99.0022582  78.4587015 108.5366898  94.2528748  79.1861644
 109.1825762  93.7427701  79.6748869 108.3284049  94.9897429  79.7605069
 117.0570509  88.5168792  64.9385540 117.0449178  89.4610632  65.0953811
 117.9493930  88.3338938  64.6445001 112.8764389  91.3996365  83.2836658
 113.7395851  91.0433169  83.4939983 112.3029800  91.0610259  83.9712063
  48.4370731  -4.1792559  59.7640244  48.6767329  -3.5474035  60.4419262
  47.5939927  -4.5304519  60.0505603  60.3526762  -0.1328258  56.7402782
  59.7891627  -0.2238321  55.9719069  60.2379157  -0.9528354  57.2205274
  57.8991194   1.3622934  59.5787002  58.6912486   1.0213758  59.1633301
  58.1387844   1.4717909  60.4989155  65.9326321   3.5342710  52.0517247
  65.2814301   4.1196790  51.6651260  66.7270684   4.0648905  52.1112284
  59.8581948   0.6231847  52.4504381  60.6312824   0.0760834  52.3117257
  60.2107347   1.4876096  52.6618842  61.6966991   1.9508229  65.6571280
  61.4056857   2.8553860  65.5417946  62.3323975   1.9924757  66.3715350
  62.6223198  -0.6714922  62.2472640  63.2186770  -0.8958900  61.5329603
  62.6798169  -1.4130177  62.8498088  67.4101586   1.2233142  52.5886231
  66.7747419   1.2967768  53.3007135  67.0798993   1.8126740  51.9105310
  61.9144515  -1.3147381  52.2847206  61.7980773  -1.9902478  52.9528290
  62.0246775  -1.8015007  51.4679359  66.6556876   1.6369645  62.6521074
  66.3557599   2.5394683  62.5436881  66.3107935   1.3701828  63.5042227
  60.1069357  -1.9116559  58.6857778  59.1819854  -2.0440344  58.8935470
  60.3553771  -1.1322339  59.1827721  57.4678168  -2.2683285  59.5201567
  57.5970550  -2.0148806  60.4340979  56.7875620  -1.6755577  59.2006222
  61.6377656   8.4013965  55.6192042  61.5601685   9.3521790  55.6980522
  61.0339299   8.0559837  56.2766968  62.3841258  -1.6172716  67.8371375
  63.1255942  -1.0787672  67.5606199  61.6778243  -0.9906427  67.9942927
  68.1825412   1.0857615  60.1895826  67.5534274   1.2503329  59.4871894
  67.7951074   1.4999224  60.9606790  72.0614644   2.0212053  57.5440190
  71.3765682   2.4010954  56.9937223  72.1458493   2.6307379  58.2772137
  63.7353374   0.8232023  57.4545911  64.1991719   1.1019726  56.6650533
  63.4710172  -0.0784532  57.2719002  60.6277455   0.3703504  60.3925674
  61.1978812   0.7990773  59.7543159  61.2185567   0.0886089  61.0909860
  70.4311403   2.5443967  62.3157890  71.2528847   2.1424154  62.0340572
  70.4273806   2.4412201  63.2674006  64.1968007   2.0928010  64.4718601
  64.2612439   2.5548418  65.3076773  63.4878931   1.4625375  64.6000911
  63.9116025   3.7596118  54.3397581  63.7761699   4.6047654  54.7682429
  64.4525837   3.9615396  53.5763515  57.3645422   1.2771556  54.9125506
  57.8769942   2.0714806  55.0631071  58.0168135   0.5797846  54.8459108
  59.1740307   4.3937312  56.9948260  59.3506935   5.3155277  56.8069243
  59.9697140   4.0795731  57.4242639  65.5384501   4.3819684  68.4697923
  65.0948355   3.5956063  68.1518828  66.2001715   4.5698835  67.8041814
  60.2971622   5.9115486  62.9958602  60.8479047   5.7832549  62.2235596
  59.4583098   6.2110375  62.6453495  67.6365739   4.6622484  66.4979325
  67.6184214   5.4831365  66.0059594  68.5585659   4.5376560  66.7229466
  64.0938793   2.1766614  67.3402833  64.6267130   1.4154902  67.1102141
  63.5652874   1.8840266  68.0826987  55.3294339  -0.3939790  55.6885077
  56.1669561   0.0157219  55.4718785  55.5072606  -1.3340348  55.6585271
  65.4591506   1.3052606  54.8521645  64.9312867   0.5705366  54.5394882
  64.9579009   2.0827283  54.6061613  66.5112185   7.8330324  50.7753304
  65.8373884   8.1362021  51.3838262  66.8978007   8.6359404  50.4258761
  64.7832339  -0.7754589  52.3780608  63.8743559  -1.0595556  52.4753078
  64.8127423  -0.3555510  51.5183915  70.0151607   2.8352001  56.1471776
  69.5613934   1.9942911  56.2036966  69.3845574   3.4713399  56.4846556
  68.4584546   4.6728498  57.0821594  68.7507520   5.2333555  56.3633959
  68.9683167   4.9657059  57.8374753  55.3520510  -3.0549074  56.3595810
  55.1544910  -3.6479714  55.6346877  54.7967174  -3.3596864  57.0771749
  64.4808427   0.7654155  49.7168687  64.0427857   0.0490014  49.2574324
  65.2218868   0.9930270  49.1553778  63.4218171   5.4508849  58.1715047
  63.3794350   5.6769695  57.2423579  64.3380870   5.2172223  58.3200848
  61.5383972   2.3271878  57.9677010  62.3324571   1.8322198  57.7659585
  60.8275664   1.7989741  57.6044715  66.3578817   4.7089973  62.3189377
  66.4115839   5.2780910  63.0867093  65.4893598   4.8791858  61.9543415
  68.5481580   1.3018323  68.8930043  68.3967086   1.0728874  67.9760126
  68.5386259   2.2588924  68.9061388  64.1155248   2.9000900  61.6474847
  63.9766334   2.5319684  62.5200785  63.3269844   3.4148539  61.4758805
  64.7103400   8.0009996  52.9900383  64.8855156   7.5298039  53.8046006
  64.0236188   8.6275762  53.2181644  65.6660463   2.2782502  59.0363685
  65.3310296   2.2383272  59.9321335  65.1664409   1.6127218  58.5634095
  70.2573787   4.3337445  66.9706525  70.1986333   3.6496665  66.3037108
  70.6593305   5.0756435  66.5187151  59.2764485  11.1499359  59.7640244
  59.5161084  11.7817883  60.4419262  58.4333682  10.7987399  60.0505603
  70.2591194   2.2977029  65.2020504  69.3717973   1.9602951  65.3246903
  70.8289745   1.5660060  65.4389270  51.9120341  -1.3698879  58.5263556
  52.5991381  -1.6837149  57.9384571  51.7568470  -0.4657515  58.2530807
  63.7892347   6.9578481  62.1681748  63.7162519   7.7633453  62.6801052
  63.3469740   7.1570447  61.3429769  63.5782127   6.1950251  55.6784569
  62.7949649   6.7371932  55.7722794  64.2774872   6.7124231  56.0778810
  66.2491031   6.8565315  64.3239906  66.9619003   7.4912780  64.2515808
  65.7581059   6.9529181  63.5079908  61.3002944   4.6059759  65.1445477
  62.0012404   5.2396242  65.2974871  60.8298059   4.9474490  64.3841116
  69.4257340   2.9477709  53.4293384  69.7017184   2.8334303  54.3387258
  68.5561839   2.5495194  53.3905557  66.0611404   7.1964060  57.0726198
  66.2433799   6.3785715  57.5353950  66.8844390   7.4131752  56.6351088
  66.3953570   6.1232245  54.3341246  66.9241336   5.6124699  53.7211408
  66.6581789   5.8074775  55.1986779  56.8970662   4.1396114  62.0776580
  57.4824099   3.3939802  62.2104484  56.6995501   4.4500071  62.9613244
  59.7509318   7.1747361  57.0939022  59.0819693   7.6593489  56.6103062
  59.6122187   7.4216582  58.0082401  51.4888317  -3.2898286  60.7981023
  51.5272417  -3.8234695  61.5918141  50.9828610  -3.8163080  60.1792000
  63.8914586   9.2091105  63.6921680  64.4432894   9.3722726  64.4570766
  64.2320780   9.7995543  63.0201705  68.7425460   4.0352362  69.5470335
  69.2865364   4.6482321  69.0525290  68.1612305   4.5931941  70.0637348
  67.0282973   7.1573080  60.6785363  66.9034113   6.3562820  60.1696308
  67.6862065   7.6519274  60.1899333  69.0917882   4.9582100  62.3064913
  68.1448217   4.8387452  62.2343239  69.4400655   4.0704599  62.3891174
  66.0964315   4.7534817  58.5069265  65.9489278   3.8251524  58.6876835
  66.9217809   4.7754907  58.0226340  69.6998437   5.5763375  59.5934138
  70.6244984   5.3706237  59.4558589  69.5313740   5.3279777  60.5023479
  69.4893753   6.0949043  54.9496229  69.6630631   5.5295465  54.1970082
  69.9822644   6.8949938  54.7675719  55.3070713  -1.8936288  63.0159788
  54.7624181  -1.1176480  63.1480062  56.1850063  -1.5465484  62.8578909
  70.4768926   5.4115807  52.0493127  71.1719830   6.0322500  52.2680442
  70.8192076   4.5611159  52.3245505  56.0936735  -2.7666392  65.9089945
  55.3518471  -2.6183756  66.4954575  55.7729479  -2.5058126  65.0456694
  72.3760349   2.8615513  53.5780458  72.9011673   3.2002786  52.8529778
  72.2882701   1.9262528  53.3943593  64.0380397   6.7749586  65.7070335
  64.3467524   6.5298733  66.5793034  64.8355879   6.9796225  65.2189205
  64.0601009   8.9287496  57.9375711  63.6206000   8.4363875  58.6308568
  64.8109126   8.3860464  57.6967787  56.5393348   5.1199037  57.9400339
  57.3651368   4.8202809  57.5598983  56.1887400   4.3506659  58.3890128
  61.5074882   4.4725505  60.0098013  60.8854891   3.8096210  59.7100241
  62.1779749   4.4986637  59.3271661  54.7401954   3.0385363  58.8989273
  53.9033862   2.6107538  58.7173274  54.7125599   3.2317807  59.8360064
  72.0654255   3.4948416  68.8831656  71.2749799   3.4772555  68.3436156
  71.8287609   4.0336710  69.6380693  61.0688389   3.0229429  53.4856474
  61.2176509   3.7064893  52.8323146  61.8754832   3.0034519  54.0005929
  73.6870327   2.7637824  66.4406406  73.3955135   3.1267805  67.2769867
  73.0742458   2.0504833  66.2619738  58.8241022  -0.9505394  54.4917542
  58.5787063  -1.8543064  54.6897753  58.9936936  -0.9488243  53.5497020
  64.5683794   5.5177559  50.9568221  63.9957761   6.1367746  50.5038693
  65.1416588   6.0676921  51.4908143  67.7881054   5.8014709  52.0876803
  68.7211727   5.7360271  52.2909679  67.7004267   6.6370976  51.6291336
  70.4169071   5.1180579  49.0480751  70.3382702   4.7840443  49.9416509
  71.2378737   5.6102347  49.0472223  64.8369285   0.9056118  69.7584930
  65.7572295   1.0834717  69.9524977  64.8018868  -0.0387837  69.6064630
  54.0551450  -3.9005288  58.6838205  53.7354234  -4.7539980  58.3912579
  53.5084878  -3.6856710  59.4396172  57.8331358  -1.1842847  62.4007712
  58.0517367  -0.2525740  62.4195745  58.2457131  -1.5434873  63.1862515
  53.9239710  -0.2802377  60.6531327  53.2303182  -0.6948424  60.1401281
  54.6712701  -0.2381840  60.0564746  55.8376453  -0.3484123  58.5297342
  55.8147141  -0.2496436  57.5779225  56.1477089   0.4981028  58.8514508
  58.4963831   1.7092032  62.6443956  59.4507084   1.6775974  62.5773888
  58.2976354   1.2482656  63.4594182  59.0863213   0.2793148  65.2114754
  59.9056102   0.7737227  65.2349591  59.3600020  -0.6374884  65.1832321
  56.8514059   7.2511651  59.6614154  56.7168527   6.4912052  59.0952152
  56.4346122   7.9752551  59.1942943  67.9873022   2.4348575  48.6690729
  68.6908872   2.6398577  49.2848385  67.2635671   3.0025337  48.9339813
  60.0083185   8.1480968  59.8732597  59.8915569   9.0926401  59.7711287
  59.1875631   7.8454530  60.2618396  69.8959720   2.8731104  50.7189189
  70.7305324   2.4412303  50.5366664  69.7344063   2.7013118  51.6466084
  66.8651519   1.6812129  71.4099091  67.7342679   1.8552782  71.0485726
  66.3858271   2.5006546  71.2874821  61.0337699   8.8009230  63.0888525
  61.9364946   8.8332840  63.4055020  60.8075069   7.8709681  63.1034861
  62.7891301   7.5540217  59.7498604  61.8386932   7.5542078  59.6362976
  63.0923787   6.8072951  59.2334638  78.5243995  13.3900755  60.8144366
  79.1622405  13.2707503  60.1107706  78.4064838  14.3381599  60.8732318
  75.3333701  13.3428183  60.7505891  74.9952213  13.2269248  59.8626426
  76.2023469  12.9419348  60.7306897  71.1920517  15.1963660  56.7402782
  70.6285382  15.1053597  55.9719069  71.0772912  14.3763564  57.2205274
  75.8153484  14.4963035  66.7092096  75.8042125  14.1015833  65.8372600
  75.9774124  13.7629108  67.3025868  68.7384949  16.6914851  59.5787002
  69.5306241  16.3505676  59.1633301  68.9781599  16.8009826  60.4989155
  76.7720076  18.8634627  52.0517247  76.1208055  19.4488708  51.6651260
  77.5664438  19.3940822  52.1112284  70.6975703  15.9523765  52.4504381
  71.4706579  15.4052752  52.3117257  71.0501102  16.8168014  52.6618842
  72.5360745  17.2800147  65.6571280  72.2450611  18.1845778  65.5417946
  73.1717730  17.3216674  66.3715350  73.4616952  14.6576995  62.2472640
  74.0580524  14.4333018  61.5329603  73.5191924  13.9161741  62.8498088
  73.0341980  12.1116431  50.0822831  73.2867501  11.5897952  49.3206294
  72.0966540  11.9482576  50.1849514  78.0785263  11.1152209  57.8897574
  78.8648353  10.6971632  57.5387991  78.3423968  12.0198301  58.0579222
  78.2495341  16.5525059  52.5886231  77.6141174  16.6259686  53.3007135
  77.9192747  17.1418658  51.9105310  83.4793690  11.0527442  58.7930553
  84.2118862  10.4826659  59.0268382  82.7233046  10.6649043  59.2337058
  72.7538269  14.0144537  52.2847206  72.6374527  13.3389440  52.9528290
  72.8640529  13.5276911  51.4679359  75.0969810  13.4754684  55.9893895
  74.7328017  12.9485305  56.7006816  75.9536926  13.0853153  55.8160380
  81.0019111   4.7649016  63.2525161  80.6702436   5.6344427  63.0286376
  80.4064724   4.4485300  63.9319192  74.7375297   8.5044583  50.9855243
  74.9049699   9.3724820  51.3525715  74.5472466   8.6671865  50.0616533
  77.4950630  16.9661562  62.6521074  77.1951353  17.8686601  62.5436881
  77.1501690  16.6993746  63.5042227  70.9463112  13.4175359  58.6857778
  70.0213608  13.2851573  58.8935470  71.1947525  14.1969578  59.1827721
  80.8947774   9.4844102  60.3318511  79.9864651   9.4159511  60.0377272
  80.8435370   9.9616047  61.1600337  74.7164518  10.9602241  51.9701910
  74.5964143  11.4059292  52.8087391  74.0217106  11.3087559  51.4115448
  68.3071923  13.0608633  59.5201567  68.4364304  13.3143112  60.4340979
  67.6269374  13.6536341  59.2006222  72.4771410  23.7305883  55.6192042
  72.3995440  24.6813708  55.6980522  71.8733054  23.3851755  56.2766968
  74.9688640  10.9033748  68.2753408  74.1921974  11.4627668  68.2656273
  75.6079203  11.3890531  68.7968279  82.7609421   7.6860541  62.1096385
  82.1183801   7.9793074  61.4636180  82.2564349   7.5713461  62.9149582
  80.4149584  11.4323714  52.7982244  81.3267440  11.6651101  52.6229942
  79.9059231  12.0160758  52.2357323  73.2235012  13.7119201  67.8371375
  73.9649697  14.2504245  67.5606199  72.5171998  14.3385490  67.9942927
  78.6990352  15.8548342  66.4343537  79.1073708  15.4130752  65.6898169
  77.9767613  15.2800969  66.6877730  75.0521422  10.7920949  63.8077094
  75.8982617  11.2160362  63.9511743  74.9920060  10.1354573  64.5015657
  79.0219166  16.4149533  60.1895826  78.3928029  16.5795247  59.4871894
  78.6344829  16.8291142  60.9606790  82.9008398  17.3503970  57.5440190
  82.2159437  17.7302872  56.9937223  82.9852248  17.9599297  58.2772137
  78.2020867   8.4525317  65.4658268  77.9581799   9.2067378  64.9292543
  78.4780798   8.8310665  66.3005515  80.1559330  14.9963929  64.1435533
  80.3676225  15.6395689  63.4669914  80.1089078  14.1626246  63.6757463
  77.7585559   7.6081750  61.0472105  76.8970038   7.9063004  61.3388843
  77.7847994   7.8252149  60.1153138  74.5747128  16.1523941  57.4545911
  75.0385474  16.4311644  56.6650533  74.3103926  15.2507385  57.2719002
  71.4671209  15.6995422  60.3925674  72.0372566  16.1282691  59.7543159
  72.0579321  15.4178007  61.0909860  73.5116014  12.2747093  54.2635476
  74.2140058  12.7268137  54.7309402  73.1796643  11.6330912  54.8915369
  71.9596376  10.8658850  68.6386685  71.3295037  11.5475130  68.8722082
  71.8532464  10.7541931  67.6939824  67.2541348  10.5330646  59.5652610
  66.4640402  10.7888174  59.0892720  67.7452596  11.3478984  59.6704650
  81.2705158  17.8735885  62.3157890  82.0922602  17.4716072  62.0340572
  81.2667561  17.7704119  63.2674006  69.2056094  10.8975225  56.5236086
  68.4087257  11.0093919  57.0419582  68.9781686  11.2361877  55.6576977
  75.0361761  17.4219928  64.4718601  75.1006194  17.8840335  65.3076773
  74.3272685  16.7917293  64.6000911  65.5379051  10.7861136  61.9967600
  65.7887090  11.6708146  62.2625176  66.0738600  10.6065738  61.2242692
  89.3611151  14.2174633  58.6642862  88.6074859  13.6482031  58.5086866
  89.4958692  14.1837298  59.6113497  74.7509779  19.0888036  54.3397581
  74.6155454  19.9339571  54.7682429  75.2919592  19.2907313  53.5763515
  71.2377119   5.1679615  71.0011936  70.8444064   4.6145814  71.6759581
  72.0543259   5.4790194  71.3918454  68.2039176  16.6063474  54.9125506
  68.7163697  17.4006724  55.0631071  68.8561889  15.9089764  54.8459108
  70.0134061  19.7229230  56.9948260  70.1900689  20.6447195  56.8069243
  70.8090895  19.4087649  57.4242639  74.1545080   6.5837495  68.5932193
  74.8954793   7.1844648  68.5136656  74.3863002   5.8415132  68.0350236
  69.2986418  11.7693862  66.8710423  69.1839933  10.8679119  67.1717522
  68.4430935  12.0157559  66.5195239  76.3778255  19.7111602  68.4697923
  75.9342110  18.9247981  68.1518828  77.0395469  19.8990753  67.8041814
  71.1365377  21.2407404  62.9958602  71.6872802  21.1124467  62.2235596
  70.2976852  21.5402293  62.6453495  78.4759493  19.9914402  66.4979325
  78.4577969  20.8123283  66.0059594  79.3979414  19.8668477  66.7229466
  74.9332548  17.5058532  67.3402833  75.4660884  16.7446820  67.1102141
  74.4046629  17.2132183  68.0826987  66.1688093  14.9352128  55.6885077
  67.0063315  15.3449136  55.4718785  66.3466361  13.9951570  55.6585271
  78.0652525  12.6027209  51.3768910  77.5499149  13.3731813  51.6157297
  77.7929834  11.9292345  52.0001971  75.6499636   7.4476909  56.4354148
  74.7941233   7.0583760  56.2559787  76.0626588   7.5268870  55.5753934
  77.1798783   4.9823253  60.8345708  76.6763579   4.9453388  60.0213513
  77.4729390   5.8915995  60.8942365  73.4241669   5.0661982  59.8411890
  74.2894666   4.8704791  59.4817779  73.4919178   4.8372334  60.7681246
  83.0386799  15.3559563  53.3122083  82.2616242  15.0170723  52.8677245
  83.7178280  15.3612186  52.6377048  77.8538828  10.4754301  53.2028691
  77.5488964  10.7900450  54.0538834  78.8069271  10.5535721  53.2456024
  76.2985260  16.6344524  54.8521645  75.7706622  15.8997284  54.5394882
  75.7972763  17.4119200  54.6061613  81.2778106  14.8293545  59.9688691
  80.6201781  15.5192806  60.0568820  82.0818506  15.2189976  60.3122678
  71.0303988   7.2964190  57.2128257  71.6047740   7.0739372  56.4801449
  71.6174970   7.3652885  57.9656858  80.0883565  13.1837917  58.0192633
  80.6015447  13.8167909  58.5214343  80.7384789  12.5839113  57.6535993
  71.3573575   9.3268651  51.2324142  70.5210887   9.6643338  51.5533417
  71.2178345   9.1917631  50.2951279  73.3326656   4.1705439  55.9403326
  72.6791068   3.8554456  55.3159941  73.2907130   3.5481180  56.6663149
  74.4437861  14.4524734  47.8556618  73.5364922  14.2213988  48.0547767
  74.9408893  13.6562354  48.0430600  77.3505939  23.1622241  50.7753304
  76.6767638  23.4653938  51.3838262  77.7371761  23.9651322  50.4258761
  76.5664396  10.6587373  60.2650974  75.6486957  10.8802320  60.1072662
  76.9824540  10.7333683  59.4062681  77.3499444  12.0578788  55.3953654
  78.0971263  12.5700186  55.0860776  77.6191033  11.7362841  56.2558047
  75.6226094  14.5537329  52.3780608  74.7137313  14.2696362  52.4753078
  75.6521178  14.9736408  51.5183915  80.8545361  18.1643919  56.1471776
  80.4007688  17.3234829  56.2036966  80.2239328  18.8005317  56.4846556
  79.7978281   9.0935905  57.3772443  79.0601038   8.5813291  57.7082686
  80.0505054   8.6536286  56.5655720  79.2978301  20.0020415  57.0821594
  79.5901275  20.5625472  56.3633959  79.8076921  20.2948976  57.8374753
  66.1914264  12.2742843  56.3595810  65.9938664  11.6812204  55.6346877
  65.6360928  11.9695053  57.0771749  74.1710988  12.1665950  58.4790403
  74.2259598  11.2139786  58.4032880  73.3602190  12.3225389  58.9631702
  75.3202182  16.0946073  49.7168687  74.8821612  15.3781932  49.2574324
  76.0612623  16.3222188  49.1553778  72.1103348  10.7843009  56.2380782
  71.2971213  11.0837180  56.6445974  72.6062342  10.3898698  56.9555265
  74.2611926  20.7800766  58.1715047  74.2188105  21.0061613  57.2423579
  75.1774625  20.5464141  58.3200848  77.7077560  11.2484834  65.0695676
  78.0626947  11.4756307  65.9290142  78.3549691  11.5803211  64.4472932
  83.4375297  14.3703270  55.7745005  83.2993195  14.5604866  54.8466194
  83.0811515  15.1322653  56.2313056  71.6017423   8.3561365  61.8542017
  72.2416802   8.2150124  61.1564981  70.7694953   8.0695878  61.4780619
  83.4644676  16.4379797  60.7856277  83.8981183  16.3455086  61.6339331
  84.1776257  16.4137297  60.1476293  72.3777727  17.6563795  57.9677010
  73.1718325  17.1614116  57.7659585  71.6669419  17.1281659  57.6044715
  77.1972571  20.0381891  62.3189377  77.2509593  20.6072827  63.0867093
  76.3287352  20.2083776  61.9543415  68.6860490  11.8006877  54.0436762
  67.7558078  11.7391333  54.2606725  68.7817962  11.2782830  53.2473404
  68.6046039   8.3261690  56.6315004  68.8652856   9.2407023  56.5224165
  69.4263211   7.8586133  56.7811617  70.0770964   9.7399447  63.8013829
  70.7494018   9.5316809  63.1526478  69.2500751   9.5421533  63.3619061
  84.3260226  16.4803498  63.3189162  84.5196116  17.3849308  63.5648437
  84.2260844  16.0210917  64.1527747  75.9796536   6.3661388  65.8179490
  75.3324451   7.0651338  65.7243966  76.7497552   6.7997532  66.1855738
  79.3875334  16.6310240  68.8930043  79.2360841  16.4020792  67.9760126
  79.3780014  17.5880842  68.9061388  76.1560671  14.2042153  63.8776309
  77.0852731  14.3553313  63.7045277  75.7351701  14.2926174  63.0224956
  74.9549003  18.2292817  61.6474847  74.8160088  17.8611602  62.5200785
  74.1663599  18.7440457  61.4758805  75.5497155  23.3301914  52.9900383
  75.7248910  22.8589957  53.8046006  74.8629943  23.9567680  53.2181644
  76.5054218  17.6074420  59.0363685  76.1704050  17.5675190  59.9321335
  76.0058163  16.9419136  58.5634095  70.4798462  13.0142050  64.5616266
  70.3418260  12.2822289  65.1627805  71.3903385  12.9250950  64.2800454
  79.4413409  14.9530454  49.3100744  78.8242580  14.2277283  49.2133797
  78.9729898  15.7139815  48.9667819  73.1080762  12.7262009  64.0499945
  73.8180381  12.0855202  64.0086564  73.0650071  12.9774904  64.9726126
  81.0967541  19.6629363  66.9706525  81.0380087  18.9788583  66.3037108
  81.4987059  20.4048353  66.5187151  71.8209696   9.7127227  65.8695585
  71.2847053   9.2617966  66.5217181  71.2326405   9.8473136  65.1266049
  70.1158240  26.4791277  59.7640244  70.3554838  27.1109801  60.4419262
  69.2727436  26.1279317  60.0505603  71.2311955   9.1715879  48.4322049
  70.3541422   9.0504680  48.0684295  71.7069708   8.3801957  48.1800937
  81.0984948  17.6268947  65.2020504  80.2111727  17.2894869  65.3246903
  81.6683499  16.8951978  65.4389270  62.7514095  13.9593038  58.5263556
  63.4385135  13.6454769  57.9384571  62.5962224  14.8634403  58.2530807
  67.5548818   8.8483235  62.9548579  67.4707006   8.2408905  62.2198989
  66.7331524   9.3392253  62.9558076  74.6286102  22.2870399  62.1681748
  74.5556273  23.0925371  62.6801052  74.1863495  22.4862365  61.3429769
  74.4175881  21.5242169  55.6784569  73.6343403  22.0663849  55.7722794
  75.1168626  22.0416149  56.0778810  77.7272531   7.3336799  58.3218774
  78.2241231   6.5806761  58.0019845  76.9559513   7.3701115  57.7561984
  85.5802289  13.0377164  59.9637066  85.5692165  13.9201880  59.5930999
  84.7119668  12.6848715  59.7691603  77.0884785  22.1857233  64.3239906
  77.8012757  22.8204698  64.2515808  76.5974814  22.2821099  63.5079908
  78.8102312  16.0908486  55.8957198  77.8758591  16.2109948  55.7261902
  78.9878981  15.1880953  55.6317208  74.3107500   9.4754182  58.0490459
  73.9405288   8.9225222  58.7371365  74.8066593   8.8712315  57.4965459
  82.1974863  11.9325805  56.4307232  82.6635316  12.7653797  56.3567535
  82.6482364  11.4670787  57.1352490  72.1396699  19.9351677  65.1445477
  72.8406158  20.5688160  65.2974871  71.6691814  20.2766408  64.3841116
  80.2651095  18.2769626  53.4293384  80.5410938  18.1626221  54.3387258
  79.3955593  17.8787111  53.3905557  79.9397985  12.4896284  62.9698027
  79.2869435  12.7372191  62.3150480  80.3178365  11.6760422  62.6360505
  76.9005159  22.5255977  57.0726198  77.0827553  21.7077633  57.5353950
  77.7238145  22.7423669  56.6351088  77.2347324  21.4524162  54.3341246
  77.7635091  20.9416617  53.7211408  77.4975544  21.1366693  55.1986779
  75.9885558  13.2316095  69.4564064  75.3126195  13.1310224  70.1266440
  76.8113192  13.0755309  69.9200062  67.7364417  19.4688032  62.0776580
  68.3217854  18.7231720  62.2104484  67.5389255  19.7791988  62.9613244
  70.5903072  22.5039279  57.0939022  69.9213447  22.9885407  56.6103062
  70.4515942  22.7508499  58.0082401  62.3282072  12.0393632  60.7981023
  62.3666171  11.5057223  61.5918141  61.8222364  11.5128837  60.1792000
  74.7308341  24.5383023  63.6921680  75.2826649  24.7014644  64.4570766
  75.0714534  25.1287460  63.0201705  69.7072834   6.8858172  64.2943565
  69.7714160   7.7473003  63.8820963  69.6439954   6.2732174  63.5615924
  69.1825106   8.9581305  67.9416599  69.8097145   8.5758382  68.5554124
  68.3253025   8.7395507  68.3072292  79.5819215  19.3644280  69.5470335
  80.1259119  19.9774238  69.0525290  79.0006060  19.9223858  70.0637348
  65.9590649  10.7657734  53.8734954  66.2544090   9.8568412  53.8202008
  65.0578685  10.7445473  53.5515957  77.8676728  22.4864998  60.6785363
  77.7427867  21.6854738  60.1696308  78.5255819  22.9811191  60.1899333
  69.4884896   8.8413731  59.8562503  68.7671482   9.4549698  59.7169976
  70.2778152   9.3771495  59.7779149  79.9311636  20.2874018  62.3064913
  78.9841972  20.1679369  62.2343239  80.2794409  19.3996516  62.3891174
  72.2911210   6.1768157  66.1303155  72.8145611   6.4230454  66.8929464
  72.0723543   7.0088192  65.7106292  67.6878491   8.4471832  53.9974279
  67.3591197   7.5669211  53.8149385  68.0417861   8.3919500  54.8850669
  76.9358070  20.0826734  58.5069265  76.7883032  19.1543442  58.6876835
  77.7611563  20.1046825  58.0226340  70.8020314   8.7344801  54.3649757
  71.1416386   9.2630723  53.6428365  71.2492434   9.0725208  55.1408324
  80.5392191  20.9055293  59.5934138  81.4638739  20.6998154  59.4558589
  80.3707495  20.6571694  60.5023479  73.4963755   7.1181852  63.8152825
  73.1560575   6.3189665  64.2173505  72.7902761   7.4183563  63.2429658
  74.1480227   4.2031165  62.2680148  74.9706296   3.7291643  62.1459038
  74.3918290   4.9821648  62.7678834  72.7888461   7.2319423  52.5643050
  73.5096824   7.6100676  52.0606767  72.1653765   7.9508300  52.6678028
  76.9319584   7.9364572  53.5001382  77.1483198   8.8189210  53.1990210
  76.4513651   7.5450785  52.7707024  71.6718805  10.8950285  60.0772127
  71.5263386  11.2090588  60.9696408  71.1944009  11.5135186  59.5243025
  73.5315188   7.8852833  60.1253016  73.5176757   6.9893927  59.7885314
  74.2487616   7.8923497  60.7591302  75.3841319   8.3190173  62.1706144
  75.1259097   9.2407244  62.1690474  74.8526359   7.9220608  62.8606608
  80.3287508  21.4240961  54.9496229  80.5024385  20.8587383  54.1970082
  80.8216399  22.2241855  54.7675719  66.1464467  13.4355630  63.0159788
  65.6017936  14.2115438  63.1480062  67.0243817  13.7826434  62.8578909
  72.9352084   6.7667214  55.3940586  73.0567995   5.8383860  55.5931474
  72.6454126   6.7805899  54.4818902  75.8043274   4.4522124  58.5307306
  75.8264971   4.5161457  57.5759286  76.2211333   3.6126633  58.7247812
  86.1826899  14.1877384  56.5686529  86.6258045  13.4384709  56.1705652
  85.3053409  14.1787520  56.1860261  81.3162680  20.7407725  52.0493127
  82.0113585  21.3614418  52.2680442  81.6585830  19.8903076  52.3245505
  66.9330489  12.5625526  65.9089945  66.1912225  12.7108161  66.4954575
  66.6123234  12.8233792  65.0456694  83.2154103  18.1907430  53.5780458
  83.7405427  18.5294703  52.8529778  83.1276456  17.2554446  53.3943593
  74.8774152  22.1041504  65.7070335  75.1861278  21.8590651  66.5793034
  75.6749634  22.3088143  65.2189205  74.8994764  24.2579414  57.9375711
  74.4599754  23.7655792  58.6308568  75.6502881  23.7152381  57.6967787
  67.3787103  20.4490955  57.9400339  68.2045123  20.1494726  57.5598983
  67.0281155  19.6798577  58.3890128  72.3468636  19.8017423  60.0098013
  71.7248645  19.1388128  59.7100241  73.0173503  19.8278555  59.3271661
  65.5795708  18.3677281  58.8989273  64.7427616  17.9399455  58.7173274
  65.5519353  18.5609724  59.8360064  72.4193164   8.2799211  69.6030519
  72.4681319   9.1561334  69.2208289  72.9615678   7.7376604  69.0302162
  82.9048009  18.8240334  68.8831656  82.1143553  18.8064473  68.3436156
  82.6681364  19.3628628  69.6380693  83.0245884  15.6732801  66.1964385
  83.0743889  15.5082808  67.1379907  82.9159808  14.8060060  65.8062265
  71.9082143  18.3521346  53.4856474  72.0570263  19.0356811  52.8323146
  72.7148587  18.3326436  54.0005929  80.3149647  11.6563729  67.5123691
  81.2159510  11.5170193  67.2207689  80.3897621  11.8218183  68.4521869
  74.6492452   9.0330583  66.3576878  73.7795761   9.3264149  66.0859466
  74.8851932   9.6171028  67.0784141  84.5264081  18.0929742  66.4406406
  84.2348889  18.4559723  67.2769867  83.9136212  17.3796750  66.2619738
  85.7259763  15.6582622  58.9608976  86.5606655  16.0972426  59.1246537
  85.8618892  15.1821275  58.1417222  82.7751269  13.2162357  64.9086464
  83.2505391  13.4090003  64.1005316  81.8516835  13.2721542  64.6629848
  69.6634776  14.3786524  54.4917542  69.4180818  13.4748854  54.6897753
  69.8330691  14.3803674  53.5497020  77.3531486   5.2510200  63.8742298
  77.8713430   5.9871227  63.5488787  76.9986619   5.5574194  64.7089057
  68.9330424  10.1114881  51.9903704  68.2399669  10.1859236  51.3343740
  68.6882175   9.3475225  52.5125221  75.4077549  20.8469477  50.9568221
  74.8351516  21.4659664  50.5038693  75.9810342  21.3968838  51.4908143
  81.4752938  10.0928117  63.1414770  82.4270361  10.1926214  63.1626994
  81.3056389   9.3006385  63.6512854  79.4967318   7.1783700  63.3274171
  78.9017250   7.4588713  62.6320659  79.2117015   7.6677601  64.0990912
  78.6274808  21.1306627  52.0876803  79.5605482  21.0652188  52.2909679
  78.5398021  21.9662894  51.6291336  81.2562825  20.4472497  49.0480751
  81.1776457  20.1132361  49.9416509  82.0772492  20.9394265  49.0472223
  83.9541016  13.3134236  62.2557069  83.9217336  12.3750237  62.4416753
  84.5641640  13.3918273  61.5222894  75.7924347  12.1830289  48.2984273
  76.7383452  12.0536498  48.3672692  75.4138592  11.4444951  48.7753702
  84.1035505  10.1045280  62.3015353  83.5874553   9.3203736  62.1145281
  84.9875453   9.7763996  62.4661872  89.7717566  14.3750243  61.3963106
  90.5020955  14.1135531  61.9570810  89.1624512  13.6378965  61.4365174
  87.8532863  12.5158106  61.9937557  87.1266027  12.3814071  61.3854049
  87.4380150  12.8234934  62.7994275  75.6763040  16.2348036  69.7584930
  76.5966049  16.4126635  69.9524977  75.6412623  15.2904081  69.6064630
  73.9767264  10.1080266  48.2339159  73.0698720   9.8113378  48.3101872
  74.2543245   9.8110084  47.3673445  64.8945205  11.4286629  58.6838205
  64.5747989  10.5751937  58.3912579  64.3478633  11.6435207  59.4396172
  68.6725112  14.1449070  62.4007712  68.8911122  15.0766178  62.4195745
  69.0850886  13.7857045  63.1862515  75.5929330   4.6517155  54.3883400
  74.7830058   4.3064240  54.7638646  76.2813747   4.3424699  54.9771012
  73.5452977   9.7182276  71.7910461  73.4449704  10.6676633  71.7222552
  73.3274520   9.3900515  70.9186531  72.7466049   6.9667201  48.3751138
  73.6085213   7.2922099  48.6346955  72.9316393   6.1798697  47.8624204
  64.7633465  15.0489541  60.6531327  64.0696936  14.6343493  60.1401281
  65.5106456  15.0910077  60.0564746  80.8998685   5.8395727  55.5186361
  80.3197354   6.4980531  55.1364413  80.6334618   5.0173072  55.1073778
  79.3502252   5.2400785  57.7207681  79.8502030   5.3517320  56.9122000
  79.9937860   4.9361838  58.3608490  73.4084248  13.1479415  70.6075522
  72.9251329  13.9479775  70.8139411  73.4945187  13.1587360  69.6542966
  66.6770207  14.9807794  58.5297342  66.6540895  15.0795482  57.5779225
  66.9870844  15.8272945  58.8514508  69.3357585  17.0383949  62.6443956
  70.2900839  17.0067892  62.5773888  69.1370109  16.5774573  63.4594182
  69.9256967  15.6085066  65.2114754  70.7449856  16.1029144  65.2349591
  70.1993775  14.6917034  65.1832321  79.6823563   7.9995818  54.5742709
  78.7949418   8.2845468  54.3562904  80.0977552   7.8389581  53.7269986
  83.0338099   8.0242339  58.2897048  83.8098490   8.5138791  58.5621665
  82.3086234   8.4500393  58.7468918  85.4710658   8.7369958  59.3470989
  86.0655149   8.4965694  58.6364297  85.5437242   8.0177089  59.9744525
  67.6907814  22.5803569  59.6614154  67.5562282  21.8203970  59.0952152
  67.2739876  23.3044469  59.1942943  78.8266777  17.7640493  48.6690729
  79.5302627  17.9690495  49.2848385  78.1029426  18.3317254  48.9339813
  79.6564587  13.5150354  54.7892999  79.5999788  13.9718905  53.9500632
  80.2092930  12.7541038  54.6115842  83.4669393   9.3040086  55.6143119
  83.2106327   8.9036721  56.4451327  82.8422261  10.0183880  55.4893258
  87.7781731  12.0436159  58.1214410  87.2181289  12.1129348  58.8945972
  87.1725234  11.8677144  57.4013906  70.8476940  23.4772886  59.8732597
  70.7309324  24.4218318  59.7711287  70.0269386  23.1746448  60.2618396
  80.7353474  18.2023022  50.7189189  81.5699078  17.7704220  50.5366664
  80.5737817  18.0305035  51.6466084  80.3899366  14.7055135  52.0845529
  80.3348170  14.5399406  51.1433973  79.7645422  15.4131168  52.2407718
  65.1791881   9.9423199  65.9106951  65.8250745   9.4322153  66.3994176
  64.9709033  10.6791881  66.4850376  77.7045274  17.0104047  71.4099091
  78.5736433  17.1844699  71.0485726  77.2252025  17.8298464  71.2874821
  73.6995492   4.2063244  51.6630847  73.6874162   5.1505084  51.8199118
  74.5918914   4.0233389  51.3690308  71.8731454  24.1301148  63.0888525
  72.7758701  24.1624758  63.4055020  71.6468824  23.2001599  63.1034861
  73.6285056  22.8832134  59.7498604  72.6780687  22.8833996  59.6362976
  73.9317542  22.1364869  59.2334638  69.5189372   7.0890816  70.0081965
  70.3820834   6.7327621  70.2185290  68.9454783   6.7504711  70.6957369
  89.3637749  28.7192673  60.8144366  90.0016159  28.5999420  60.1107706
  89.2458592  29.6673517  60.8732318  86.1727456  28.6720101  60.7505891
  85.8345967  28.5561166  59.8626426  87.0417224  28.2711266  60.7306897
  82.0314271  30.5255577  56.7402782  81.4679136  30.4345514  55.9719069
  81.9166666  29.7055482  57.2205274  86.6547239  29.8254953  66.7092096
  86.6435879  29.4307751  65.8372600  86.8167878  29.0921025  67.3025868
  79.5778703  32.0206769  59.5787002  80.3699995  31.6797594  59.1633301
  79.8175353  32.1301744  60.4989155  87.6113830  34.1926545  52.0517247
  86.9601810  34.7780625  51.6651260  88.4058193  34.7232740  52.1112284
  81.5369457  31.2815682  52.4504381  82.3100333  30.7344669  52.3117257
  81.8894856  32.1459932  52.6618842  83.3754500  32.6092064  65.6571280
  83.0844366  33.5137695  65.5417946  84.0111484  32.6508592  66.3715350
  84.3010707  29.9868913  62.2472640  84.8974279  29.7624935  61.5329603
  84.3585678  29.2453658  62.8498088  83.8735735  27.4408348  50.0822831
  84.1261256  26.9189870  49.3206294  82.9360294  27.2774494  50.1849514
  88.9179018  26.4444127  57.8897574  89.7042107  26.0263550  57.5387991
  89.1817722  27.3490219  58.0579222  89.0889095  31.8816977  52.5886231
  88.4534928  31.9551604  53.3007135  88.7586502  32.4710576  51.9105310
  94.3187445  26.3819360  58.7930553  95.0512617  25.8118577  59.0268382
  93.5626801  25.9940960  59.2337058  83.5932024  29.3436454  52.2847206
  83.4768282  28.6681358  52.9528290  83.7034284  28.8568828  51.4679359
  85.9363565  28.8046601  55.9893895  85.5721772  28.2777222  56.7006816
  86.7930681  28.4145070  55.8160380  91.8412865  20.0940934  63.2525161
  91.5096190  20.9636345  63.0286376  91.2458479  19.7777218  63.9319192
  85.5769052  23.8336501  50.9855243  85.7443454  24.7016737  51.3525715
  85.3866221  23.9963783  50.0616533  88.3344385  32.2953480  62.6521074
  88.0345108  33.1978519  62.5436881  87.9895444  32.0285663  63.5042227
  81.7856866  28.7467277  58.6857778  80.8607363  28.6143491  58.8935470
  82.0341279  29.5261496  59.1827721  91.7341529  24.8136020  60.3318511
  90.8258406  24.7451429  60.0377272  91.6829124  25.2907965  61.1600337
  85.5558273  26.2894159  51.9701910  85.4357898  26.7351209  52.8087391
  84.8610861  26.6379476  51.4115448  79.1465677  28.3900550  59.5201567
  79.2758058  28.6435029  60.4340979  78.4663129  28.9828258  59.2006222
  83.3165165  39.0597800  55.6192042  83.2389194  40.0105625  55.6980522
  82.7126808  38.7143673  56.2766968  85.8082394  26.2325666  68.2753408
  85.0315728  26.7919586  68.2656273  86.4472957  26.7182449  68.7968279
  93.6003175  23.0152459  62.1096385  92.9577555  23.3084992  61.4636180
  93.0958104  22.9005379  62.9149582  91.2543339  26.7615632  52.7982244
  92.1661195  26.9943019  52.6229942  90.7452986  27.3452676  52.2357323
  84.0628767  29.0411119  67.8371375  84.8043451  29.5796163  67.5606199
  83.3565752  29.6677408  67.9942927  89.5384106  31.1840260  66.4343537
  89.9467462  30.7422670  65.6898169  88.8161368  30.6092887  66.6877730
  85.8915176  26.1212866  63.8077094  86.7376372  26.5452280  63.9511743
  85.8313814  25.4646491  64.5015657  89.8612921  31.7441450  60.1895826
  89.2321783  31.9087164  59.4871894  89.4738583  32.1583060  60.9606790
  93.7402153  32.6795888  57.5440190  93.0553191  33.0594789  56.9937223
  93.8246002  33.2891215  58.2772137  89.0414622  23.7817235  65.4658268
  88.7975554  24.5359295  64.9292543  89.3174552  24.1602582  66.3005515
  90.9953084  30.3255847  64.1435533  91.2069980  30.9687607  63.4669914
  90.9482833  29.4918164  63.6757463  88.5979313  22.9373668  61.0472105
  87.7363792  23.2354921  61.3388843  88.6241748  23.1544067  60.1153138
  85.4140883  31.4815858  57.4545911  85.8779228  31.7603561  56.6650533
  85.1497681  30.5799303  57.2719002  82.3064964  31.0287340  60.3925674
  82.8766321  31.4574608  59.7543159  82.8973076  30.7469925  61.0909860
  84.3509769  27.6039011  54.2635476  85.0533812  28.0560054  54.7309402
  84.0190397  26.9622830  54.8915369  82.7990130  26.1950767  68.6386685
  82.1688791  26.8767048  68.8722082  82.6926218  26.0833849  67.6939824
  78.0935103  25.8622563  59.5652610  77.3034157  26.1180092  59.0892720
  78.5846350  26.6770901  59.6704650  92.1098912  33.2027803  62.3157890
  92.9316356  32.8007990  62.0340572  92.1061315  33.0996037  63.2674006
  80.0449848  26.2267143  56.5236086  79.2481012  26.3385837  57.0419582
  79.8175440  26.5653795  55.6576977  85.8755516  32.7511846  64.4718601
  85.9399948  33.2132253  65.3076773  85.1666440  32.1209211  64.6000911
  76.3772806  26.1153054  61.9967600  76.6280844  27.0000064  62.2625176
  76.9132354  25.9357655  61.2242692 100.2004905  29.5466551  58.6642862
  99.4468614  28.9773949  58.5086866 100.3352447  29.5129215  59.6113497
  85.5903534  34.4179953  54.3397581  85.4549208  35.2631489  54.7682429
  86.1313346  34.6199231  53.5763515  82.0770873  20.4971533  71.0011936
  81.6837819  19.9437732  71.6759581  82.8937013  20.8082112  71.3918454
  79.0432931  31.9355391  54.9125506  79.5557451  32.7298642  55.0631071
  79.6955644  31.2381682  54.8459108  80.8527816  35.0521148  56.9948260
  81.0294444  35.9739112  56.8069243  81.6484649  34.7379567  57.4242639
  84.9938834  21.9129412  68.5932193  85.7348548  22.5136565  68.5136656
  85.2256757  21.1707050  68.0350236  80.1380172  27.0985779  66.8710423
  80.0233687  26.1971037  67.1717522  79.2824690  27.3449476  66.5195239
  87.2172010  35.0403520  68.4697923  86.7735864  34.2539898  68.1518828
  87.8789223  35.2282670  67.8041814  81.9759131  36.5699321  62.9958602
  82.5266556  36.4416385  62.2235596  81.1370607  36.8694210  62.6453495
  89.3153248  35.3206320  66.4979325  89.2971723  36.1415201  66.0059594
  90.2373168  35.1960395  66.7229466  85.7726302  32.8350449  67.3402833
  86.3054639  32.0738737  67.1102141  85.2440383  32.5424101  68.0826987
  88.9395997  17.9410515  62.8696475  88.5960266  18.8312157  62.7935585
  89.3074960  17.7512173  62.0066060  77.0081848  30.2644046  55.6885077
  77.8457070  30.6741054  55.4718785  77.1860115  29.3243488  55.6585271
  88.9046280  27.9319126  51.3768910  88.3892903  28.7023731  51.6157297
  88.6323588  27.2584262  52.0001971  86.4893391  22.7768827  56.4354148
  85.6334987  22.3875677  56.2559787  86.9020343  22.8560788  55.5753934
  88.0192537  20.3115170  60.8345708  87.5157333  20.2745305  60.0213513
  88.3123144  21.2207913  60.8942365  84.2635423  20.3953900  59.8411890
  85.1288420  20.1996709  59.4817779  84.3312932  20.1664252  60.7681246
  93.8780554  30.6851481  53.3122083  93.1009997  30.3462640  52.8677245
  94.5572035  30.6904104  52.6377048  88.6932583  25.8046218  53.2028691
  88.3882719  26.1192368  54.0538834  89.6463025  25.8827638  53.2456024
  87.1379015  31.9636442  54.8521645  86.6100376  31.2289201  54.5394882
  86.6366518  32.7411118  54.6061613  92.1171861  30.1585462  59.9688691
  91.4595535  30.8484724  60.0568820  92.9212260  30.5481894  60.3122678
  81.8697742  22.6256108  57.2128257  82.4441494  22.4031289  56.4801449
  82.4568725  22.6944802  57.9656858  90.9277320  28.5129835  58.0192633
  91.4409201  29.1459827  58.5214343  91.5778544  27.9131030  57.6535993
  82.1967330  24.6560569  51.2324142  81.3604642  24.9935256  51.5533417
  82.0572099  24.5209549  50.2951279  84.1720410  19.4997357  55.9403326
  83.5184822  19.1846374  55.3159941  84.1300884  18.8773097  56.6663149
  85.2831615  29.7816652  47.8556618  84.3758677  29.5505905  48.0547767
  85.7802647  28.9854271  48.0430600  88.1899694  38.4914159  50.7753304
  87.5161393  38.7945856  51.3838262  88.5765516  39.2943239  50.4258761
  87.4058151  25.9879290  60.2650974  86.4880712  26.2094237  60.1072662
  87.8218294  26.0625601  59.4062681  88.1893198  27.3870706  55.3953654
  88.9365017  27.8992103  55.0860776  88.4584788  27.0654759  56.2558047
  86.4619848  29.8829247  52.3780608  85.5531068  29.5988280  52.4753078
  86.4914932  30.3028325  51.5183915  91.6939116  33.4935836  56.1471776
  91.2401443  32.6526746  56.2036966  91.0633083  34.1297235  56.4846556
  90.6372035  24.4227822  57.3772443  89.8994792  23.9105209  57.7082686
  90.8898809  23.9828204  56.5655720  90.1372055  35.3312333  57.0821594
  90.4295029  35.8917390  56.3633959  90.6470676  35.6240894  57.8374753
  90.7383663  17.2004074  57.9714212  91.0442540  16.3401438  57.6840127
  91.4636268  17.7921695  57.7713206  77.0308019  27.6034761  56.3595810
  76.8332419  27.0104122  55.6346877  76.4754683  27.2986971  57.0771749
  85.0104742  27.4957867  58.4790403  85.0653352  26.5431704  58.4032880
  84.1995945  27.6517307  58.9631702  86.1595936  31.4237990  49.7168687
  85.7215366  30.7073849  49.2574324  86.9006377  31.6514105  49.1553778
  82.9497102  26.1134927  56.2380782  82.1364968  26.4129098  56.6445974
  83.4456097  25.7190616  56.9555265  85.1005680  36.1092684  58.1715047
  85.0581859  36.3353530  57.2423579  86.0168379  35.8756059  58.3200848
  88.5471314  26.5776752  65.0695676  88.9020702  26.8048225  65.9290142
  89.1943445  26.9095128  64.4472932  94.2769051  29.6995188  55.7745005
  94.1386950  29.8896783  54.8466194  93.9205270  30.4614570  56.2313056
  82.4411177  23.6853283  61.8542017  83.0810556  23.5442042  61.1564981
  81.6088708  23.3987796  61.4780619  94.3038431  31.7671715  60.7856277
  94.7374937  31.6747004  61.6339331  95.0170011  31.7429215  60.1476293
  83.2171481  32.9855713  57.9677010  84.0112080  32.4906033  57.7659585
  82.5063173  32.4573576  57.6044715  88.0366326  35.3673809  62.3189377
  88.0903348  35.9364745  63.0867093  87.1681107  35.5375694  61.9543415
  79.5254245  27.1298795  54.0436762  78.5951833  27.0683250  54.2606725
  79.6211717  26.6074748  53.2473404  79.4439794  23.6553608  56.6315004
  79.7046611  24.5698941  56.5224165  80.2656966  23.1878050  56.7811617
  80.9164719  25.0691365  63.8013829  81.5887772  24.8608727  63.1526478
  80.0894505  24.8713451  63.3619061  95.1653980  31.8095415  63.3189162
  95.3589870  32.7141226  63.5648437  95.0654598  31.3502834  64.1527747
  86.8190291  21.6953306  65.8179490  86.1718206  22.3943255  65.7243966
  87.5891306  22.1289450  66.1855738  90.2269089  31.9602158  68.8930043
  90.0754595  31.7312710  67.9760126  90.2173768  32.9172759  68.9061388
  86.9954425  29.5334071  63.8776309  87.9246485  29.6845230  63.7045277
  86.5745455  29.6218091  63.0224956  85.7942757  33.5584735  61.6474847
  85.6553843  33.1903519  62.5200785  85.0057353  34.0732375  61.4758805
  86.3890909  38.6593832  52.9900383  86.5642665  38.1881875  53.8046006
  85.7023697  39.2859598  53.2181644  87.3447972  32.9366338  59.0363685
  87.0097805  32.8967108  59.9321335  86.8451918  32.2711054  58.5634095
  81.3192216  28.3433968  64.5616266  81.1812014  27.6114207  65.1627805
  82.2297140  28.2542868  64.2800454  90.2807164  30.2822372  49.3100744
  89.6636334  29.5569200  49.2133797  89.8123652  31.0431732  48.9667819
  83.9474517  28.0553927  64.0499945  84.6574135  27.4147119  64.0086564
  83.9043825  28.3066822  64.9726126  91.9361296  34.9921280  66.9706525
  91.8773842  34.3080501  66.3037108  92.3380814  35.7340270  66.5187151
  82.6603451  25.0419145  65.8695585  82.1240808  24.5909883  66.5217181
  82.0720159  25.1765054  65.1266049  80.9551994  41.8083194  59.7640244
  81.1948593  42.4401718  60.4419262  80.1121191  41.4571234  60.0505603
  82.0705710  24.5007796  48.4322049  81.1935176  24.3796597  48.0684295
  82.5463463  23.7093875  48.1800937  91.9378703  32.9560864  65.2020504
  91.0505482  32.6186786  65.3246903  92.5077254  32.2243896  65.4389270
  73.5907850  29.2884956  58.5263556  74.2778890  28.9746686  57.9384571
  73.4355979  30.1926321  58.2530807  78.3942572  24.1775153  62.9548579
  78.3100761  23.5700822  62.2198989  77.5725278  24.6684171  62.9558076
  85.4679856  37.6162317  62.1681748  85.3950028  38.4217288  62.6801052
  85.0257249  37.8154283  61.3429769  85.2569636  36.8534087  55.6784569
  84.4737158  37.3955767  55.7722794  85.9562381  37.3708066  56.0778810
  88.5666286  22.6628716  58.3218774  89.0634985  21.9098679  58.0019845
  87.7953267  22.6993033  57.7561984  96.4196043  28.3669082  59.9637066
  96.4085920  29.2493797  59.5930999  95.5513423  28.0140633  59.7691603
  87.9278540  37.5149151  64.3239906  88.6406512  38.1496616  64.2515808
  87.4368568  37.6113017  63.5079908  89.6496067  31.4200403  55.8957198
  88.7152345  31.5401866  55.7261902  89.8272735  30.5172870  55.6317208
  85.1501255  24.8046099  58.0490459  84.7799042  24.2517140  58.7371365
  85.6460347  24.2004233  57.4965459  93.0368618  27.2617723  56.4307232
  93.5029070  28.0945714  56.3567535  93.4876118  26.7962704  57.1352490
  82.9790453  35.2643594  65.1445477  83.6799913  35.8980077  65.2974871
  82.5085568  35.6058326  64.3841116  91.1044849  33.6061544  53.4293384
  91.3804693  33.4918139  54.3387258  90.2349348  33.2079029  53.3905557
  91.0085281  19.6298310  60.4698133  90.0948361  19.8602537  60.6380340
  91.4378382  19.7136754  61.3212166  90.7791739  27.8188202  62.9698027
  90.1263189  28.0664109  62.3150480  91.1572119  27.0052340  62.6360505
  87.7398913  37.8547895  57.0726198  87.9221308  37.0369551  57.5353950
  88.5631899  38.0715587  56.6351088  88.0741079  36.7816080  54.3341246
  88.6028845  36.2708535  53.7211408  88.3369298  36.4658610  55.1986779
  86.8279312  28.5608013  69.4564064  86.1519949  28.4602142  70.1266440
  87.6506946  28.4047227  69.9200062  78.5758171  34.7979949  62.0776580
  79.1611608  34.0523637  62.2104484  78.3783010  35.1083906  62.9613244
  81.4296827  37.8331197  57.0939022  80.7607202  38.3177324  56.6103062
  81.2909696  38.0800417  58.0082401  73.1675826  27.3685550  60.7981023
  73.2059926  26.8349140  61.5918141  72.6616119  26.8420755  60.1792000
  85.5702095  39.8674940  63.6921680  86.1220403  40.0306562  64.4570766
  85.9108289  40.4579378  63.0201705  80.5466588  22.2150090  64.2943565
  80.6107915  23.0764921  63.8820963  80.4833709  21.6024092  63.5615924
  80.0218861  24.2873223  67.9416599  80.6490900  23.9050300  68.5554124
  79.1646780  24.0687425  68.3072292  90.4212969  34.6936198  69.5470335
  90.9652873  35.3066156  69.0525290  89.8399814  35.2515776  70.0637348
  76.7984404  26.0949652  53.8734954  77.0937845  25.1860330  53.8202008
  75.8972439  26.0737391  53.5515957  88.7070482  37.8156916  60.6785363
  88.5821622  37.0146656  60.1696308  89.3649573  38.3103109  60.1899333
  80.3278651  24.1705648  59.8562503  79.6065236  24.7841616  59.7169976
  81.1171906  24.7063413  59.7779149  90.7705391  35.6165936  62.3064913
  89.8235726  35.4971287  62.2343239  91.1188164  34.7288434  62.3891174
  83.1304964  21.5060075  66.1303155  83.6539366  21.7522371  66.8929464
  82.9117297  22.3380110  65.7106292  78.5272245  23.7763749  53.9974279
  78.1984951  22.8961128  53.8149385  78.8811616  23.7211418  54.8850669
  87.7751824  35.4118652  58.5069265  87.6276786  34.4835359  58.6876835
  88.6005318  35.4338743  58.0226340  81.6414068  24.0636719  54.3649757
  81.9810141  24.5922640  53.6428365  82.0886189  24.4017125  55.1408324
  91.3785946  36.2347211  59.5934138  92.3032493  36.0290072  59.4558589
  91.2101249  35.9863612  60.5023479  84.3357509  22.4473770  63.8152825
  83.9954330  21.6481583  64.2173505  83.6296515  22.7475481  63.2429658
  84.9873981  19.5323082  62.2680148  85.8100050  19.0583560  62.1459038
  85.2312045  20.3113566  62.7678834  83.6282216  22.5611341  52.5643050
  84.3490578  22.9392594  52.0606767  83.0047520  23.2800218  52.6678028
  87.7713338  23.2656490  53.5001382  87.9876953  24.1481128  53.1990210
  87.2907406  22.8742703  52.7707024  82.5112560  26.2242203  60.0772127
  82.3657140  26.5382506  60.9696408  82.0337763  26.8427103  59.5243025
  84.3708943  23.2144751  60.1253016  84.3570511  22.3185844  59.7885314
  85.0881371  23.2215415  60.7591302  86.2235073  23.6482091  62.1706144
  85.9652851  24.5699162  62.1690474  85.6920114  23.2512526  62.8606608
  91.1681262  36.7532878  54.9496229  91.3418140  36.1879301  54.1970082
  91.6610153  37.5533773  54.7675719  76.9858222  28.7647547  63.0159788
  76.4411690  29.5407355  63.1480062  77.8637572  29.1118352  62.8578909
  83.7745839  22.0959131  55.3940586  83.8961750  21.1675777  55.5931474
  83.4847881  22.1097817  54.4818902  86.6437029  19.7814042  58.5307306
  86.6658726  19.8453375  57.5759286  87.0605088  18.9418550  58.7247812
  97.0220653  29.5169301  56.5686529  97.4651799  28.7676626  56.1705652
  96.1447164  29.5079438  56.1860261  92.1556435  36.0699643  52.0493127
  92.8507339  36.6906335  52.2680442  92.4979585  35.2194994  52.3245505
  77.7724244  27.8917444  65.9089945  77.0305980  28.0400079  66.4954575
  77.4516988  28.1525709  65.0456694  94.0547858  33.5199348  53.5780458
  94.5799182  33.8586621  52.8529778  93.9670210  32.5846363  53.3943593
  85.7167906  37.4333422  65.7070335  86.0255033  37.1882569  66.5793034
  86.5143388  37.6380060  65.2189205  85.7388518  39.5871331  57.9375711
  85.2993509  39.0947710  58.6308568  86.4896635  39.0444299  57.6967787
  78.2180857  35.7782872  57.9400339  79.0438877  35.4786644  57.5598983
  77.8674909  35.0090495  58.3890128  83.1862391  35.1309341  60.0098013
  82.5642400  34.4680046  59.7100241  83.8567258  35.1570472  59.3271661
  76.4189463  33.6969199  58.8989273  75.5821371  33.2691373  58.7173274
  76.3913108  33.8901642  59.8360064  83.2586918  23.6091129  69.6030519
  83.3075074  24.4853251  69.2208289  83.8009432  23.0668522  69.0302162
  93.7441764  34.1532252  68.8831656  92.9537308  34.1356391  68.3436156
  93.5075118  34.6920545  69.6380693  93.8639639  31.0024718  66.1964385
  93.9137644  30.8374726  67.1379907  93.7553562  30.1351977  65.8062265
  82.7475898  33.6813264  53.4856474  82.8964018  34.3648728  52.8323146
  83.5542341  33.6618354  54.0005929  91.1543401  26.9855646  67.5123691
  92.0553264  26.8462111  67.2207689  91.2291376  27.1510101  68.4521869
  85.4886207  24.3622501  66.3576878  84.6189516  24.6556067  66.0859466
  85.7245687  24.9462946  67.0784141  95.3657836  33.4221660  66.4406406
  95.0742644  33.7851640  67.2769867  94.7529967  32.7088668  66.2619738
  96.5653518  30.9874539  58.9608976  97.4000409  31.4264344  59.1246537
  96.7012647  30.5113193  58.1417222  93.6145024  28.5454274  64.9086464
  94.0899146  28.7381921  64.1005316  92.6910589  28.6013460  64.6629848
  80.5028531  29.7078442  54.4917542  80.2574572  28.8040772  54.6897753
  80.6724445  29.7095592  53.5497020  88.1925240  20.5802118  63.8742298
  88.7107184  21.3163145  63.5488787  87.8380373  20.8866111  64.7089057
  79.7724178  25.4406799  51.9903704  79.0793423  25.5151154  51.3343740
  79.5275930  24.6767143  52.5125221  88.4437835  17.0002400  59.3943195
  88.7239588  16.3325589  60.0203621  89.2288441  17.1931496  58.8817859
  86.2471303  36.1761394  50.9568221  85.6745270  36.7951581  50.5038693
  86.8204097  36.7260756  51.4908143  92.3146693  25.4220034  63.1414770
  93.2664116  25.5218132  63.1626994  92.1450143  24.6298303  63.6512854
  90.3361072  22.5075618  63.3274171  89.7411004  22.7880630  62.6320659
  90.0510769  22.9969519  64.0990912  89.4668563  36.4598544  52.0876803
  90.3999236  36.3944106  52.2909679  89.3791776  37.2954811  51.6291336
  92.0956580  35.7764415  49.0480751  92.0170211  35.4424278  49.9416509
  92.9166246  36.2686183  49.0472223  94.7934771  28.6426154  62.2557069
  94.7611091  27.7042155  62.4416753  95.4035394  28.7210191  61.5222894
  86.6318102  27.5122207  48.2984273  87.5777206  27.3828415  48.3672692
  86.2532347  26.7736869  48.7753702  94.9429259  25.4337198  62.3015353
  94.4268308  24.6495654  62.1145281  95.8269208  25.1055914  62.4661872
  92.6039986  19.1778213  58.2611165  92.4064807  18.8693301  59.1454497
  93.2139692  19.9039852  58.3909095 100.6111321  29.7042161  61.3963106
 101.3414709  29.4427449  61.9570810 100.0018266  28.9670883  61.4365174
  98.6926618  27.8450024  61.9937557  97.9659781  27.7105988  61.3854049
  98.2773905  28.1526852  62.7994275  86.5156794  31.5639953  69.7584930
  87.4359804  31.7418552  69.9524977  86.4806377  30.6195999  69.6064630
  84.8161019  25.4372183  48.2339159  83.9092474  25.1405296  48.3101872
  85.0937000  25.1402002  47.3673445  75.7338959  26.7578547  58.6838205
  75.4141743  25.9043855  58.3912579  75.1872387  26.9727125  59.4396172
  79.5118867  29.4740988  62.4007712  79.7304876  30.4058096  62.4195745
  79.9244640  29.1148962  63.1862515  86.4323084  19.9809073  54.3883400
  85.6223813  19.6356158  54.7638646  87.1207501  19.6716617  54.9771012
  88.3613633  19.0587120  56.0107697  88.9144671  19.4782573  56.6697720
  88.5983719  18.1322868  56.0530653  84.3846732  25.0474194  71.7910461
  84.2843459  25.9968551  71.7222552  84.1668274  24.7192433  70.9186531
  83.5859803  22.2959119  48.3751138  84.4478967  22.6214017  48.6346955
  83.7710147  21.5090615  47.8624204  75.6027219  30.3781458  60.6531327
  74.9090691  29.9635411  60.1401281  76.3500210  30.4201995  60.0564746
  91.7392440  21.1687645  55.5186361  91.1591109  21.8272449  55.1364413
  91.4728373  20.3464990  55.1073778  90.1896006  20.5692703  57.7207681
  90.6895785  20.6809237  56.9122000  90.8331614  20.2653756  58.3608490
  84.2478002  28.4771332  70.6075522  83.7645084  29.2771693  70.8139411
  84.3338941  28.4879277  69.6542966  77.5163962  30.3099712  58.5297342
  77.4934650  30.4087399  57.5779225  77.8264598  31.1564863  58.8514508
  80.1751340  32.3675867  62.6443956  81.1294593  32.3359810  62.5773888
  79.9763863  31.9066491  63.4594182  80.7650722  30.9376983  65.2114754
  81.5843611  31.4321062  65.2349591  81.0387529  30.0208951  65.1832321
  90.5217318  23.3287736  54.5742709  89.6343173  23.6137386  54.3562904
  90.9371307  23.1681499  53.7269986  93.8731854  23.3534257  58.2897048
  94.6492244  23.8430709  58.5621665  93.1479988  23.7792311  58.7468918
  96.3104413  24.0661876  59.3470989  96.9048903  23.8257612  58.6364297
  96.3830996  23.3469006  59.9744525  78.5301568  37.9095487  59.6614154
  78.3956036  37.1495888  59.0952152  78.1133631  38.6336387  59.1942943
  89.6660531  33.0932410  48.6690729  90.3696381  33.2982413  49.2848385
  88.9423180  33.6609172  48.9339813  90.4958342  28.8442271  54.7892999
  90.4393543  29.3010823  53.9500632  91.0486684  28.0832956  54.6115842
  94.3063147  24.6332003  55.6143119  94.0500082  24.2328639  56.4451327
  93.6816016  25.3475797  55.4893258  98.6175485  27.3728077  58.1214410
  98.0575043  27.4421266  58.8945972  98.0118989  27.1969061  57.4013906
  81.6870694  38.8064804  59.8732597  81.5703078  39.7510236  59.7711287
  80.8663140  38.5038365  60.2618396  91.5747229  33.5314939  50.7189189
  92.4092833  33.0996138  50.5366664  91.4131572  33.3596953  51.6466084
  91.2293121  30.0347053  52.0845529  91.1741925  29.8691324  51.1433973
  90.6039176  30.7423086  52.2407718  76.0185636  25.2715117  65.9106951
  76.6644499  24.7614071  66.3994176  75.8102787  26.0083799  66.4850376
  88.5439028  32.3395965  71.4099091  89.4130188  32.5136617  71.0485726
  88.0645780  33.1590381  71.2874821  84.5389246  19.5355162  51.6630847
  84.5267916  20.4797002  51.8199118  85.4312668  19.3525307  51.3690308
  82.7125208  39.4593066  63.0888525  83.6152455  39.4916676  63.4055020
  82.4862578  38.5293517  63.1034861  84.4678810  38.2124052  59.7498604
  83.5174441  38.2125914  59.6362976  84.7711296  37.4656787  59.2334638
  88.3541366  16.1297938  55.9176784  87.5873762  15.5756425  56.0633466
  88.7652071  16.2019807  56.7790935  80.3583127  22.4182734  70.0081965
  81.2214588  22.0619539  70.2185290  79.7848538  22.0796629  70.6957369
 100.2031504  44.0484591  60.8144366 100.8409914  43.9291338  60.1107706
 100.0852347  44.9965434  60.8732318  97.0121210  44.0012019  60.7505891
  96.6739722  43.8853083  59.8626426  97.8810978  43.6003184  60.7306897
  92.8708026  45.8547495  56.7402782  92.3072891  45.7637432  55.9719069
  92.7560421  45.0347399  57.2205274  97.4940993  45.1546870  66.7092096
  97.4829634  44.7599669  65.8372600  97.6561633  44.4212943  67.3025868
  90.4172458  47.3498687  59.5787002  91.2093750  47.0089511  59.1633301
  90.6569108  47.4593662  60.4989155  98.4507585  49.5218463  52.0517247
  97.7995564  50.1072543  51.6651260  99.2451947  50.0524658  52.1112284
  92.3763212  46.6107600  52.4504381  93.1494088  46.0636587  52.3117257
  92.7288611  47.4751849  52.6618842  94.2148254  47.9383982  65.6571280
  93.9238120  48.8429613  65.5417946  94.8505239  47.9800510  66.3715350
  95.1404461  45.3160831  62.2472640  95.7368033  45.0916853  61.5329603
  95.1979433  44.5745576  62.8498088  94.7129489  42.7700266  50.0822831
  94.9655010  42.2481787  49.3206294  93.7754049  42.6066411  50.1849514
  99.7572772  41.7736044  57.8897574 100.5435862  41.3555468  57.5387991
 100.0211477  42.6782137  58.0579222  99.9282850  47.2108895  52.5886231
  99.2928683  47.2843521  53.3007135  99.5980256  47.8002493  51.9105310
 105.1581199  41.7111278  58.7930553 105.8906371  41.1410494  59.0268382
 104.4020555  41.3232878  59.2337058  94.4325778  44.6728372  52.2847206
  94.3162036  43.9973275  52.9528290  94.5428038  44.1860746  51.4679359
  96.7757319  44.1338519  55.9893895  96.4115526  43.6069140  56.7006816
  97.6324435  43.7436988  55.8160380 102.6806620  35.4232852  63.2525161
 102.3489945  36.2928263  63.0286376 102.0852233  35.1069136  63.9319192
  96.4162806  39.1628419  50.9855243  96.5837208  40.0308655  51.3525715
  96.2259975  39.3255700  50.0616533  99.1738139  47.6245398  62.6521074
  98.8738862  48.5270436  62.5436881  98.8289199  47.3577581  63.5042227
  92.6250621  44.0759194  58.6857778  91.7001117  43.9435409  58.8935470
  92.8735034  44.8553414  59.1827721 102.5735283  40.1427938  60.3318511
 101.6652160  40.0743346  60.0377272 102.5222879  40.6199883  61.1600337
  96.3952027  41.6186076  51.9701910  96.2751652  42.0643127  52.8087391
  95.7004615  41.9671394  51.4115448  89.9859432  43.7192468  59.5201567
  90.1151813  43.9726947  60.4340979  89.3056883  44.3120176  59.2006222
  94.1558919  54.3889718  55.6192042  94.0782949  55.3397543  55.6980522
  93.5520563  54.0435591  56.2766968  96.6476149  41.5617583  68.2753408
  95.8709483  42.1211504  68.2656273  97.2866712  42.0474366  68.7968279
 104.4396929  38.3444376  62.1096385 103.7971310  38.6376909  61.4636180
 103.9351858  38.2297297  62.9149582 102.0937093  42.0907549  52.7982244
 103.0054949  42.3234936  52.6229942 101.5846740  42.6744594  52.2357323
  94.9022521  44.3703037  67.8371375  95.6437206  44.9088081  67.5606199
  94.1959507  44.9969326  67.9942927 100.3777861  46.5132177  66.4343537
 100.7861217  46.0714588  65.6898169  99.6555122  45.9384805  66.6877730
  96.7308931  41.4504784  63.8077094  97.5770126  41.8744198  63.9511743
  96.6707569  40.7938408  64.5015657 100.7006675  47.0733368  60.1895826
 100.0715538  47.2379082  59.4871894 100.3132338  47.4874977  60.9606790
 104.5795907  48.0087806  57.5440190 103.8946946  48.3886707  56.9937223
 104.6639757  48.6183132  58.2772137  99.8808376  39.1109152  65.4658268
  99.6369308  39.8651213  64.9292543 100.1568307  39.4894500  66.3005515
 101.8346839  45.6547765  64.1435533 102.0463734  46.2979525  63.4669914
 101.7876587  44.8210081  63.6757463  99.4373068  38.2665585  61.0472105
  98.5757547  38.5646839  61.3388843  99.4635503  38.4835984  60.1153138
  96.2534637  46.8107776  57.4545911  96.7172983  47.0895479  56.6650533
  95.9891435  45.9091221  57.2719002  93.1458718  46.3579258  60.3925674
  93.7160075  46.7866526  59.7543159  93.7366830  46.0761842  61.0909860
  95.1903523  42.9330928  54.2635476  95.8927567  43.3851972  54.7309402
  94.8584152  42.2914747  54.8915369  93.6383885  41.5242685  68.6386685
  93.0082545  42.2058966  68.8722082  93.5319973  41.4125767  67.6939824
  88.9328857  41.1914481  59.5652610  88.1427911  41.4472010  59.0892720
  89.4240105  42.0062819  59.6704650 102.9492667  48.5319720  62.3157890
 103.7710111  48.1299907  62.0340572 102.9455070  48.4287954  63.2674006
  90.8843603  41.5559060  56.5236086  90.0874766  41.6677755  57.0419582
  90.6569195  41.8945712  55.6576977  96.7149270  48.0803763  64.4718601
  96.7793703  48.5424171  65.3076773  96.0060194  47.4501128  64.6000911
  87.2166560  41.4444971  61.9967600  87.4674599  42.3291981  62.2625176
  87.7526109  41.2649573  61.2242692 111.0398660  44.8758469  58.6642862
 110.2862368  44.3065867  58.5086866 111.1746201  44.8421133  59.6113497
  96.4297288  49.7471871  54.3397581  96.2942963  50.5923407  54.7682429
  96.9707101  49.9491149  53.5763515  92.9164628  35.8263451  71.0011936
  92.5231573  35.2729649  71.6759581  93.7330768  36.1374029  71.3918454
  89.8826685  47.2647309  54.9125506  90.3951206  48.0590559  55.0631071
  90.5349398  46.5673599  54.8459108  91.6921570  50.3813065  56.9948260
  91.8688198  51.3031030  56.8069243  92.4878404  50.0671484  57.4242639
  95.8332589  37.2421330  68.5932193  96.5742302  37.8428483  68.5136656
  96.0650511  36.4998968  68.0350236  90.9773927  42.4277697  66.8710423
  90.8627442  41.5262954  67.1717522  90.1218444  42.6741394  66.5195239
  98.0565764  50.3695437  68.4697923  97.6129619  49.5831816  68.1518828
  98.7182978  50.5574588  67.8041814  92.8152886  51.8991239  62.9958602
  93.3660311  51.7708302  62.2235596  91.9764361  52.1986128  62.6453495
 100.1547002  50.6498237  66.4979325 100.1365478  51.4707118  66.0059594
 101.0766923  50.5252313  66.7229466  96.6120057  48.1642367  67.3402833
  97.1448393  47.4030655  67.1102141  96.0834138  47.8716019  68.0826987
  99.7789752  33.2702433  62.8696475  99.4354021  34.1604075  62.7935585
 100.1468714  33.0804090  62.0066060  87.8475602  45.5935963  55.6885077
  88.6850824  46.0032972  55.4718785  88.0253870  44.6535405  55.6585271
  99.7440034  43.2611044  51.3768910  99.2286658  44.0315649  51.6157297
  99.4717343  42.5876180  52.0001971  97.3287145  38.1060745  56.4354148
  96.4728742  37.7167595  56.2559787  97.7414097  38.1852706  55.5753934
  98.8586292  35.6407088  60.8345708  98.3551088  35.6037223  60.0213513
  99.1516899  36.5499831  60.8942365  95.1029178  35.7245818  59.8411890
  95.9682175  35.5288626  59.4817779  95.1706687  35.4956169  60.7681246
 104.7174308  46.0143399  53.3122083 103.9403751  45.6754558  52.8677245
 105.3965789  46.0196022  52.6377048  99.5326337  41.1338136  53.2028691
  99.2276473  41.4484285  54.0538834 100.4856780  41.2119556  53.2456024
  97.9772769  47.2928359  54.8521645  97.4494131  46.5581119  54.5394882
  97.4760272  48.0703036  54.6061613 102.9565615  45.4877380  59.9688691
 102.2989290  46.1776641  60.0568820 103.7606015  45.8773812  60.3122678
  92.7091497  37.9548026  57.2128257  93.2835249  37.7323207  56.4801449
  93.2962479  38.0236720  57.9656858 101.7671074  43.8421753  58.0192633
 102.2802956  44.4751744  58.5214343 102.4172298  43.2422948  57.6535993
  93.0361084  39.9852487  51.2324142  92.1998396  40.3227173  51.5533417
  92.8965854  39.8501466  50.2951279  95.0114165  34.8289275  55.9403326
  94.3578577  34.5138292  55.3159941  94.9694639  34.2065015  56.6663149
  96.1225369  45.1108570  47.8556618  95.2152431  44.8797823  48.0547767
  96.6196401  44.3146189  48.0430600  99.0293448  53.8206077  50.7753304
  98.3555147  54.1237774  51.3838262  99.4159270  54.6235157  50.4258761
  98.2451905  41.3171208  60.2650974  97.3274466  41.5386155  60.1072662
  98.6612049  41.3917519  59.4062681  99.0286953  42.7162624  55.3953654
  99.7758772  43.2284021  55.0860776  99.2978542  42.3946676  56.2558047
  97.3013603  45.2121164  52.3780608  96.3924822  44.9280197  52.4753078
  97.3308687  45.6320243  51.5183915 102.5332870  48.8227754  56.1471776
 102.0795197  47.9818664  56.2036966 101.9026837  49.4589152  56.4846556
 101.4765790  39.7519740  57.3772443 100.7388547  39.2397126  57.7082686
 101.7292563  39.3120122  56.5655720 100.9765810  50.6604251  57.0821594
 101.2688784  51.2209308  56.3633959 101.4864430  50.9532812  57.8374753
 101.5777417  32.5295992  57.9714212 101.8836294  31.6693355  57.6840127
 102.3030022  33.1213612  57.7713206  87.8701773  42.9326679  56.3595810
  87.6726173  42.3396039  55.6346877  87.3148437  42.6278889  57.0771749
  95.8498497  42.8249785  58.4790403  95.9047107  41.8723621  58.4032880
  95.0389699  42.9809224  58.9631702  96.9989691  46.7529908  49.7168687
  96.5609121  46.0365767  49.2574324  97.7400132  46.9806023  49.1553778
  93.7890857  41.4426845  56.2380782  92.9758722  41.7421015  56.6445974
  94.2849851  41.0482534  56.9555265  95.9399435  51.4384602  58.1715047
  95.8975614  51.6645448  57.2423579  96.8562134  51.2047976  58.3200848
  99.3865069  41.9068669  65.0695676  99.7414456  42.1340142  65.9290142
 100.0337200  42.2387046  64.4472932 105.1162806  45.0287105  55.7745005
 104.9780704  45.2188701  54.8466194 104.7599024  45.7906488  56.2313056
  93.2804932  39.0145200  61.8542017  93.9204311  38.8733959  61.1564981
  92.4482462  38.7279714  61.4780619 105.1432185  47.0963632  60.7856277
 105.5768692  47.0038921  61.6339331 105.8563766  47.0721133  60.1476293
  94.0565236  48.3147631  57.9677010  94.8505834  47.8197951  57.7659585
  93.3456928  47.7865494  57.6044715  98.8760080  50.6965726  62.3189377
  98.9297102  51.2656663  63.0867093  98.0074861  50.8667611  61.9543415
  90.3647999  42.4590713  54.0436762  89.4345587  42.3975168  54.2606725
  90.4605471  41.9366665  53.2473404  90.2833548  38.9845525  56.6315004
  90.5440365  39.8990859  56.5224165  91.1050720  38.5169968  56.7811617
  91.7558473  40.3983283  63.8013829  92.4281527  40.1900645  63.1526478
  90.9288260  40.2005369  63.3619061 106.0047735  47.1387333  63.3189162
 106.1983625  48.0433143  63.5648437 105.9048353  46.6794752  64.1527747
  97.6584045  37.0245223  65.8179490  97.0111960  37.7235173  65.7243966
  98.4285061  37.4581367  66.1855738 101.0662843  47.2894076  68.8930043
 100.9148350  47.0604627  67.9760126 101.0567523  48.2464677  68.9061388
  97.8348180  44.8625988  63.8776309  98.7640240  45.0137148  63.7045277
  97.4139210  44.9510009  63.0224956  96.6336512  48.8876653  61.6474847
  96.4947597  48.5195437  62.5200785  95.8451108  49.4024292  61.4758805
  97.2284664  53.9885749  52.9900383  97.4036419  53.5173792  53.8046006
  96.5417452  54.6151515  53.2181644  98.1841727  48.2658255  59.0363685
  97.8491559  48.2259025  59.9321335  97.6845672  47.6002971  58.5634095
  92.1585971  43.6725885  64.5616266  92.0205769  42.9406124  65.1627805
  93.0690894  43.5834786  64.2800454 101.1200918  45.6114290  49.3100744
 100.5030089  44.8861118  49.2133797 100.6517407  46.3723650  48.9667819
  94.7868271  43.3845845  64.0499945  95.4967890  42.7439037  64.0086564
  94.7437579  43.6358740  64.9726126 102.7755050  50.3213198  66.9706525
 102.7167596  49.6372418  66.3037108 103.1774568  51.0632188  66.5187151
  93.4997205  40.3711063  65.8695585  92.9634562  39.9201801  66.5217181
  92.9113914  40.5056972  65.1266049  91.7945749  57.1375112  59.7640244
  92.0342347  57.7693636  60.4419262  90.9514945  56.7863152  60.0505603
  92.9099464  39.8299714  48.4322049  92.0328931  39.7088515  48.0684295
  93.3857217  39.0385792  48.1800937 102.7772457  48.2852782  65.2020504
 101.8899236  47.9478704  65.3246903 103.3471008  47.5535813  65.4389270
  84.4301604  44.6176874  58.5263556  85.1172644  44.3038604  57.9384571
  84.2749733  45.5218238  58.2530807  89.2336327  39.5067070  62.9548579
  89.1494515  38.8992740  62.2198989  88.4119033  39.9976089  62.9558076
  96.3073611  52.9454234  62.1681748  96.2343782  53.7509206  62.6801052
  95.8651004  53.1446200  61.3429769  96.0963390  52.1826004  55.6784569
  95.3130912  52.7247685  55.7722794  96.7956135  52.6999984  56.0778810
  99.4060040  37.9920634  58.3218774  99.9028740  37.2390596  58.0019845
  98.6347022  38.0284951  57.7561984 107.2589798  43.6960999  59.9637066
 107.2479674  44.5785715  59.5930999 106.3907177  43.3432550  59.7691603
  98.7672294  52.8441068  64.3239906  99.4800266  53.4788533  64.2515808
  98.2762323  52.9404934  63.5079908 100.4889821  46.7492321  55.8957198
  99.5546100  46.8693784  55.7261902 100.6666490  45.8464788  55.6317208
  95.9895009  40.1338017  58.0490459  95.6192797  39.5809057  58.7371365
  96.4854102  39.5296150  57.4965459 103.8762372  42.5909640  56.4307232
 104.3422825  43.4237632  56.3567535 104.3269873  42.1254622  57.1352490
  93.8184208  50.5935512  65.1445477  94.5193667  51.2271995  65.2974871
  93.3479323  50.9350243  64.3841116 101.9438604  48.9353462  53.4293384
 102.2198447  48.8210056  54.3387258 101.0743102  48.5370947  53.3905557
 101.8479035  34.9590227  60.4698133 100.9342115  35.1894454  60.6380340
 102.2772137  35.0428671  61.3212166 101.6185494  43.1480119  62.9698027
 100.9656944  43.3956027  62.3150480 101.9965874  42.3344258  62.6360505
  98.5792668  53.1839813  57.0726198  98.7615062  52.3661468  57.5353950
  99.4025654  53.4007505  56.6351088  98.9134833  52.1107998  54.3341246
  99.4422599  51.6000452  53.7211408  99.1763053  51.7950528  55.1986779
  97.6673067  43.8899930  69.4564064  96.9913704  43.7894060  70.1266440
  98.4900701  43.7339144  69.9200062  89.4151926  50.1271867  62.0776580
  90.0005363  49.3815555  62.2104484  89.2176764  50.4375824  62.9613244
  92.2690581  53.1623114  57.0939022  91.6000956  53.6469242  56.6103062
  92.1303451  53.4092335  58.0082401  84.0069581  42.6977467  60.7981023
  84.0453680  42.1641058  61.5918141  83.5009873  42.1712673  60.1792000
  96.4095850  55.1966858  63.6921680  96.9614158  55.3598479  64.4570766
  96.7502043  55.7871296  63.0201705  91.3860343  37.5442008  64.2943565
  91.4501669  38.4056839  63.8820963  91.3227463  36.9316009  63.5615924
  90.8612615  39.6165140  67.9416599  91.4884654  39.2342218  68.5554124
  90.0040534  39.3979342  68.3072292 101.2606724  50.0228115  69.5470335
 101.8046628  50.6358074  69.0525290 100.6793569  50.5807694  70.0637348
  87.6378158  41.4241569  53.8734954  87.9331599  40.5152248  53.8202008
  86.7366194  41.4029309  53.5515957  99.5464237  53.1448833  60.6785363
  99.4215376  52.3438573  60.1696308 100.2043328  53.6395027  60.1899333
  91.1672405  39.4997566  59.8562503  90.4458991  40.1133534  59.7169976
  91.9565661  40.0355331  59.7779149 101.6099145  50.9457854  62.3064913
 100.6629481  50.8263205  62.2343239 101.9581918  50.0580352  62.3891174
  93.9698719  36.8351992  66.1303155  94.4933120  37.0814289  66.8929464
  93.7511052  37.6672027  65.7106292  89.3666000  39.1055667  53.9974279
  89.0378706  38.2253046  53.8149385  89.7205370  39.0503336  54.8850669
  98.6145579  50.7410570  58.5069265  98.4670541  49.8127277  58.6876835
  99.4399072  50.7630660  58.0226340  92.4807823  39.3928637  54.3649757
  92.8203895  39.9214558  53.6428365  92.9279943  39.7309043  55.1408324
 102.2179700  51.5639128  59.5934138 103.1426248  51.3581990  59.4558589
 102.0495004  51.3155530  60.5023479  95.1751264  37.7765688  63.8152825
  94.8348084  36.9773501  64.2173505  94.4690270  38.0767398  63.2429658
  95.8267735  34.8615000  62.2680148  96.6493805  34.3875478  62.1459038
  96.0705799  35.6405484  62.7678834  94.4675970  37.8903258  52.5643050
  95.1884332  38.2684511  52.0606767  93.8441274  38.6092135  52.6678028
  98.6107093  38.5948407  53.5001382  98.8270707  39.4773045  53.1990210
  98.1301160  38.2034621  52.7707024  93.3506314  41.5534121  60.0772127
  93.2050895  41.8674424  60.9696408  92.8731518  42.1719021  59.5243025
  95.2102697  38.5436669  60.1253016  95.1964266  37.6477762  59.7885314
  95.9275125  38.5507332  60.7591302  97.0628828  38.9774009  62.1706144
  96.8046606  39.8991079  62.1690474  96.5313868  38.5804443  62.8606608
 102.0075017  52.0824796  54.9496229 102.1811894  51.5171218  54.1970082
 102.5003908  52.8825691  54.7675719  87.8251976  44.0939465  63.0159788
  87.2805444  44.8699273  63.1480062  88.7031326  44.4410269  62.8578909
  94.6139593  37.4251049  55.3940586  94.7355504  36.4967695  55.5931474
  94.3241635  37.4389735  54.4818902  97.4830783  35.1105959  58.5307306
  97.5052480  35.1745292  57.5759286  97.8998842  34.2710468  58.7247812
 107.8614408  44.8461219  56.5686529 108.3045554  44.0968544  56.1705652
 106.9840918  44.8371355  56.1860261 102.9950189  51.3991560  52.0493127
 103.6901094  52.0198253  52.2680442 103.3373339  50.5486912  52.3245505
  88.6117998  43.2209361  65.9089945  87.8699734  43.3691997  66.4954575
  88.2910743  43.4817627  65.0456694 104.8941612  48.8491266  53.5780458
 105.4192936  49.1878539  52.8529778 104.8063965  47.9138281  53.3943593
  96.5561661  52.7625339  65.7070335  96.8648787  52.5174486  66.5793034
  97.3537143  52.9671978  65.2189205  96.5782273  54.9163249  57.9375711
  96.1387263  54.4239628  58.6308568  97.3290390  54.3736217  57.6967787
  89.0574612  51.1074790  57.9400339  89.8832632  50.8078562  57.5598983
  88.7068664  50.3382412  58.3890128  94.0256145  50.4601258  60.0098013
  93.4036154  49.7971963  59.7100241  94.6961012  50.4862390  59.3271661
  87.2583217  49.0261116  58.8989273  86.4215125  48.5983291  58.7173274
  87.2306862  49.2193560  59.8360064  94.0980673  38.9383046  69.6030519
  94.1468828  39.8145169  69.2208289  94.6403187  38.3960439  69.0302162
 104.5835518  49.4824169  68.8831656 103.7931062  49.4648308  68.3436156
 104.3468873  50.0212463  69.6380693 104.7033393  46.3316636  66.1964385
 104.7531398  46.1666643  67.1379907 104.5947317  45.4643895  65.8062265
  93.5869652  49.0105182  53.4856474  93.7357772  49.6940646  52.8323146
  94.3936095  48.9910272  54.0005929 101.9937156  42.3147564  67.5123691
 102.8947018  42.1754029  67.2207689 102.0685130  42.4802019  68.4521869
  96.3279961  39.6914419  66.3576878  95.4583270  39.9847985  66.0859466
  96.5639441  40.2754864  67.0784141 106.2051590  48.7513577  66.4406406
 105.9136398  49.1143558  67.2769867 105.5923721  48.0380586  66.2619738
 107.4047272  46.3166457  58.9608976 108.2394164  46.7556261  59.1246537
 107.5406401  45.8405110  58.1417222 104.4538778  43.8746192  64.9086464
 104.9292900  44.0673838  64.1005316 103.5304344  43.9305378  64.6629848
  91.3422285  45.0370359  54.4917542  91.0968327  44.1332689  54.6897753
  91.5118200  45.0387510  53.5497020  99.0318995  35.9094036  63.8742298
  99.5500939  36.6455062  63.5488787  98.6774128  36.2158029  64.7089057
  90.6117933  40.7698717  51.9903704  89.9187177  40.8443072  51.3343740
  90.3669684  40.0059060  52.5125221  99.2831589  32.3294318  59.3943195
  99.5633343  31.6617507  60.0203621 100.0682196  32.5223414  58.8817859
  97.0865058  51.5053312  50.9568221  96.5139025  52.1243499  50.5038693
  97.6597851  52.0552674  51.4908143 103.1540447  40.7511952  63.1414770
 104.1057870  40.8510050  63.1626994 102.9843898  39.9590221  63.6512854
 101.1754827  37.8367535  63.3274171 100.5804759  38.1172548  62.6320659
 100.8904524  38.3261436  64.0990912 100.3062317  51.7890462  52.0876803
 101.2392990  51.7236024  52.2909679 100.2185530  52.6246729  51.6291336
 102.9350334  51.1056332  49.0480751 102.8563966  50.7716196  49.9416509
 103.7560001  51.5978100  49.0472223 105.6328525  43.9718072  62.2557069
 105.6004845  43.0334073  62.4416753 106.2429149  44.0502108  61.5222894
  97.4711856  42.8414125  48.2984273  98.4170961  42.7120333  48.3672692
  97.0926101  42.1028787  48.7753702 105.7823014  40.7629115  62.3015353
 105.2662062  39.9787572  62.1145281 106.6662962  40.4347832  62.4661872
 103.4433741  34.5070131  58.2611165 103.2458562  34.1985219  59.1454497
 104.0533446  35.2331770  58.3909095 111.4505075  45.0334079  61.3963106
 112.1808464  44.7719367  61.9570810 110.8412021  44.2962801  61.4365174
 109.5320372  43.1741941  61.9937557 108.8053536  43.0397906  61.3854049
 109.1167659  43.4818770  62.7994275  97.3550549  46.8931871  69.7584930
  98.2753558  47.0710470  69.9524977  97.3200132  45.9487916  69.6064630
  95.6554773  40.7664101  48.2339159  94.7486229  40.4697214  48.3101872
  95.9330754  40.4693919  47.3673445  86.5732714  42.0870465  58.6838205
  86.2535498  41.2335773  58.3912579  86.0266142  42.3019043  59.4396172
  90.3512621  44.8032906  62.4007712  90.5698631  45.7350013  62.4195745
  90.7638395  44.4440880  63.1862515  97.2716839  35.3100991  54.3883400
  96.4617567  34.9648076  54.7638646  97.9601256  35.0008535  54.9771012
  99.2007387  34.3879038  56.0107697  99.7538426  34.8074491  56.6697720
  99.4377474  33.4614786  56.0530653  95.2240486  40.3766111  71.7910461
  95.1237213  41.3260468  71.7222552  95.0062028  40.0484350  70.9186531
  94.4253558  37.6251036  48.3751138  95.2872722  37.9505935  48.6346955
  94.6103902  36.8382532  47.8624204  86.4420974  45.7073376  60.6531327
  85.7484445  45.2927329  60.1401281  87.1893965  45.7493913  60.0564746
 102.5786194  36.4979563  55.5186361 101.9984863  37.1564367  55.1364413
 102.3122127  35.6756907  55.1073778 101.0289761  35.8984621  57.7207681
 101.5289539  36.0101155  56.9122000 101.6725369  35.5945673  58.3608490
  95.0871757  43.8063250  70.6075522  94.6038838  44.6063610  70.8139411
  95.1732696  43.8171195  69.6542966  88.3557716  45.6391630  58.5297342
  88.3328404  45.7379317  57.5779225  88.6658353  46.4856781  58.8514508
  91.0145094  47.6967785  62.6443956  91.9688348  47.6651727  62.5773888
  90.8157618  47.2358409  63.4594182  91.6044476  46.2668901  65.2114754
  92.4237365  46.7612980  65.2349591  91.8781284  45.3500869  65.1832321
 101.3611072  38.6579653  54.5742709 100.4736927  38.9429304  54.3562904
 101.7765061  38.4973417  53.7269986 104.7125608  38.6826174  58.2897048
 105.4885999  39.1722627  58.5621665 103.9873743  39.1084228  58.7468918
 107.1498167  39.3953793  59.3470989 107.7442658  39.1549529  58.6364297
 107.2224751  38.6760924  59.9744525  89.3695323  53.2387404  59.6614154
  89.2349791  52.4787805  59.0952152  88.9527385  53.9628304  59.1942943
 100.5054286  48.4224328  48.6690729 101.2090136  48.6274330  49.2848385
  99.7816935  48.9901090  48.9339813 101.3352096  44.1734189  54.7892999
 101.2787297  44.6302741  53.9500632 101.8880439  43.4124874  54.6115842
 105.1456902  39.9623921  55.6143119 104.8893836  39.5620557  56.4451327
 104.5209770  40.6767715  55.4893258 109.4569240  42.7019994  58.1214410
 108.8968798  42.7713184  58.8945972 108.8512743  42.5260979  57.4013906
  92.5264449  54.1356721  59.8732597  92.4096833  55.0802154  59.7711287
  91.7056895  53.8330283  60.2618396 102.4140983  48.8606857  50.7189189
 103.2486587  48.4288056  50.5366664 102.2525326  48.6888871  51.6466084
 102.0686875  45.3638970  52.0845529 102.0135679  45.1983242  51.1433973
 101.4432931  46.0715003  52.2407718  86.8579390  40.6007035  65.9106951
  87.5038254  40.0905989  66.3994176  86.6496541  41.3375716  66.4850376
  99.3832783  47.6687882  71.4099091 100.2523942  47.8428535  71.0485726
  98.9039534  48.4882299  71.2874821  95.3783001  34.8647079  51.6630847
  95.3661671  35.8088919  51.8199118  96.2706423  34.6817225  51.3690308
  93.5518963  54.7884983  63.0888525  94.4546209  54.8208594  63.4055020
  93.3256333  53.8585434  63.1034861  95.3072565  53.5415970  59.7498604
  94.3568196  53.5417831  59.6362976  95.6105051  52.7948704  59.2334638
  99.1935120  31.4589856  55.9176784  98.4267516  30.9048343  56.0633466
  99.6045825  31.5311725  56.7790935  91.1976881  37.7474652  70.0081965
  92.0608343  37.3911457  70.2185290  90.6242292  37.4088547  70.6957369
 111.0425258  59.3776508  60.8144366 111.6803668  59.2583256  60.1107706
 110.9246101  60.3257352  60.8732318 107.8514965  59.3303936  60.7505891
 107.5133476  59.2145001  59.8626426 108.7204733  58.9295101  60.7306897
 103.7101780  61.1839413  56.7402782 103.1466645  61.0929350  55.9719069
 103.5954175  60.3639317  57.2205274 108.3334748  60.4838788  66.7092096
 108.3223388  60.0891586  65.8372600 108.4955387  59.7504861  67.3025868
 101.2566212  62.6790604  59.5787002 102.0487504  62.3381429  59.1633301
 101.4962862  62.7885579  60.4989155 109.2901339  64.8510380  52.0517247
 108.6389319  65.4364461  51.6651260 110.0845702  65.3816575  52.1112284
 103.2156966  61.9399518  52.4504381 103.9887842  61.3928505  52.3117257
 103.5682365  62.8043767  52.6618842 105.0542009  63.2675900  65.6571280
 104.7631875  64.1721531  65.5417946 105.6898993  63.3092427  66.3715350
 105.9798216  60.6452748  62.2472640 106.5761788  60.4208771  61.5329603
 106.0373187  59.9037494  62.8498088 105.5523244  58.0992184  50.0822831
 105.8048765  57.5773705  49.3206294 104.6147803  57.9358329  50.1849514
 110.5966527  57.1027962  57.8897574 111.3829616  56.6847385  57.5387991
 110.8605231  58.0074054  58.0579222 110.7676604  62.5400812  52.5886231
 110.1322437  62.6135439  53.3007135 110.4374011  63.1294411  51.9105310
 115.9974954  57.0403195  58.7930553 116.7300126  56.4702412  59.0268382
 115.2414310  56.6524796  59.2337058 105.2719533  60.0020290  52.2847206
 105.1555791  59.3265193  52.9528290 105.3821793  59.5152664  51.4679359
 107.6151074  59.4630437  55.9893895 107.2509281  58.9361058  56.7006816
 108.4718190  59.0728906  55.8160380 113.5200374  50.7524769  63.2525161
 113.1883699  51.6220180  63.0286376 112.9245988  50.4361053  63.9319192
 107.2556561  54.4920336  50.9855243 107.4230963  55.3600573  51.3525715
 107.0653730  54.6547618  50.0616533 110.0131894  62.9537315  62.6521074
 109.7132617  63.8562354  62.5436881 109.6682953  62.6869499  63.5042227
 103.4644375  59.4051112  58.6857778 102.5394872  59.2727326  58.8935470
 103.7128788  60.1845331  59.1827721 113.4129038  55.4719856  60.3318511
 112.5045915  55.4035264  60.0377272 113.3616633  55.9491800  61.1600337
 107.2345781  56.9477994  51.9701910 107.1145407  57.3935045  52.8087391
 106.5398370  57.2963312  51.4115448 100.8253186  59.0484386  59.5201567
 100.9545567  59.3018865  60.4340979 100.1450638  59.6412094  59.2006222
 104.9952674  69.7181636  55.6192042 104.9176703  70.6689461  55.6980522
 104.3914317  69.3727508  56.2766968 107.4869903  56.8909501  68.2753408
 106.7103237  57.4503421  68.2656273 108.1260466  57.3766284  68.7968279
 115.2790684  53.6736294  62.1096385 114.6365064  53.9668827  61.4636180
 114.7745613  53.5589214  62.9149582 112.9330848  57.4199467  52.7982244
 113.8448704  57.6526854  52.6229942 112.4240495  58.0036511  52.2357323
 105.7416276  59.6994954  67.8371375 106.4830960  60.2379998  67.5606199
 105.0353261  60.3261243  67.9942927 111.2171615  61.8424095  66.4343537
 111.6254971  61.4006505  65.6898169 110.4948877  61.2676722  66.6877730
 107.5702685  56.7796702  63.8077094 108.4163881  57.2036115  63.9511743
 107.5101323  56.1230326  64.5015657 111.5400430  62.4025286  60.1895826
 110.9109292  62.5671000  59.4871894 111.1526092  62.8166895  60.9606790
 115.4189662  63.3379723  57.5440190 114.7340700  63.7178625  56.9937223
 115.5033511  63.9475050  58.2772137 110.7202131  54.4401070  65.4658268
 110.4763063  55.1943131  64.9292543 110.9962061  54.8186418  66.3005515
 112.6740593  60.9839682  64.1435533 112.8857489  61.6271442  63.4669914
 112.6270342  60.1501999  63.6757463 110.2766822  53.5957503  61.0472105
 109.4151301  53.8938757  61.3388843 110.3029257  53.8127902  60.1153138
 107.0928392  62.1399694  57.4545911 107.5566737  62.4187397  56.6650533
 106.8285190  61.2383138  57.2719002 103.9852473  61.6871175  60.3925674
 104.5553830  62.1158444  59.7543159 104.5760585  61.4053760  61.0909860
 106.0297278  58.2622846  54.2635476 106.7321321  58.7143890  54.7309402
 105.6977906  57.6206665  54.8915369 104.4777639  56.8534603  68.6386685
 103.8476300  57.5350884  68.8722082 104.3713727  56.7417684  67.6939824
  99.7722612  56.5206399  59.5652610  98.9821666  56.7763927  59.0892720
 100.2633859  57.3354737  59.6704650 113.7886421  63.8611638  62.3157890
 114.6103865  63.4591825  62.0340572 113.7848824  63.7579872  63.2674006
 101.7237357  56.8850978  56.5236086 100.9268520  56.9969672  57.0419582
 101.4962949  57.2237630  55.6576977 107.5543025  63.4095681  64.4718601
 107.6187457  63.8716088  65.3076773 106.8453949  62.7793046  64.6000911
  98.0560315  56.7736889  61.9967600  98.3068353  57.6583899  62.2625176
  98.5919863  56.5941491  61.2242692 107.2691042  65.0763789  54.3397581
 107.1336717  65.9215324  54.7682429 107.8100855  65.2783066  53.5763515
 103.7558382  51.1555368  71.0011936 103.3625328  50.6021567  71.6759581
 104.5724522  51.4665947  71.3918454 100.7220440  62.5939227  54.9125506
 101.2344960  63.3882477  55.0631071 101.3743153  61.8965517  54.8459108
 102.5315325  65.7104983  56.9948260 102.7081953  66.6322948  56.8069243
 103.3272158  65.3963402  57.4242639 106.6726343  52.5713248  68.5932193
 107.4136056  53.1720401  68.5136656 106.9044266  51.8290885  68.0350236
 101.8167681  57.7569615  66.8710423 101.7021196  56.8554872  67.1717522
 100.9612199  58.0033312  66.5195239 108.8959519  65.6987355  68.4697923
 108.4523373  64.9123734  68.1518828 109.5576732  65.8866506  67.8041814
 103.6546640  67.2283157  62.9958602 104.2054065  67.1000220  62.2235596
 102.8158116  67.5278046  62.6453495 110.9940757  65.9790155  66.4979325
 110.9759232  66.7999036  66.0059594 111.9160677  65.8544230  66.7229466
 107.4513811  63.4934285  67.3402833 107.9842148  62.7322573  67.1102141
 106.9227892  63.2007936  68.0826987 110.6183506  48.5994351  62.8696475
 110.2747775  49.4895992  62.7935585 110.9862469  48.4096008  62.0066060
  98.6869357  60.9227881  55.6885077  99.5244579  61.3324889  55.4718785
  98.8647624  59.9827323  55.6585271 110.5833789  58.5902962  51.3768910
 110.0680412  59.3607566  51.6157297 110.3111097  57.9168098  52.0001971
 108.1680900  53.4352662  56.4354148 107.3122496  53.0459513  56.2559787
 108.5807852  53.5144623  55.5753934 109.6980046  50.9699006  60.8345708
 109.1944842  50.9329141  60.0213513 109.9910653  51.8791748  60.8942365
 105.9422932  51.0537735  59.8411890 106.8075929  50.8580544  59.4817779
 106.0100441  50.8248087  60.7681246 115.5568063  61.3435316  53.3122083
 114.7797506  61.0046476  52.8677245 116.2359544  61.3487939  52.6377048
 110.3720092  56.4630054  53.2028691 110.0670228  56.7776203  54.0538834
 111.3250534  56.5411474  53.2456024 108.8166524  62.6220277  54.8521645
 108.2887885  61.8873037  54.5394882 108.3154027  63.3994953  54.6061613
 113.7959370  60.8169298  59.9688691 113.1383044  61.5068559  60.0568820
 114.5999769  61.2065729  60.3122678 103.5485251  53.2839943  57.2128257
 104.1229003  53.0615125  56.4801449 104.1356234  53.3528638  57.9656858
 112.6064829  59.1713670  58.0192633 113.1196710  59.8043662  58.5214343
 113.2566053  58.5714866  57.6535993 103.8754839  55.3144404  51.2324142
 103.0392151  55.6519091  51.5533417 103.7359608  55.1793384  50.2951279
 105.8507919  50.1581192  55.9403326 105.1972331  49.8430209  55.3159941
 105.8088393  49.5356933  56.6663149 106.9619124  60.4400487  47.8556618
 106.0546186  60.2089741  48.0547767 107.4590156  59.6438107  48.0430600
 109.8687203  69.1497994  50.7753304 109.1948902  69.4529691  51.3838262
 110.2553025  69.9527075  50.4258761 109.0845659  56.6463126  60.2650974
 108.1668221  56.8678073  60.1072662 109.5005803  56.7209436  59.4062681
 109.8680707  58.0454541  55.3953654 110.6152526  58.5575939  55.0860776
 110.1372297  57.7238594  56.2558047 108.1407357  60.5413082  52.3780608
 107.2318577  60.2572115  52.4753078 108.1702441  60.9612161  51.5183915
 113.3726625  64.1519672  56.1471776 112.9188952  63.3110582  56.2036966
 112.7420592  64.7881070  56.4846556 112.3159544  55.0811658  57.3772443
 111.5782301  54.5689044  57.7082686 112.5686318  54.6412039  56.5655720
 111.8159564  65.9896168  57.0821594 112.1082538  66.5501225  56.3633959
 112.3258185  66.2824729  57.8374753 112.4171172  47.8587910  57.9714212
 112.7230049  46.9985273  57.6840127 113.1423777  48.4505530  57.7713206
  98.7095528  58.2618596  56.3595810  98.5119928  57.6687957  55.6346877
  98.1542192  57.9570806  57.0771749 106.6892251  58.1541703  58.4790403
 106.7440861  57.2015539  58.4032880 105.8783453  58.3101142  58.9631702
 107.8383445  62.0821826  49.7168687 107.4002875  61.3657685  49.2574324
 108.5793886  62.3097941  49.1553778 104.6284611  56.7718763  56.2380782
 103.8152477  57.0712933  56.6445974 105.1243606  56.3774451  56.9555265
 106.7793189  66.7676519  58.1715047 106.7369368  66.9937366  57.2423579
 107.6955888  66.5339894  58.3200848 110.2258823  57.2360587  65.0695676
 110.5808211  57.4632060  65.9290142 110.8730954  57.5678964  64.4472932
 115.9556560  60.3579023  55.7745005 115.8174459  60.5480619  54.8466194
 115.5992779  61.1198406  56.2313056 104.1198686  54.3437118  61.8542017
 104.7598065  54.2025877  61.1564981 103.2876217  54.0571631  61.4780619
 115.9825940  62.4255550  60.7856277 116.4162446  62.3330839  61.6339331
 116.6957520  62.4013050  60.1476293 104.8958990  63.6439548  57.9677010
 105.6899589  63.1489869  57.7659585 104.1850682  63.1157412  57.6044715
 109.7153835  66.0257644  62.3189377 109.7690857  66.5948580  63.0867093
 108.8468616  66.1959529  61.9543415 101.2041754  57.7882630  54.0436762
 100.2739342  57.7267086  54.2606725 101.2999226  57.2658583  53.2473404
 101.1227303  54.3137443  56.6315004 101.3834120  55.2282776  56.5224165
 101.9444475  53.8461886  56.7811617 102.5952228  55.7275200  63.8013829
 103.2675281  55.5192562  63.1526478 101.7682014  55.5297286  63.3619061
 116.8441489  62.4679251  63.3189162 117.0377379  63.3725061  63.5648437
 116.7442107  62.0086670  64.1527747 108.4977800  52.3537141  65.8179490
 107.8505715  53.0527091  65.7243966 109.2678815  52.7873285  66.1855738
 111.9056598  62.6185993  68.8930043 111.7542104  62.3896545  67.9760126
 111.8961277  63.5756595  68.9061388 108.6741934  60.1917906  63.8776309
 109.6033994  60.3429066  63.7045277 108.2532964  60.2801927  63.0224956
 107.4730266  64.2168570  61.6474847 107.3341352  63.8487355  62.5200785
 106.6844862  64.7316210  61.4758805 108.0678418  69.3177667  52.9900383
 108.2430174  68.8465710  53.8046006 107.3811206  69.9443433  53.2181644
 109.0235481  63.5950173  59.0363685 108.6885314  63.5550943  59.9321335
 108.5239427  62.9294889  58.5634095 102.9979725  59.0017803  64.5616266
 102.8599523  58.2698042  65.1627805 103.9084649  58.9126703  64.2800454
 111.9594673  60.9406207  49.3100744 111.3423843  60.2153036  49.2133797
 111.4911161  61.7015568  48.9667819 105.6262026  58.7137762  64.0499945
 106.3361644  58.0730955  64.0086564 105.5831334  58.9650657  64.9726126
 113.6148804  65.6505116  66.9706525 113.5561351  64.9664336  66.3037108
 114.0168323  66.3924106  66.5187151 104.3390960  55.7002980  65.8695585
 103.8028317  55.2493719  66.5217181 103.7507668  55.8348889  65.1266049
 102.6339503  72.4667030  59.7640244 102.8736102  73.0985554  60.4419262
 101.7908700  72.1155070  60.0505603 103.7493219  55.1591632  48.4322049
 102.8722685  55.0380433  48.0684295 104.2250972  54.3677710  48.1800937
 113.6166212  63.6144700  65.2020504 112.7292991  63.2770622  65.3246903
 114.1864763  62.8827731  65.4389270  95.2695359  59.9468792  58.5263556
  95.9566399  59.6330522  57.9384571  95.1143488  60.8510156  58.2530807
 100.0730081  54.8358988  62.9548579  99.9888270  54.2284658  62.2198989
  99.2512787  55.3268006  62.9558076 107.1467365  68.2746152  62.1681748
 107.0737537  69.0801124  62.6801052 106.7044758  68.4738118  61.3429769
 106.9357145  67.5117922  55.6784569 106.1524667  68.0539602  55.7722794
 107.6349890  68.0291902  56.0778810 110.2453795  53.3212552  58.3218774
 110.7422494  52.5682514  58.0019845 109.4740776  53.3576868  57.7561984
 118.0983552  59.0252917  59.9637066 118.0873429  59.9077633  59.5930999
 117.2300932  58.6724468  59.7691603 109.6066049  68.1732986  64.3239906
 110.3194021  68.8080451  64.2515808 109.1156077  68.2696852  63.5079908
 111.3283576  62.0784239  55.8957198 110.3939854  62.1985701  55.7261902
 111.5060244  61.1756706  55.6317208 106.8288764  55.4629935  58.0490459
 106.4586551  54.9100975  58.7371365 107.3247856  54.8588068  57.4965459
 114.7156127  57.9201558  56.4307232 115.1816579  58.7529550  56.3567535
 115.1663627  57.4546540  57.1352490 104.6577962  65.9227430  65.1445477
 105.3587422  66.5563913  65.2974871 104.1873077  66.2642161  64.3841116
 112.7832358  64.2645379  53.4293384 113.0592202  64.1501974  54.3387258
 111.9136857  63.8662864  53.3905557 112.6872790  50.2882145  60.4698133
 111.7735869  50.5186372  60.6380340 113.1165891  50.3720589  61.3212166
 112.4579248  58.4772037  62.9698027 111.8050698  58.7247945  62.3150480
 112.8359628  57.6636175  62.6360505 109.4186422  68.5131730  57.0726198
 109.6008817  67.6953386  57.5353950 110.2419408  68.7299422  56.6351088
 109.7528588  67.4399915  54.3341246 110.2816354  66.9292370  53.7211408
 110.0156807  67.1242446  55.1986779 108.5066821  59.2191848  69.4564064
 107.8307458  59.1185977  70.1266440 109.3294455  59.0631062  69.9200062
 100.2545680  65.4563785  62.0776580 100.8399117  64.7107473  62.2104484
 100.0570519  65.7667741  62.9613244 103.1084335  68.4915032  57.0939022
 102.4394711  68.9761160  56.6103062 102.9697205  68.7384253  58.0082401
  94.8463335  58.0269385  60.7981023  94.8847435  57.4932976  61.5918141
  94.3403628  57.5004590  60.1792000 107.2489604  70.5258776  63.6921680
 107.8007912  70.6890397  64.4570766 107.5895798  71.1163213  63.0201705
 102.2254097  52.8733925  64.2943565 102.2895424  53.7348756  63.8820963
 102.1621218  52.2607927  63.5615924 101.7006370  54.9457058  67.9416599
 102.3278409  54.5634135  68.5554124 100.8434289  54.7271260  68.3072292
 112.1000478  65.3520033  69.5470335 112.6440382  65.9649991  69.0525290
 111.5187323  65.9099611  70.0637348  98.4771913  56.7533487  53.8734954
  98.7725354  55.8444165  53.8202008  97.5759948  56.7321226  53.5515957
 110.3857991  68.4740751  60.6785363 110.2609131  67.6730491  60.1696308
 111.0437082  68.9686944  60.1899333 102.0066160  54.8289484  59.8562503
 101.2852745  55.4425451  59.7169976 102.7959415  55.3647248  59.7779149
 112.4492900  66.2749771  62.3064913 111.5023235  66.1555122  62.2343239
 112.7975673  65.3872269  62.3891174 104.8092473  52.1643910  66.1303155
 105.3326875  52.4106207  66.8929464 104.5904806  52.9963945  65.7106292
 100.2059754  54.4347585  53.9974279  99.8772460  53.5544964  53.8149385
 100.5599125  54.3795253  54.8850669 109.4539333  66.0702487  58.5069265
 109.3064295  65.1419195  58.6876835 110.2792827  66.0922578  58.0226340
 103.3201577  54.7220554  54.3649757 103.6597650  55.2506476  53.6428365
 103.7673698  55.0600961  55.1408324 113.0573455  66.8931046  59.5934138
 113.9820002  66.6873907  59.4558589 112.8888758  66.6447447  60.5023479
 106.0145018  53.1057605  63.8152825 105.6741839  52.3065418  64.2173505
 105.3084024  53.4059316  63.2429658 106.6661490  50.1906918  62.2680148
 107.4887559  49.7167396  62.1459038 106.9099554  50.9697401  62.7678834
 105.3069724  53.2195176  52.5643050 106.0278087  53.5976429  52.0606767
 104.6835029  53.9384053  52.6678028 109.4500847  53.9240325  53.5001382
 109.6664462  54.8064963  53.1990210 108.9694915  53.5326538  52.7707024
 104.1900069  56.8826038  60.0772127 104.0444649  57.1966341  60.9696408
 103.7125272  57.5010939  59.5243025 106.0496452  53.8728586  60.1253016
 106.0358020  52.9769680  59.7885314 106.7668880  53.8799250  60.7591302
 107.9022582  54.3065926  62.1706144 107.6440360  55.2282997  62.1690474
 107.3707623  53.9096361  62.8606608 112.8468771  67.4116714  54.9496229
 113.0205649  66.8463136  54.1970082 113.3397662  68.2117608  54.7675719
  98.6645731  59.4231383  63.0159788  98.1199199  60.1991191  63.1480062
  99.5425081  59.7702187  62.8578909 105.4533348  52.7542967  55.3940586
 105.5749259  51.8259613  55.5931474 105.1635390  52.7681653  54.4818902
 108.3224538  50.4397877  58.5307306 108.3446235  50.5037210  57.5759286
 108.7392597  49.6002386  58.7247812 113.8343944  66.7283478  52.0493127
 114.5294848  67.3490171  52.2680442 114.1767094  65.8778829  52.3245505
  99.4511753  58.5501279  65.9089945  98.7093489  58.6983914  66.4954575
  99.1304497  58.8109545  65.0456694 115.7335367  64.1783184  53.5780458
 116.2586691  64.5170456  52.8529778 115.6457719  63.2430199  53.3943593
 107.3955415  68.0917257  65.7070335 107.7042542  67.8466404  66.5793034
 108.1930897  68.2963896  65.2189205 107.4176027  70.2455167  57.9375711
 106.9781018  69.7531545  58.6308568 108.1684144  69.7028134  57.6967787
  99.8968366  66.4366708  57.9400339 100.7226386  66.1370480  57.5598983
  99.5462418  65.6674330  58.3890128 104.8649900  65.7893176  60.0098013
 104.2429909  65.1263881  59.7100241 105.5354767  65.8154308  59.3271661
  98.0976971  64.3553034  58.8989273  97.2608880  63.9275208  58.7173274
  98.0700617  64.5485477  59.8360064 104.9374427  54.2674964  69.6030519
 104.9862583  55.1437087  69.2208289 105.4796941  53.7252357  69.0302162
 115.4229273  64.8116087  68.8831656 114.6324816  64.7940226  68.3436156
 115.1862627  65.3504381  69.6380693 115.5427148  61.6608554  66.1964385
 115.5925153  61.4958561  67.1379907 115.4341071  60.7935813  65.8062265
 104.4263407  64.3397099  53.4856474 104.5751527  65.0232564  52.8323146
 105.2329850  64.3202189  54.0005929 112.8330910  57.6439482  67.5123691
 113.7340773  57.5045946  67.2207689 112.9078885  57.8093936  68.4521869
 107.1673716  55.0206336  66.3576878 106.2977025  55.3139902  66.0859466
 107.4033196  55.6046781  67.0784141 117.0445345  64.0805495  66.4406406
 116.7530153  64.4435476  67.2769867 116.4317476  63.3672503  66.2619738
 115.2932533  59.2038110  64.9086464 115.7686654  59.3965756  64.1005316
 114.3698098  59.2597296  64.6629848 102.1816039  60.3662277  54.4917542
 101.9362081  59.4624607  54.6897753 102.3511954  60.3679427  53.5497020
 109.8712749  51.2385953  63.8742298 110.3894693  51.9746980  63.5488787
 109.5167882  51.5449947  64.7089057 101.4511687  56.0990634  51.9903704
 100.7580932  56.1734989  51.3343740 101.2063439  55.3350978  52.5125221
 110.1225344  47.6586236  59.3943195 110.4027097  46.9909425  60.0203621
 110.9075950  47.8515331  58.8817859 107.9258812  66.8345230  50.9568221
 107.3532779  67.4535417  50.5038693 108.4991606  67.3844591  51.4908143
 113.9934202  56.0803870  63.1414770 114.9451625  56.1801967  63.1626994
 113.8237652  55.2882138  63.6512854 112.0148581  53.1659453  63.3274171
 111.4198513  53.4464466  62.6320659 111.7298278  53.6553354  64.0990912
 111.1456072  67.1182380  52.0876803 112.0786745  67.0527941  52.2909679
 111.0579285  67.9538647  51.6291336 113.7744088  66.4348250  49.0480751
 113.6957720  66.1008114  49.9416509 114.5953755  66.9270018  49.0472223
 116.4722280  59.3009989  62.2557069 116.4398600  58.3625990  62.4416753
 117.0822903  59.3794026  61.5222894 108.3105611  58.1706042  48.2984273
 109.2564715  58.0412251  48.3672692 107.9319855  57.4320704  48.7753702
 116.6216768  56.0921033  62.3015353 116.1055817  55.3079490  62.1145281
 117.5056717  55.7639750  62.4661872 114.2827495  49.8362048  58.2611165
 114.0852316  49.5277137  59.1454497 114.8927201  50.5623687  58.3909095
 108.1944303  62.2223789  69.7584930 109.1147313  62.4002388  69.9524977
 108.1593886  61.2779834  69.6064630 106.4948528  56.0956019  48.2339159
 105.5879983  55.7989132  48.3101872 106.7724509  55.7985837  47.3673445
  97.4126468  57.4162382  58.6838205  97.0929252  56.5627690  58.3912579
  96.8659896  57.6310960  59.4396172 101.1906376  60.1324823  62.4007712
 101.4092385  61.0641931  62.4195745 101.6032149  59.7732798  63.1862515
 108.1110593  50.6392909  54.3883400 107.3011322  50.2939994  54.7638646
 108.7995010  50.3300452  54.9771012 110.0401142  49.7170955  56.0107697
 110.5932180  50.1366409  56.6697720 110.2771228  48.7906703  56.0530653
 106.0634241  55.7058029  71.7910461 105.9630968  56.6552386  71.7222552
 105.8455783  55.3776268  70.9186531 105.2647312  52.9542954  48.3751138
 106.1266476  53.2797852  48.6346955 105.4497656  52.1674450  47.8624204
  97.2814728  61.0365294  60.6531327  96.5878200  60.6219247  60.1401281
  98.0287719  61.0785830  60.0564746 113.4179949  51.8271480  55.5186361
 112.8378618  52.4856285  55.1364413 113.1515881  51.0048825  55.1073778
 111.8683515  51.2276538  57.7207681 112.3683294  51.3393073  56.9122000
 112.5119123  50.9237591  58.3608490 105.9265511  59.1355168  70.6075522
 105.4432593  59.9355528  70.8139411 106.0126450  59.1463113  69.6542966
  99.1951471  60.9683547  58.5297342  99.1722159  61.0671235  57.5779225
  99.5052107  61.8148698  58.8514508 101.8538848  63.0259703  62.6443956
 102.8082102  62.9943645  62.5773888 101.6551372  62.5650326  63.4594182
 102.4438231  61.5960819  65.2114754 103.2631120  62.0904897  65.2349591
 102.7175038  60.6792787  65.1832321 112.2004827  53.9871571  54.5742709
 111.3130682  54.2721221  54.3562904 112.6158816  53.8265334  53.7269986
 115.5519363  54.0118092  58.2897048 116.3279753  54.5014544  58.5621665
 114.8267497  54.4376146  58.7468918 100.2089077  68.5679322  59.6614154
 100.0743545  67.8079723  59.0952152  99.7921140  69.2920222  59.1942943
 111.3448040  63.7516246  48.6690729 112.0483890  63.9566248  49.2848385
 110.6210689  64.3193007  48.9339813 112.1745851  59.5026107  54.7892999
 112.1181052  59.9594658  53.9500632 112.7274193  58.7416791  54.6115842
 115.9850656  55.2915839  55.6143119 115.7287591  54.8912474  56.4451327
 115.3603525  56.0059633  55.4893258 103.3658203  69.4648639  59.8732597
 103.2490587  70.4094072  59.7711287 102.5450649  69.1622201  60.2618396
 113.2534738  64.1898775  50.7189189 114.0880342  63.7579973  50.5366664
 113.0919081  64.0180788  51.6466084 112.9080630  60.6930888  52.0845529
 112.8529434  60.5275159  51.1433973 112.2826685  61.4006921  52.2407718
  97.6973145  55.9298952  65.9106951  98.3432008  55.4197906  66.3994176
  97.4890296  56.6667634  66.4850376 110.2226537  62.9979800  71.4099091
 111.0917697  63.1720452  71.0485726 109.7433289  63.8174217  71.2874821
 106.2176755  50.1938997  51.6630847 106.2055425  51.1380837  51.8199118
 107.1100177  50.0109142  51.3690308 104.3912717  70.1176901  63.0888525
 105.2939964  70.1500511  63.4055020 104.1650087  69.1877352  63.1034861
 106.1466319  68.8707887  59.7498604 105.1961950  68.8709749  59.6362976
 106.4498805  68.1240622  59.2334638 110.0328875  46.7881774  55.9176784
 109.2661271  46.2340260  56.0633466 110.4439580  46.8603642  56.7790935
 102.0370636  53.0766570  70.0081965 102.9002097  52.7203374  70.2185290
 101.4636047  52.7380464  70.6957369 114.5495535  76.5131330  56.7402782
 113.9860400  76.4221267  55.9719069 114.4347930  75.6931235  57.2205274
 112.0959967  78.0082522  59.5787002 112.8881259  77.6673347  59.1633301
 112.3356617  78.1177497  60.4989155 114.0550721  77.2691435  52.4504381
 114.8281597  76.7220422  52.3117257 114.4076119  78.1335685  52.6618842
 115.8935763  78.5967817  65.6571280 115.6025629  79.5013448  65.5417946
 116.5292748  78.6384345  66.3715350 116.8191970  75.9744666  62.2472640
 117.4155542  75.7500688  61.5329603 116.8766942  75.2329411  62.8498088
 116.3916998  73.4284101  50.0822831 116.6442519  72.9065623  49.3206294
 115.4541558  73.2650247  50.1849514 116.1113287  75.3312207  52.2847206
 115.9949545  74.6557111  52.9528290 116.2215547  74.8444581  51.4679359
 118.0950315  69.8212254  50.9855243 118.2624717  70.6892491  51.3525715
 117.9047484  69.9839536  50.0616533 114.3038130  74.7343030  58.6857778
 113.3788626  74.6019244  58.8935470 114.5522543  75.5137249  59.1827721
 118.0739536  72.2769912  51.9701910 117.9539161  72.7226962  52.8087391
 117.3792124  72.6255229  51.4115448 111.6646941  74.3776303  59.5201567
 111.7939322  74.6310782  60.4340979 110.9844392  74.9704011  59.2006222
 115.8346428  85.0473553  55.6192042 115.7570458  85.9981378  55.6980522
 115.2308072  84.7019426  56.2766968 116.5810030  75.0286872  67.8371375
 117.3224715  75.5671916  67.5606199 115.8747016  75.6553161  67.9942927
 114.8246227  77.0163093  60.3925674 115.3947584  77.4450361  59.7543159
 115.4154339  76.7345678  61.0909860 116.8691032  73.5914764  54.2635476
 117.5715076  74.0435807  54.7309402 116.5371661  72.9498583  54.8915369
 115.3171394  72.1826520  68.6386685 114.6870054  72.8642801  68.8722082
 115.2107482  72.0709602  67.6939824 110.6116366  71.8498316  59.5652610
 109.8215420  72.1055845  59.0892720 111.1027614  72.6646654  59.6704650
 112.5631112  72.2142896  56.5236086 111.7662275  72.3261590  57.0419582
 112.3356704  72.5529548  55.6576977 108.8954069  72.1028807  61.9967600
 109.1462108  72.9875817  62.2625176 109.4313618  71.9233408  61.2242692
 114.5952137  66.4847286  71.0011936 114.2019082  65.9313485  71.6759581
 115.4118277  66.7957865  71.3918454 111.5614194  77.9231144  54.9125506
 112.0738715  78.7174395  55.0631071 112.2136907  77.2257435  54.8459108
 113.3709079  81.0396901  56.9948260 113.5475707  81.9614865  56.8069243
 114.1665913  80.7255320  57.4242639 117.5120098  67.9005165  68.5932193
 118.2529811  68.5012318  68.5136656 117.7438020  67.1582803  68.0350236
 112.6561436  73.0861533  66.8710423 112.5414951  72.1846790  67.1717522
 111.8005953  73.3325229  66.5195239 114.4940395  82.5575074  62.9958602
 115.0447820  82.4292138  62.2235596 113.6551870  82.8569963  62.6453495
 109.5263111  76.2519799  55.6885077 110.3638333  76.6616807  55.4718785
 109.7041379  75.3119241  55.6585271 116.7816687  66.3829653  59.8411890
 117.6469684  66.1872462  59.4817779 116.8494196  66.1540005  60.7681246
 114.3879006  68.6131861  57.2128257 114.9622758  68.3907042  56.4801449
 114.9749988  68.6820556  57.9656858 114.7148593  70.6436322  51.2324142
 113.8785905  70.9811009  51.5533417 114.5753363  70.5085302  50.2951279
 116.6901674  65.4873110  55.9403326 116.0366086  65.1722127  55.3159941
 116.6482148  64.8648850  56.6663149 109.5489282  73.5910514  56.3595810
 109.3513682  72.9979875  55.6346877 108.9935946  73.2862724  57.0771749
 117.5286006  73.4833620  58.4790403 117.5834616  72.5307457  58.4032880
 116.7177208  73.6393060  58.9631702 115.4678366  72.1010680  56.2380782
 114.6546231  72.4004851  56.6445974 115.9637360  71.7066369  56.9555265
 114.9592441  69.6729036  61.8542017 115.5991820  69.5317795  61.1564981
 114.1269971  69.3863549  61.4780619 115.7352745  78.9731466  57.9677010
 116.5293343  78.4781786  57.7659585 115.0244437  78.4449329  57.6044715
 112.0435508  73.1174548  54.0436762 111.1133096  73.0559003  54.2606725
 112.1392980  72.5950501  53.2473404 111.9621057  69.6429361  56.6315004
 112.2227874  70.5574694  56.5224165 112.7838229  69.1753803  56.7811617
 113.4345982  71.0567118  63.8013829 114.1069036  70.8484480  63.1526478
 112.6075769  70.8589204  63.3619061 113.8373480  74.3309721  64.5616266
 113.6993278  73.5989960  65.1627805 114.7478403  74.2418621  64.2800454
 116.4655780  74.0429680  64.0499945 117.1755399  73.4022872  64.0086564
 116.4225088  74.2942575  64.9726126 115.1784714  71.0294898  65.8695585
 114.6422071  70.5785637  66.5217181 114.5901423  71.1640807  65.1266049
 113.4733258  87.7958947  59.7640244 113.7129856  88.4277472  60.4419262
 112.6302454  87.4446987  60.0505603 114.5886973  70.4883549  48.4322049
 113.7116440  70.3672350  48.0684295 115.0644726  69.6969628  48.1800937
 106.1089113  75.2760709  58.5263556 106.7960153  74.9622439  57.9384571
 105.9537242  76.1802074  58.2530807 110.9123836  70.1650906  62.9548579
 110.8282024  69.5576575  62.2198989 110.0906542  70.6559924  62.9558076
 117.9861120  83.6038070  62.1681748 117.9131291  84.4093041  62.6801052
 117.5438513  83.8030036  61.3429769 117.6682518  70.7921852  58.0490459
 117.2980306  70.2392893  58.7371365 118.1641611  70.1879986  57.4965459
 115.4971717  81.2519347  65.1445477 116.1981176  81.8855830  65.2974871
 115.0266832  81.5934079  64.3841116 111.0939435  80.7855702  62.0776580
 111.6792872  80.0399390  62.2104484 110.8964273  81.0959659  62.9613244
 113.9478090  83.8206950  57.0939022 113.2788465  84.3053077  56.6103062
 113.8090960  84.0676170  58.0082401 105.6857090  73.3561303  60.7981023
 105.7241189  72.8224893  61.5918141 105.1797382  72.8296508  60.1792000
 113.0647852  68.2025843  64.2943565 113.1289178  69.0640674  63.8820963
 113.0014972  67.5899845  63.5615924 112.5400124  70.2748976  67.9416599
 113.1672163  69.8926053  68.5554124 111.6828043  70.0563178  68.3072292
 109.3165667  72.0825405  53.8734954 109.6119108  71.1736083  53.8202008
 108.4153703  72.0613144  53.5515957 112.8459914  70.1581401  59.8562503
 112.1246500  70.7717369  59.7169976 113.6353170  70.6939166  59.7779149
 115.6486228  67.4935828  66.1303155 116.1720629  67.7398124  66.8929464
 115.4298561  68.3255863  65.7106292 111.0453509  69.7639502  53.9974279
 110.7166215  68.8836881  53.8149385 111.3992879  69.7087171  54.8850669
 114.1595332  70.0512472  54.3649757 114.4991404  70.5798393  53.6428365
 114.6067452  70.3892878  55.1408324 116.8538773  68.4349523  63.8152825
 116.5135593  67.6357336  64.2173505 116.1477779  68.7351234  63.2429658
 116.1463479  68.5487094  52.5643050 116.8671841  68.9268347  52.0606767
 115.5228783  69.2675971  52.6678028 115.0293823  72.2117956  60.0772127
 114.8838404  72.5258259  60.9696408 114.5519027  72.8302856  59.5243025
 116.8890206  69.2020504  60.1253016 116.8751775  68.3061597  59.7885314
 117.6062634  69.2091168  60.7591302 109.5039485  74.7523300  63.0159788
 108.9592953  75.5283108  63.1480062 110.3818835  75.0994105  62.8578909
 116.2927102  68.0834884  55.3940586 116.4143013  67.1551530  55.5931474
 116.0029144  68.0973570  54.4818902 110.2905507  73.8793197  65.9089945
 109.5487243  74.0275832  66.4954575 109.9698252  74.1401462  65.0456694
 110.7362121  81.7658625  57.9400339 111.5620141  81.4662397  57.5598983
 110.3856173  80.9966248  58.3890128 115.7043654  81.1185094  60.0098013
 115.0823663  80.4555799  59.7100241 116.3748521  81.1446225  59.3271661
 108.9370726  79.6844952  58.8989273 108.1002634  79.2567126  58.7173274
 108.9094371  79.8777395  59.8360064 115.7768182  69.5966882  69.6030519
 115.8256337  70.4729004  69.2208289 116.3190696  69.0544275  69.0302162
 115.2657161  79.6689017  53.4856474 115.4145281  80.3524481  52.8323146
 116.0723604  79.6494107  54.0005929 118.0067470  70.3498254  66.3576878
 117.1370779  70.6431820  66.0859466 118.2426950  70.9338699  67.0784141
 113.0209794  75.6954195  54.4917542 112.7755836  74.7916525  54.6897753
 113.1905709  75.6971345  53.5497020 112.2905442  71.4282552  51.9903704
 111.5974686  71.5026907  51.3343740 112.0457193  70.6642896  52.5125221
 117.3342282  71.4247936  48.2339159 116.4273738  71.1281049  48.3101872
 117.6118263  71.1277755  47.3673445 108.2520223  72.7454300  58.6838205
 107.9323007  71.8919608  58.3912579 107.7053651  72.9602878  59.4396172
 112.0300130  75.4616741  62.4007712 112.2486140  76.3933849  62.4195745
 112.4425904  75.1024715  63.1862515 116.9027995  71.0349947  71.7910461
 116.8024722  71.9844304  71.7222552 116.6849537  70.7068186  70.9186531
 116.1041067  68.2834872  48.3751138 116.9660231  68.6089770  48.6346955
 116.2891411  67.4966368  47.8624204 108.1208483  76.3657211  60.6531327
 107.4271954  75.9511164  60.1401281 108.8681474  76.4077748  60.0564746
 116.7659265  74.4647085  70.6075522 116.2826347  75.2647446  70.8139411
 116.8520205  74.4755030  69.6542966 110.0345225  76.2975465  58.5297342
 110.0115913  76.3963152  57.5779225 110.3445862  77.1440616  58.8514508
 112.6932603  78.3551620  62.6443956 113.6475857  78.3235563  62.5773888
 112.4945127  77.8942244  63.4594182 113.2831985  76.9252736  65.2114754
 114.1024874  77.4196815  65.2349591 113.5568793  76.0084704  65.1832321
 111.0482832  83.8971240  59.6614154 110.9137300  83.1371641  59.0952152
 110.6314894  84.6212140  59.1942943 114.2051958  84.7940557  59.8732597
 114.0884342  85.7385989  59.7711287 113.3844404  84.4914118  60.2618396
 108.5366899  71.2590870  65.9106951 109.1825763  70.7489824  66.3994176
 108.3284050  71.9959552  66.4850376 117.0570510  65.5230915  51.6630847
 117.0449180  66.4672755  51.8199118 117.9493932  65.3401060  51.3690308
 115.2306472  85.4468819  63.0888525 116.1333718  85.4792429  63.4055020
 115.0043842  84.5169270  63.1034861 116.9860074  84.1999805  59.7498604
 116.0355705  84.2001667  59.6362976 117.2892560  83.4532540  59.2334638
 112.8764390  68.4058487  70.0081965 113.7395852  68.0495292  70.2185290
 112.3029801  68.0672382  70.6957369 116.9482868  90.6052627  58.5263556
 117.6353908  90.2914357  57.9384571 116.7930997  91.5093992  58.2530807
 116.5250844  88.6853220  60.7981023 116.5634944  88.1516811  61.5918141
 116.0191137  88.1588426  60.1792000  70.1158241   3.4853399  46.4885550
  70.3554839   4.1171923  47.1664569  69.2727438   3.1341439  46.7750909
  82.0314273   7.5317700  43.4648088  81.4679138   7.4407637  42.6964376
  81.9166668   6.7117604  43.9450581  79.5778704   9.0268892  46.3032309
  80.3699996   8.6859716  45.8878608  79.8175355   9.1363867  47.2234462
  87.6113831  11.1988668  38.7762553  86.9601811  11.7842748  38.3896567
  88.4058194  11.7294863  38.8357591  81.5369458   8.2877805  39.1749687
  82.3100334   7.7406792  39.0362563  81.8894857   9.1522054  39.3864149
  83.3754501   9.6154187  52.3816587  83.0844367  10.5199818  52.2663253
  84.0111485   9.6570715  53.0960656  84.3010708   6.9931036  48.9717946
  84.8974280   6.7687058  48.2574909  84.3585679   6.2515781  49.5743394
  89.0889096   8.8879100  39.3131537  88.4534929   8.9613726  40.0252442
  88.7586503   9.4772698  38.6350617  83.5932025   6.3498577  39.0092512
  83.4768283   5.6743480  39.6773597  83.7034285   5.8630951  38.1924665
  88.3344386   9.3015603  49.3766380  88.0345109  10.2040641  49.2682188
  87.9895446   9.0347786  50.2287533  81.7856868   5.7529399  45.4103085
  80.8607364   5.6205614  45.6180777  82.0341281   6.5323619  45.9073027
  79.1465679   5.3962673  46.2446874  79.2758060   5.6497152  47.1586286
  78.4663130   5.9890381  45.9251529  83.3165166  16.0659923  42.3437348
  83.2389196  17.0167748  42.4225829  82.7126809  15.7205795  43.0012274
  84.0628768   6.0473242  54.5616682  84.8043452   6.5858286  54.2851506
  83.3565753   6.6739530  54.7188234  89.8612922   8.7503573  46.9141132
  89.2321785   8.9149287  46.2117200  89.4738584   9.1645182  47.6852096
  93.7402154   9.6858011  44.2685496  93.0553192  10.0656912  43.7182530
  93.8246003  10.2953337  45.0017444  85.4140884   8.4877981  44.1791218
  85.8779230   8.7665684  43.3895840  85.1497682   7.5861425  43.9964308
  82.3064965   8.0349462  47.1170981  82.8766322   8.4636731  46.4788465
  82.8973077   7.7532047  47.8155166  92.1098914  10.2089925  49.0403197
  92.9316357   9.8070112  48.7585879  92.1061317  10.1058159  49.9919313
  85.8755517   9.7573968  51.1963908  85.9399950  10.2194376  52.0322079
  85.1666441   9.1271333  51.3246217  85.5903535  11.4242076  41.0642888
  85.4549210  12.2693612  41.4927736  86.1313347  11.6261354  40.3008822
  79.0432932   8.9417514  41.6370813  79.5557453   9.7360764  41.7876378
  79.6955645   8.2443804  41.5704414  80.8527817  12.0583270  43.7193566
  81.0294445  12.9801235  43.5314550  81.6484650  11.7441689  44.1487946
  87.2172011  12.0465642  55.1943230  86.7735865  11.2602021  54.8764134
  87.8789225  12.2344793  54.5287121  81.9759132  13.5761444  49.7203908
  82.5266557  13.4478507  48.9480902  81.1370608  13.8756333  49.3698801
  89.3153249  12.3268442  53.2224631  89.2971725  13.1477323  52.7304900
  90.2373169  12.2022518  53.4474772  85.7726303   9.8412572  54.0648140
  86.3054640   9.0800860  53.8347448  85.2440384   9.5486224  54.8072294
  77.0081849   7.2706168  42.4130384  77.8457071   7.6803177  42.1964091
  77.1860117   6.3305610  42.3830577  87.1379016   8.9698564  41.5766952
  86.6100378   8.2351324  41.2640189  86.6366519   9.7473241  41.3306920
  88.1899695  15.4976282  37.4998611  87.5161394  15.8007978  38.1083569
  88.5765517  16.3005362  37.1504068  86.4619850   6.8891369  39.1025915
  85.5531069   6.6050402  39.1998385  86.4914934   7.3090448  38.2429222
  91.6939117  10.4997959  42.8717082  91.2401444   9.6588869  42.9282273
  91.0633084  11.1359357  43.2091862  90.1372056  12.3374456  43.8066900
  90.4295031  12.8979513  43.0879266  90.6470677  12.6303017  44.5620060
  77.0308020   4.6096884  43.0841117  76.8332420   4.0166244  42.3592184
  76.4754684   4.3049094  43.8017056  86.1595938   8.4300113  36.4413993
  85.7215367   7.7135972  35.9819631  86.9006378   8.6576228  35.8799085
  85.1005682  13.1154807  44.8960354  85.0581860  13.3415653  43.9668886
  86.0168380  12.8818181  45.0446155  83.2171482   9.9917836  44.6922316
  84.0112081   9.4968156  44.4904891  82.5063175   9.4635699  44.3290022
  88.0366327  12.3735931  49.0434684  88.0903349  12.9426868  49.8112400
  87.1681108  12.5437816  48.6788721  90.2269090   8.9664281  55.6175349
  90.0754597   8.7374832  54.7005433  90.2173770   9.9234882  55.6306694
  85.7942758  10.5646858  48.3720153  85.6553844  10.1965642  49.2446092
  85.0057355  11.0794497  48.2004111  86.3890910  15.6655954  39.7145690
  86.5642666  15.1943997  40.5291313  85.7023698  16.2921720  39.9426951
  87.3447973   9.9428460  45.7608991  87.0097806   9.9029230  46.6566641
  86.8451919   9.2773176  45.2879401  91.9361297  11.9983403  53.6951831
  91.8773843  11.3142623  53.0282414  92.3380815  12.7402393  53.2432457
  80.9551996  18.8145317  46.4885550  81.1948594  19.4463841  47.1664569
  80.1121192  18.4633357  46.7750909  91.9378704   9.9622987  51.9265811
  91.0505483   9.6248909  52.0492210  92.5077255   9.2306018  52.1634576
  73.5907851   6.2947079  45.2508862  74.2778891   5.9808809  44.6629878
  73.4355980   7.1988443  44.9776114  85.4679857  14.6224439  48.8927054
  85.3950029  15.4279411  49.4046359  85.0257251  14.8216405  48.0675076
  85.2569637  13.8596209  42.4029876  84.4737159  14.4017890  42.4968100
  85.9562382  14.3770189  42.8024117  87.9278541  14.5211273  51.0485213
  88.6406513  15.1558738  50.9761114  87.4368570  14.6175139  50.2325215
  82.9790454  12.2705717  51.8690784  83.6799914  12.9042200  52.0220178
  82.5085569  12.6120448  51.1086423  91.1044850  10.6123667  40.1538691
  91.3804694  10.4980261  41.0632565  90.2349349  10.2141152  40.1150864
  87.7398914  14.8610017  43.7971504  87.9221309  14.0431673  44.2599257
  88.5631900  15.0777710  43.3596394  88.0741080  13.7878203  41.0586553
  88.6028846  13.2770657  40.4456715  88.3369299  13.4720733  41.9232086
  78.5758173  11.8042072  48.8021886  79.1611609  11.0585760  48.9349791
  78.3783011  12.1146029  49.6858550  81.4296828  14.8393319  43.8184329
  80.7607203  15.3239447  43.3348369  81.2909697  15.0862540  44.7327707
  73.1675827   4.3747672  47.5226329  73.2059927   3.8411263  48.3163448
  72.6616120   3.8482878  46.9037307  85.5702096  16.8737063  50.4166987
  86.1220404  17.0368684  51.1816072  85.9108290  17.4641501  49.7447012
  90.4212971  11.6998320  56.2715641  90.9652875  12.3128279  55.7770596
  89.8399816  12.2577899  56.7882654  88.7070484  14.8219038  47.4030669
  88.5821623  14.0208778  46.8941615  89.3649575  15.3165232  46.9144639
  90.7705392  12.6228058  49.0310219  89.8235728  12.5033410  48.9588546
  91.1188165  11.7350556  49.1136481  87.7751825  12.4180775  45.2314572
  87.6276788  11.4897482  45.4122142  88.6005319  12.4400865  44.7471647
  91.3785947  13.2409333  46.3179444  92.3032495  13.0352195  46.1803895
  91.2101251  12.9925735  47.2268786  91.1681263  13.7595001  41.6741536
  91.3418141  13.1941423  40.9215388  91.6610155  14.5595896  41.4921026
  76.9858223   5.7709670  49.7405095  76.4411691   6.5469478  49.8725369
  77.8637573   6.1180474  49.5824216  92.1556436  13.0761765  38.7738434
  92.8507340  13.6968458  38.9925749  92.4979586  12.2257116  39.0490812
  77.7724245   4.8979566  52.6335251  77.0305981   5.0462202  53.2199882
  77.4516989   5.1587832  51.7702001  94.0547859  10.5261471  40.3025765
  94.5799183  10.8648744  39.5775085  93.9670212   9.5908486  40.1188899
  85.7167908  14.4395544  52.4315641  86.0255034  14.1944691  53.3038341
  86.5143390  14.6442183  51.9434512  85.7388520  16.5933454  44.6621018
  85.2993510  16.1009833  45.3553875  86.4896637  16.0506422  44.4213093
  78.2180859  12.7844995  44.6645646  79.0438879  12.4848767  44.2844290
  77.8674911  12.0152617  45.1135435  83.1862392  12.1371463  46.7343320
  82.5642401  11.4742168  46.4345548  83.8567259  12.1632595  46.0516967
  76.4189464  10.7031321  45.6234580  75.5821372  10.2753496  45.4418581
  76.3913109  10.8963765  46.5605371  93.7441765  11.1594374  55.6076963
  92.9537309  11.1418513  55.0681462  93.5075120  11.6982668  56.3625999
  82.7475899  10.6875386  40.2101780  82.8964019  11.3710851  39.5568453
  83.5542342  10.6680477  40.7251236  95.3657837  10.4283782  53.1651713
  95.0742645  10.7913763  54.0015174  94.7529968   9.7150791  52.9865045
  80.5028532   6.7140564  41.2162849  80.2574574   5.8102894  41.4143059
  80.6724446   6.7157715  40.2742327  86.2471304  13.1823517  37.6813528
  85.6745271  13.8013704  37.2283999  86.8204098  13.7322879  38.2153450
  89.4668564  13.4660667  38.8122110  90.3999237  13.4006229  39.0154985
  89.3791777  14.3016934  38.3536643  92.0956581  12.7826537  35.7726057
  92.0170212  12.4486401  36.6661815  92.9166248  13.2748305  35.7717530
  86.5156795   8.5702076  56.4830237  87.4359805   8.7480675  56.6770284
  86.4806378   7.6258121  56.3309936  75.7338960   3.7640669  45.4083512
  75.4141745   2.9105978  45.1157886  75.1872389   3.9789248  46.1641479
  79.5118868   6.4803110  49.1253018  79.7304878   7.4120218  49.1441052
  79.9244642   6.1211085  49.9107822  75.6027220   7.3843581  47.3776633
  74.9090692   6.9697534  46.8646588  76.3500211   7.4264117  46.7810052
  77.5163963   7.3161835  45.2542648  77.4934651   7.4149522  44.3024531
  77.8264599   8.1626986  45.5759814  80.1751341   9.3737990  49.3689263
  81.1294594   9.3421932  49.3019194  79.9763864   8.9128614  50.1839489
  80.7650723   7.9439106  51.9360060  81.5843612   8.4383184  51.9594898
  81.0387531   7.0271074  51.9077628  78.5301570  14.9157609  46.3859460
  78.3956037  14.1558010  45.8197459  78.1133632  15.6398509  45.9188249
  89.6660533  10.0994533  35.3936036  90.3696383  10.3044535  36.0093691
  88.9423181  10.6671295  35.6585119  81.6870695  15.8126926  46.5977903
  81.5703080  16.7572359  46.4956593  80.8663142  15.5100488  46.9863702
  91.5747230  10.5377062  37.4434496  92.4092834  10.1058260  37.2611971
  91.4131573  10.3659076  38.3711390  88.5439029   9.3458087  58.1344398
  89.4130189   9.5198739  57.7731033  88.0645781  10.1652504  58.0120127
  82.7125210  16.4655188  49.8133832  83.6152456  16.4978798  50.1300327
  82.4862580  15.5355639  49.8280167  84.4678812  15.2186175  46.4743910
  83.5174443  15.2188036  46.3608282  84.7711298  14.4718909  45.9579945
 100.2031505  21.0546713  47.5389673 100.8409915  20.9353460  46.8353013
 100.0852348  22.0027557  47.5977625  97.0121211  21.0074141  47.4751197
  96.6739723  20.8915206  46.5871732  97.8810980  20.6065306  47.4552203
  92.8708027  22.8609618  43.4648088  92.3072892  22.7699555  42.6964376
  92.7560422  22.0409522  43.9450581  97.4940994  22.1608993  53.4337403
  97.4829635  21.7661791  52.5617906  97.6561634  21.4275066  54.0271174
  90.4172459  24.3560809  46.3032309  91.2093751  24.0151634  45.8878608
  90.6569109  24.4655784  47.2234462  98.4507586  26.5280585  38.7762553
  97.7995566  27.1134666  38.3896567  99.2451949  27.0586780  38.8357591
  92.3763213  23.6169722  39.1749687  93.1494089  23.0698710  39.0362563
  92.7288612  24.4813972  39.3864149  94.2148255  24.9446105  52.3816587
  93.9238121  25.8491736  52.2663253  94.8505240  24.9862632  53.0960656
  95.1404462  22.3222953  48.9717946  95.7368035  22.0978976  48.2574909
  95.1979434  21.5807699  49.5743394  94.7129491  19.7762389  36.8068137
  94.9655011  19.2543910  36.0451600  93.7754050  19.6128534  36.9094821
  99.7572774  18.7798167  44.6142881 100.5435863  18.3617590  44.2633298
 100.0211478  19.6844259  44.7824529  99.9282851  24.2171017  39.3131537
  99.2928684  24.2905644  40.0252442  99.5980257  24.8064616  38.6350617
 105.1581201  18.7173400  45.5175859 105.8906373  18.1472617  45.7513689
 104.4020556  18.3295001  45.9582365  94.4325779  21.6790495  39.0092512
  94.3162038  21.0035398  39.6773597  94.5428039  21.1922868  38.1924665
  96.7757320  21.1400642  42.7139202  96.4115528  20.6131263  43.4252123
  97.6324436  20.7499111  42.5405687 102.6806621  12.4294974  49.9770468
 102.3489946  13.2990385  49.7531683 102.0852234  12.1131258  50.6564498
  96.4162807  16.1690541  37.7100550  96.5837210  17.0370778  38.0771021
  96.2259976  16.3317823  36.7861839  99.1738141  24.6307520  49.3766380
  98.8738864  25.5332559  49.2682188  98.8289200  24.3639703  50.2287533
  92.6250622  21.0821317  45.4103085  91.7001119  20.9497531  45.6180777
  92.8735035  21.8615536  45.9073027 102.5735284  17.1490060  47.0563818
 101.6652162  17.0805469  46.7622579 102.5222880  17.6262005  47.8845643
  96.3952028  18.6248199  38.6947217  96.2751653  19.0705250  39.5332697
  95.7004617  18.9733517  38.1360755  89.9859433  20.7254591  46.2446874
  90.1151814  20.9789070  47.1586286  89.3056884  21.3182299  45.9251529
  94.1558920  31.3951841  42.3437348  94.0782950  32.3459666  42.4225829
  93.5520564  31.0497713  43.0012274  96.6476150  18.5679706  54.9998715
  95.8709484  19.1273626  54.9901580  97.2866713  19.0536489  55.5213585
 104.4396931  15.3506499  48.8341692 103.7971311  15.6439032  48.1881486
 103.9351859  15.2359419  49.6394888 102.0937094  19.0969672  39.5227551
 103.0054951  19.3297059  39.3475249 101.5846741  19.6806716  38.9602630
  94.9022522  21.3765159  54.5616682  95.6437207  21.9150203  54.2851506
  94.1959508  22.0031448  54.7188234 100.3777862  23.5194300  53.1588844
 100.7861218  23.0776710  52.4143476  99.6555124  22.9446927  53.4123036
  96.7308932  18.4566907  50.5322401  97.5770127  18.8806320  50.6757050
  96.6707570  17.8000531  51.2260964 100.7006677  24.0795490  46.9141132
 100.0715539  24.2441205  46.2117200 100.3132339  24.4937100  47.6852096
 104.5795909  25.0149928  44.2685496 103.8946947  25.3948830  43.7182530
 104.6639758  25.6245255  45.0017444  99.8808377  16.1171275  52.1903574
  99.6369309  16.8713336  51.6537850 100.1568308  16.4956623  53.0250821
 101.8346840  22.6609887  50.8680840 102.0463735  23.3041647  50.1915221
 101.7876588  21.8272204  50.4002770  99.4373069  15.2727708  47.7717412
  98.5757548  15.5708962  48.0634149  99.4635504  15.4898107  46.8398445
  96.2534639  23.8169899  44.1791218  96.7172984  24.0957602  43.3895840
  95.9891437  22.9153343  43.9964308  93.1458720  23.3641380  47.1170981
  93.7160077  23.7928648  46.4788465  93.7366832  23.0823965  47.8155166
  95.1903525  19.9393051  40.9880783  95.8927568  20.3914095  41.4554709
  94.8584153  19.2976870  41.6160676  93.6383886  18.5304808  55.3631992
  93.0082547  19.2121088  55.5967389  93.5319974  18.4187889  54.4185130
  88.9328859  18.1976604  46.2897916  88.1427913  18.4534132  45.8138027
  89.4240106  19.0124941  46.3949957 102.9492668  25.5381843  49.0403197
 103.7710112  25.1362030  48.7585879 102.9455071  25.4350077  49.9919313
  90.8843604  18.5621183  43.2481393  90.0874767  18.6739877  43.7664889
  90.6569196  18.9007835  42.3822283  96.7149272  25.0865886  51.1963908
  96.7793704  25.5486293  52.0322079  96.0060195  24.4563251  51.3246217
  87.2166562  18.4507094  48.7212907  87.4674600  19.3354104  48.9870483
  87.7526110  18.2711696  47.9487999 111.0398661  21.8820591  45.3888169
 110.2862370  21.3127989  45.2332173 111.1746202  21.8483256  46.3358803
  96.4297289  26.7533994  41.0642888  96.2942964  27.5985529  41.4927736
  96.9707102  26.9553271  40.3008822  92.9164629  12.8325573  57.7257243
  92.5231574  12.2791772  58.4004887  93.7330769  13.1436152  58.1163761
  89.8826687  24.2709432  41.6370813  90.3951207  25.0652682  41.7876378
  90.5349399  23.5735722  41.5704414  91.6921571  27.3875188  43.7193566
  91.8688200  28.3093153  43.5314550  92.4878405  27.0733607  44.1487946
  95.8332590  14.2483452  55.3177500  96.5742303  14.8490606  55.2381962
  96.0650513  13.5061090  54.7595542  90.9773928  19.4339820  53.5955729
  90.8627443  18.5325077  53.8962828  90.1218446  19.6803517  53.2440546
  98.0565766  27.3757560  55.1943230  97.6129620  26.5893939  54.8764134
  98.7182979  27.5636711  54.5287121  92.8152887  28.9053362  49.7203908
  93.3660312  28.7770425  48.9480902  91.9764363  29.2048251  49.3698801
 100.1547004  27.6560360  53.2224631 100.1365479  28.4769241  52.7304900
 101.0766924  27.5314435  53.4474772  96.6120058  25.1704489  54.0648140
  97.1448395  24.4092778  53.8347448  96.0834139  24.8778141  54.8072294
  87.8475603  22.5998086  42.4130384  88.6850825  23.0095094  42.1964091
  88.0253871  21.6597528  42.3830577  99.7440036  20.2673167  38.1014216
  99.2286659  21.0377771  38.3402604  99.4717344  19.5938303  38.7247278
  97.3287147  15.1122867  43.1599455  96.4728743  14.7229718  42.9805094
  97.7414098  15.1914828  42.2999240  98.8586293  12.6469211  47.5591015
  98.3551089  12.6099346  46.7458820  99.1516900  13.5561953  47.6187671
  95.1029179  12.7307940  46.5657196  95.9682176  12.5350749  46.2063086
  95.1706688  12.5018292  47.4926553 104.7174310  23.0205521  40.0367390
 103.9403752  22.6816681  39.5922552 105.3965791  23.0258144  39.3622355
  99.5326339  18.1400259  39.9273998  99.2276474  18.4546408  40.7784141
 100.4856781  18.2181679  39.9701331  97.9772771  24.2990482  41.5766952
  97.4494132  23.5643242  41.2640189  97.4760273  25.0765158  41.3306920
 102.9565617  22.4939502  46.6933998 102.2989291  23.1838764  46.7814127
 103.7606016  22.8835934  47.0367984  92.7091498  14.9610148  43.9373563
  93.2835250  14.7385330  43.2046756  93.2962481  15.0298843  44.6902164
 101.7671075  20.8483875  44.7437940 102.2802957  21.4813867  45.2459649
 102.4172299  20.2485071  44.3781300  93.0361085  16.9914609  37.9569448
  92.1998398  17.3289296  38.2778723  92.8965855  16.8563589  37.0196585
  95.0114166  11.8351397  42.6648633  94.3578578  11.5200414  42.0405247
  94.9694640  11.2127138  43.3908456  96.1225371  22.1170692  34.5801925
  95.2152432  21.8859946  34.7793074  96.6196403  21.3208311  34.7675906
  99.0293450  30.8268199  37.4998611  98.3555148  31.1299896  38.1083569
  99.4159272  31.6297280  37.1504068  98.2451906  18.3233331  46.9896280
  97.3274468  18.5448278  46.8317968  98.6612050  18.3979641  46.1307988
  99.0286954  19.7224746  42.1198960  99.7758773  20.2346144  41.8106083
  99.2978544  19.4008799  42.9803354  97.3013604  22.2183287  39.1025915
  96.3924823  21.9342320  39.1998385  97.3308688  22.6382366  38.2429222
 102.5332872  25.8289877  42.8717082 102.0795199  24.9880786  42.9282273
 101.9026838  26.4651275  43.2091862 101.4765791  16.7581863  44.1017750
 100.7388548  16.2459249  44.4327992 101.7292565  16.3182244  43.2901027
 100.9765811  27.6666373  43.8066900 101.2688785  28.2271430  43.0879266
 101.4864431  27.9594934  44.5620060  87.8701775  19.9388801  43.0841117
  87.6726174  19.3458162  42.3592184  87.3148439  19.6341011  43.8017056
  95.8498498  19.8311908  45.2035710  95.9047108  18.8785744  45.1278187
  95.0389700  19.9871347  45.6877009  96.9989692  23.7592031  36.4413993
  96.5609122  23.0427890  35.9819631  97.7400133  23.9868146  35.8799085
  93.7890858  18.4488967  42.9626089  92.9758724  18.7483138  43.3691281
  94.2849852  18.0544656  43.6800571  95.9399436  28.4446724  44.8960354
  95.8975615  28.6707571  43.9668886  96.8562135  28.2110099  45.0446155
  99.3865070  18.9130792  51.7940983  99.7414458  19.1402265  52.6535449
 100.0337201  19.2449169  51.1718238 105.1162807  22.0349228  42.4990312
 104.9780705  22.2250824  41.5711501 104.7599026  22.7968611  42.9558363
  93.2804933  16.0207323  48.5787324  93.9204312  15.8796082  47.8810287
  92.4482463  15.7341836  48.2025926 105.1432186  24.1025755  47.5101583
 105.5768693  24.0101044  48.3584637 105.8563767  24.0783255  46.8721599
  94.0565237  25.3209753  44.6922316  94.8505835  24.8260074  44.4904891
  93.3456929  24.7927617  44.3290022  98.8760081  27.7027849  49.0434684
  98.9297104  28.2718785  49.8112400  98.0074863  27.8729734  48.6788721
  90.3648000  19.4652835  40.7682069  89.4345588  19.4037291  40.9852031
  90.4605472  18.9428788  39.9718710  90.2833549  15.9907648  43.3560311
  90.5440367  16.9052981  43.2469471  91.1050722  15.5232091  43.5056924
  91.7558475  17.4045405  50.5259135  92.4281528  17.1962767  49.8771784
  90.9288261  17.2067491  50.0864368 106.0047736  24.1449455  50.0434469
 106.1983626  25.0495266  50.2893744 105.9048354  23.6856875  50.8773054
  97.6584047  14.0307346  52.5424796  97.0111962  14.7297296  52.4489273
  98.4285062  14.4643490  52.9101044 101.0662845  24.2956198  55.6175349
 100.9148351  24.0666750  54.7005433 101.0567524  25.2526800  55.6306694
  97.8348181  21.8688111  50.6021616  98.7640241  22.0199271  50.4290583
  97.4139211  21.9572132  49.7470262  96.6336513  25.8938775  48.3720153
  96.4947599  25.5257560  49.2446092  95.8451109  26.4086415  48.2004111
  97.2284665  30.9947872  39.7145690  97.4036420  30.5235915  40.5291313
  96.5417453  31.6213638  39.9426951  98.1841728  25.2720378  45.7608991
  97.8491561  25.2321148  46.6566641  97.6845674  24.6065094  45.2879401
  92.1585972  20.6788008  51.2861572  92.0205770  19.9468247  51.8873111
  93.0690895  20.5896908  51.0045760 101.1200920  22.6176412  36.0346051
 100.5030090  21.8923241  35.9379104 100.6517408  23.3785773  35.6913125
  94.7868273  20.3907967  50.7745252  95.4967891  19.7501160  50.7331870
  94.7437581  20.6420862  51.6971433 102.7755051  27.3275321  53.6951831
 102.7167597  26.6434541  53.0282414 103.1774570  28.0694311  53.2432457
  93.4997207  17.3773185  52.5940892  92.9634564  16.9263924  53.2462488
  92.9113915  17.5119094  51.8511356  91.7945750  34.1437235  46.4885550
  92.0342348  34.7755759  47.1664569  90.9514947  33.7925275  46.7750909
  92.9099466  16.8361837  35.1567355  92.0328932  16.7150637  34.7929602
  93.3857219  16.0447915  34.9046244 102.7772459  25.2914905  51.9265811
 101.8899237  24.9540826  52.0492210 103.3471010  24.5597936  52.1634576
  84.4301606  21.6238996  45.2508862  85.1172645  21.3100726  44.6629878
  84.2749734  22.5280361  44.9776114  89.2336328  16.5129193  49.6793886
  89.1494517  15.9054863  48.9444296  88.4119034  17.0038211  49.6803382
  96.3073612  29.9516357  48.8927054  96.2343783  30.7571329  49.4046359
  95.8651005  30.1508323  48.0675076  96.0963392  29.1888127  42.4029876
  95.3130913  29.7309807  42.4968100  96.7956137  29.7062107  42.8024117
  99.4060042  14.9982757  45.0464081  99.9028741  14.2452719  44.7265151
  98.6347023  15.0347073  44.4807290 107.2589799  20.7023122  46.6882373
 107.2479675  21.5847837  46.3176306 106.3907179  20.3494673  46.4936910
  98.7672295  29.8503191  51.0485213  99.4800268  30.4850656  50.9761114
  98.2762324  29.9467057  50.2325215 100.4889822  23.7554444  42.6202504
  99.5546101  23.8755906  42.4507209 100.6666491  22.8526911  42.3562514
  95.9895010  17.1400140  44.7735766  95.6192798  16.5871180  45.4616671
  96.4854103  16.5358273  44.2210766 103.8762374  19.5971763  43.1552539
 104.3422826  20.4299755  43.0812841 104.3269874  19.1316745  43.8597797
  93.8184209  27.5997635  51.8690784  94.5193668  28.2334118  52.0220178
  93.3479324  27.9412366  51.1086423 101.9438605  25.9415584  40.1538691
 102.2198449  25.8272179  41.0632565 101.0743104  25.5433069  40.1150864
 101.6185495  20.1542242  49.6943334 100.9656945  20.4018149  49.0395787
 101.9965875  19.3406380  49.3605811  98.5792669  30.1901935  43.7971504
  98.7615063  29.3723591  44.2599257  99.4025655  30.4069627  43.3596394
  98.9134834  29.1170120  41.0586553  99.4422601  28.6062575  40.4456715
  99.1763054  28.8012651  41.9232086  97.6673068  20.8962053  56.1809371
  96.9913705  20.7956182  56.8511746  98.4900702  20.7401267  56.6445368
  89.4151927  27.1333990  48.8021886  90.0005364  26.3877677  48.9349791
  89.2176766  27.4437946  49.6858550  92.2690582  30.1685237  43.8184329
  91.6000958  30.6531365  43.3348369  92.1303452  30.4154457  44.7327707
  84.0069582  19.7039590  47.5226329  84.0453681  19.1703180  48.3163448
  83.5009875  19.1774795  46.9037307  96.4095851  32.2028980  50.4166987
  96.9614159  32.3660602  51.1816072  96.7502044  32.7933418  49.7447012
  91.3860344  14.5504130  51.0188872  91.4501671  15.4118961  50.6066269
  91.3227464  13.9378132  50.2861230  90.8612617  16.6227263  54.6661906
  91.4884655  16.2404340  55.2799430  90.0040535  16.4041465  55.0317599
 101.2606725  27.0290238  56.2715641 101.8046629  27.6420196  55.7770596
 100.6793570  27.5869816  56.7882654  87.6378159  18.4303692  40.5980261
  87.9331600  17.5214370  40.5447315  86.7366195  18.4091431  40.2761263
  99.5464238  30.1510956  47.4030669  99.4215378  29.3500696  46.8941615
 100.2043329  30.6457149  46.9144639  91.1672406  16.5059689  46.5807809
  90.4458992  17.1195656  46.4415283  91.9565662  17.0417453  46.5024455
 101.6099147  27.9519976  49.0310219 100.6629482  27.8325327  48.9588546
 101.9581920  27.0642474  49.1136481  93.9698720  13.8414115  52.8548461
  94.4933122  14.0876412  53.6174771  93.7511053  14.6734150  52.4351599
  89.3666001  16.1117790  40.7219586  89.0378707  15.2315169  40.5394692
  89.7205372  16.0565458  41.6095975  98.6145580  27.7472692  45.2314572
  98.4670542  26.8189400  45.4122142  99.4399073  27.7692783  44.7471647
  92.4807824  16.3990759  41.0895064  92.8203897  16.9276681  40.3673672
  92.9279945  16.7371166  41.8653630 102.2179702  28.5701251  46.3179444
 103.1426249  28.3644112  46.1803895 102.0495005  28.3217652  47.2268786
  95.1751265  14.7827810  50.5398132  94.8348085  13.9835623  50.9418812
  94.4690271  15.0829521  49.9674965  95.8267737  11.8677123  48.9925455
  96.6493806  11.3937601  48.8704345  96.0705800  12.6467606  49.4924141
  94.4675971  14.8965381  39.2888356  95.1884334  15.2746634  38.7852073
  93.8441275  15.6154258  39.3923334  98.6107094  15.6010530  40.2246689
  98.8270709  16.4835168  39.9235517  98.1301161  15.2096743  39.4952331
  93.3506316  18.5596243  46.8017433  93.2050896  18.8736546  47.6941715
  92.8731519  19.1781144  46.2488332  95.2102698  15.5498791  46.8498323
  95.1964267  14.6539884  46.5130621  95.9275127  15.5569455  47.4836609
  97.0628829  15.9836131  48.8951450  96.8046607  16.9053202  48.8935781
  96.5313869  15.5866566  49.5851914 102.0075018  29.0886918  41.6741536
 102.1811895  28.5233341  40.9215388 102.5003909  29.8887813  41.4921026
  87.8251978  21.1001588  49.7405095  87.2805446  21.8761396  49.8725369
  88.7031328  21.4472392  49.5824216  94.6139594  14.4313171  42.1185893
  94.7355506  13.5029818  42.3176781  94.3241637  14.4451857  41.2064208
  97.4830785  12.1168082  45.2552613  97.5052482  12.1807415  44.3004592
  97.8998844  11.2772591  45.4493119 107.8614409  21.8523341  43.2931835
 108.3045555  21.1030667  42.8950959 106.9840919  21.8433478  42.9105567
 102.9950190  28.4053683  38.7738434 103.6901095  29.0260376  38.9925749
 103.3373340  27.5549034  39.0490812  88.6118000  20.2271484  52.6335251
  87.8699736  20.3754119  53.2199882  88.2910744  20.4879749  51.7702001
 104.8941613  25.8553388  40.3025765 105.4192938  26.1940661  39.5775085
 104.8063966  24.9200404  40.1188899  96.5561662  29.7687462  52.4315641
  96.8648789  29.5236609  53.3038341  97.3537144  29.9734101  51.9434512
  96.5782274  31.9225372  44.6621018  96.1387265  31.4301750  45.3553875
  97.3290391  31.3798339  44.4213093  89.0574613  28.1136913  44.6645646
  89.8832633  27.8140684  44.2844290  88.7068665  27.3444535  45.1135435
  94.0256146  27.4663381  46.7343320  93.4036156  26.8034086  46.4345548
  94.6961013  27.4924513  46.0516967  87.2583218  26.0323239  45.6234580
  86.4215127  25.6045413  45.4418581  87.2306864  26.2255682  46.5605371
  94.0980674  15.9445169  56.3275826  94.1468829  16.8207292  55.9453595
  94.6403188  15.4022562  55.7547469 104.5835520  26.4886292  55.6076963
 103.7931063  26.4710431  55.0681462 104.3468874  27.0274586  56.3625999
 104.7033395  23.3378758  52.9209691 104.7531400  23.1728766  53.8625214
 104.5947318  22.4706017  52.5307572  93.5869653  26.0167304  40.2101780
  93.7357774  26.7002769  39.5568453  94.3936097  25.9972394  40.7251236
 101.9937157  19.3209686  54.2368998 102.8947020  19.1816151  53.9452996
 102.0685131  19.4864141  55.1767175  96.3279962  16.6976541  53.0822184
  95.4583272  16.9910107  52.8104773  96.5639443  17.2816986  53.8029448
 106.2051591  25.7575700  53.1651713 105.9136400  26.1205681  54.0015174
 105.5923723  25.0442708  52.9865045 107.4047274  23.3228580  45.6854283
 108.2394165  23.7618384  45.8491843 107.5406403  22.8467233  44.8662529
 104.4538780  20.8808315  51.6331771 104.9292901  21.0735961  50.8250622
 103.5304345  20.9367500  51.3875154  91.3422286  22.0432482  41.2162849
  91.0968328  21.1394812  41.4143059  91.5118201  22.0449632  40.2742327
  99.0318996  12.9156158  50.5987605  99.5500940  13.6517185  50.2734093
  98.6774129  13.2220151  51.4334364  90.6117934  17.7760839  38.7149011
  89.9187179  17.8505194  38.0589047  90.3669686  17.0121183  39.2370527
  97.0865059  28.5115435  37.6813528  96.5139026  29.1305622  37.2283999
  97.6597852  29.0614796  38.2153450 103.1540449  17.7574075  49.8660076
 104.1057872  17.8572172  49.8872300 102.9843899  16.9652343  50.3758161
 101.1754828  14.8429658  50.0519477 100.5804760  15.1234671  49.3565966
 100.8904525  15.3323559  50.8236218 100.3062319  28.7952585  38.8122110
 101.2392992  28.7298146  39.0154985 100.2185531  29.6308852  38.3536643
 102.9350335  28.1118455  35.7726057 102.8563967  27.7778319  36.6661815
 103.7560002  28.6040223  35.7717530 105.6328526  20.9780194  48.9802376
 105.6004847  20.0396195  49.1662060 106.2429150  21.0564231  48.2468201
  97.4711857  19.8476247  35.0229580  98.4170962  19.7182455  35.0917998
  97.0926102  19.1090909  35.4999008 105.7823015  17.7691238  49.0260659
 105.2662064  16.9849694  48.8390588 106.6662963  17.4409954  49.1907179
 111.4505076  22.0396201  48.1208413 112.1808465  21.7781489  48.6816116
 110.8412022  21.3024923  48.1610481 109.5320373  20.1804064  48.7182864
 108.8053537  20.0460029  48.1099356 109.1167660  20.4880892  49.5239582
  97.3550550  23.8993993  56.4830237  98.2753559  24.0772592  56.6770284
  97.3200133  22.9550039  56.3309936  95.6554774  17.7726224  34.9584465
  94.7486230  17.4759336  35.0347179  95.9330755  17.4756042  34.0918752
  86.5732715  19.0932587  45.4083512  86.2535499  18.2397895  45.1157886
  86.0266143  19.3081165  46.1641479  90.3512622  21.8095028  49.1253018
  90.5698632  22.7412136  49.1441052  90.7638396  21.4503003  49.9107822
  97.2716840  12.3163113  41.1128707  96.4617569  11.9710198  41.4883953
  97.9601257  12.0070657  41.7016318  95.2240488  17.3828234  58.5155767
  95.1237215  18.3322591  58.4467858  95.0062030  17.0546473  57.6431837
  94.4253559  14.6313159  35.0996445  95.2872723  14.9568057  35.3592262
  94.6103903  13.8444655  34.5869510  86.4420975  22.7135499  47.3776633
  85.7484446  22.2989451  46.8646588  87.1893966  22.7556035  46.7810052
 102.5786196  13.5041685  42.2431668 101.9984865  14.1626489  41.8609720
 102.3122128  12.6819030  41.8319085 101.0289762  12.9046743  44.4452988
 101.5289540  13.0163278  43.6367307 101.6725370  12.6007796  45.0853796
  95.0871758  20.8125373  57.3320829  94.6038839  21.6125733  57.5384718
  95.1732697  20.8233318  56.3788273  88.3557717  22.6453752  45.2542648
  88.3328405  22.7441440  44.3024531  88.6658354  23.4918903  45.5759814
  91.0145095  24.7029907  49.3689263  91.9688349  24.6713850  49.3019194
  90.8157619  24.2420531  50.1839489  91.6044477  23.2731023  51.9360060
  92.4237366  23.7675102  51.9594898  91.8781285  22.3562992  51.9077628
 101.3611074  15.6641776  41.2988016 100.4736929  15.9491426  41.0808211
 101.7765063  15.5035539  40.4515293 104.7125610  15.6888297  45.0142355
 105.4886000  16.1784749  45.2866972 103.9873744  16.1146351  45.4714225
 107.1498168  16.4015916  46.0716296 107.7442659  16.1611652  45.3609604
 107.2224752  15.6823047  46.6989832  89.3695324  30.2449527  46.3859460
  89.2349792  29.4849928  45.8197459  88.9527386  30.9690427  45.9188249
 100.5054287  25.4286450  35.3936036 101.2090137  25.6336453  36.0093691
  99.7816936  25.9963212  35.6585119 101.3352097  21.1796312  41.5138306
 101.2787299  21.6364863  40.6745938 101.8880440  20.4186996  41.3361149
 105.1456903  16.9686044  42.3388425 104.8893837  16.5682679  43.1696633
 104.5209771  17.6829838  42.2138565 109.4569241  19.7082117  44.8459717
 108.8968799  19.7775306  45.6191279 108.8512744  19.5323101  44.1259213
  92.5264450  31.1418844  46.5977903  92.4096834  32.0864276  46.4956593
  91.7056896  30.8392406  46.9863702 102.4140984  25.8668980  37.4434496
 103.2486588  25.4350178  37.2611971 102.2525327  25.6950993  38.3711390
 102.0686877  22.3701093  38.8090835 102.0135680  22.2045364  37.8679279
 101.4432932  23.0777126  38.9653025  86.8579392  17.6069157  52.6352257
  87.5038255  17.0968111  53.1239483  86.6496543  18.3437839  53.2095683
  99.3832784  24.6750005  58.1344398 100.2523943  24.8490657  57.7731033
  98.9039535  25.4944422  58.0120127  95.3783002  11.8709202  38.3876154
  95.3661672  12.8151042  38.5444424  96.2706424  11.6879347  38.0935615
  93.5518964  31.7947106  49.8133832  94.4546211  31.8270716  50.1300327
  93.3256334  30.8647557  49.8280167  95.3072566  30.5478092  46.4743910
  94.3568197  30.5479954  46.3608282  95.6105052  29.8010827  45.9579945
  91.1976883  14.7536774  56.7327272  92.0608344  14.3973579  56.9430596
  90.6242293  14.4150669  57.4202676 111.0425260  36.3838631  47.5389673
 111.6803669  36.2645378  46.8353013 110.9246102  37.3319475  47.5977625
 107.8514966  36.3366059  47.4751197 107.5133477  36.2207124  46.5871732
 108.7204734  35.9357224  47.4552203 103.7101782  38.1901535  43.4648088
 103.1466647  38.0991472  42.6964376 103.5954177  37.3701440  43.9450581
 108.3334749  37.4900911  53.4337403 108.3223390  37.0953709  52.5617906
 108.4955388  36.7566983  54.0271174 101.2566213  39.6852727  46.3032309
 102.0487505  39.3443552  45.8878608 101.4962864  39.7947702  47.2234462
 109.2901340  41.8572503  38.7762553 108.6389320  42.4426583  38.3896567
 110.0845703  42.3878698  38.8357591 103.2156967  38.9461640  39.1749687
 103.9887843  38.3990627  39.0362563 103.5682366  39.8105889  39.3864149
 105.0542010  40.2738022  52.3816587 104.7631876  41.1783653  52.2663253
 105.6898994  40.3154550  53.0960656 105.9798217  37.6514871  48.9717946
 106.5761789  37.4270893  48.2574909 106.0373188  36.9099616  49.5743394
 105.5523245  35.1054306  36.8068137 105.8048766  34.5835828  36.0451600
 104.6147804  34.9420452  36.9094821 110.5966528  34.1090085  44.6142881
 111.3829617  33.6909508  44.2633298 110.8605232  35.0136177  44.7824529
 110.7676605  39.5462935  39.3131537 110.1322438  39.6197561  40.0252442
 110.4374012  40.1356534  38.6350617 115.9974955  34.0465318  45.5175859
 116.7300127  33.4764535  45.7513689 115.2414311  33.6586918  45.9582365
 105.2719534  37.0082412  39.0092512 105.1555792  36.3327316  39.6773597
 105.3821794  36.5214786  38.1924665 107.6151075  36.4692559  42.7139202
 107.2509282  35.9423180  43.4252123 108.4718191  36.0791028  42.5405687
 113.5200376  27.7586892  49.9770468 113.1883700  28.6282303  49.7531683
 112.9245989  27.4423176  50.6564498 107.2556562  31.4982459  37.7100550
 107.4230964  32.3662695  38.0771021 107.0653731  31.6609741  36.7861839
 110.0131895  39.9599438  49.3766380 109.7132618  40.8624477  49.2682188
 109.6682955  39.6931621  50.2287533 103.4644377  36.4113235  45.4103085
 102.5394873  36.2789449  45.6180777 103.7128790  37.1907454  45.9073027
 113.4129039  32.4781978  47.0563818 112.5045916  32.4097387  46.7622579
 113.3616635  32.9553923  47.8845643 107.2345783  33.9540117  38.6947217
 107.1145408  34.3997167  39.5332697 106.5398371  34.3025434  38.1360755
 100.8253188  36.0546508  46.2446874 100.9545569  36.3080987  47.1586286
 100.1450639  36.6474216  45.9251529 104.9952675  46.7243758  42.3437348
 104.9176705  47.6751583  42.4225829 104.3914318  46.3789631  43.0012274
 107.4869905  33.8971624  54.9998715 106.7103239  34.4565544  54.9901580
 108.1260468  34.3828407  55.5213585 115.2790685  30.6798417  48.8341692
 114.6365065  30.9730950  48.1881486 114.7745614  30.5651337  49.6394888
 112.9330849  34.4261590  39.5227551 113.8448705  34.6588976  39.3475249
 112.4240496  35.0098634  38.9602630 105.7416277  36.7057077  54.5616682
 106.4830961  37.2442121  54.2851506 105.0353262  37.3323366  54.7188234
 111.2171617  38.8486218  53.1588844 111.6254973  38.4068628  52.4143476
 110.4948878  38.2738845  53.4123036 107.5702687  33.7858824  50.5322401
 108.4163882  34.2098238  50.6757050 107.5101324  33.1292449  51.2260964
 111.5400431  39.4087408  46.9141132 110.9109294  39.5733122  46.2117200
 111.1526093  39.8229018  47.6852096 115.4189663  40.3441846  44.2685496
 114.7340701  40.7240747  43.7182530 115.5033512  40.9537173  45.0017444
 110.7202132  31.4463193  52.1903574 110.4763064  32.2005253  51.6537850
 110.9962062  31.8248540  53.0250821 112.6740595  37.9901805  50.8680840
 112.8857490  38.6333565  50.1915221 112.6270343  37.1564122  50.4002770
 110.2766824  30.6019626  47.7717412 109.4151303  30.9000879  48.0634149
 110.3029258  30.8190025  46.8398445 107.0928393  39.1461816  44.1791218
 107.5566739  39.4249519  43.3895840 106.8285191  38.2445261  43.9964308
 103.9852474  38.6933298  47.1170981 104.5553831  39.1220566  46.4788465
 104.5760586  38.4115882  47.8155166 106.0297279  35.2684969  40.9880783
 106.7321322  35.7206012  41.4554709 105.6977908  34.6268787  41.6160676
 104.4777641  33.8596725  55.3631992 103.8476301  34.5413006  55.5967389
 104.3713729  33.7479807  54.4185130  99.7722613  33.5268521  46.2897916
  98.9821667  33.7826050  45.8138027 100.2633860  34.3416859  46.3949957
 113.7886423  40.8673760  49.0403197 114.6103866  40.4653948  48.7585879
 113.7848826  40.7641995  49.9919313 101.7237358  33.8913101  43.2481393
 100.9268522  34.0031795  43.7664889 101.4962951  34.2299753  42.3822283
 107.5543026  40.4157804  51.1963908 107.6187459  40.8778211  52.0322079
 106.8453950  39.7855169  51.3246217  98.0560316  33.7799012  48.7212907
  98.3068354  34.6646022  48.9870483  98.5919864  33.6003613  47.9487999
 107.2691044  42.0825911  41.0642888 107.1336719  42.9277447  41.4927736
 107.8100856  42.2845189  40.3008822 103.7558383  28.1617491  57.7257243
 103.3625329  27.6083690  58.4004887 104.5724524  28.4728070  58.1163761
 100.7220441  39.6001349  41.6370813 101.2344962  40.3944600  41.7876378
 101.3743154  38.9027640  41.5704414 102.5315326  42.7167106  43.7193566
 102.7081954  43.6385070  43.5314550 103.3272159  42.4025525  44.1487946
 106.6726344  29.5775370  55.3177500 107.4136058  30.1782523  55.2381962
 106.9044267  28.8353008  54.7595542 101.8167682  34.7631737  53.5955729
 101.7021198  33.8616995  53.8962828 100.9612200  35.0095434  53.2440546
 108.8959520  42.7049478  55.1943230 108.4523374  41.9185856  54.8764134
 109.5576734  42.8928628  54.5287121 103.6546641  44.2345279  49.7203908
 104.2054066  44.1062343  48.9480902 102.8158117  44.5340168  49.3698801
 110.9940758  42.9852278  53.2224631 110.9759234  43.8061159  52.7304900
 111.9160678  42.8606353  53.4474772 107.4513812  40.4996407  54.0648140
 107.9842149  39.7384695  53.8347448 106.9227893  40.2070059  54.8072294
 110.6183507  25.6056473  49.5941781 110.2747777  26.4958115  49.5180892
 110.9862470  25.4158131  48.7311366  98.6869358  37.9290004  42.4130384
  99.5244580  38.3387012  42.1964091  98.8647626  36.9889446  42.3830577
 110.5833790  35.5965084  38.1014216 110.0680413  36.3669689  38.3402604
 110.3111098  34.9230220  38.7247278 108.1680901  30.4414785  43.1599455
 107.3122497  30.0521635  42.9805094 108.5807853  30.5206746  42.2999240
 109.6980048  27.9761128  47.5591015 109.1944843  27.9391263  46.7458820
 109.9910655  28.8853871  47.6187671 105.9422934  28.0599858  46.5657196
 106.8075930  27.8642667  46.2063086 106.0100443  27.8310210  47.4926553
 115.5568064  38.3497439  40.0367390 114.7797507  38.0108598  39.5922552
 116.2359545  38.3550062  39.3622355 110.3720093  33.4692176  39.9273998
 110.0670229  33.7838325  40.7784141 111.3250535  33.5473596  39.9701331
 108.8166525  39.6282400  41.5766952 108.2887887  38.8935159  41.2640189
 108.3154028  40.4057076  41.3306920 113.7959371  37.8231420  46.6933998
 113.1383046  38.5130682  46.7814127 114.5999770  38.2127852  47.0367984
 103.5485253  30.2902066  43.9373563 104.1229005  30.0677247  43.2046756
 104.1356235  30.3590760  44.6902164 112.6064830  36.1775793  44.7437940
 113.1196712  36.8105785  45.2459649 113.2566054  35.5776988  44.3781300
 103.8754840  32.3206527  37.9569448 103.0392152  32.6581213  38.2778723
 103.7359609  32.1855507  37.0196585 105.8507920  27.1643315  42.6648633
 105.1972333  26.8492332  42.0405247 105.8088395  26.5419055  43.3908456
 106.9619125  37.4462610  34.5801925 106.0546187  37.2151863  34.7793074
 107.4590157  36.6500229  34.7675906 109.8687204  46.1560117  37.4998611
 109.1948903  46.4591814  38.1083569 110.2553026  46.9589197  37.1504068
 109.0845661  33.6525248  46.9896280 108.1668222  33.8740195  46.8317968
 109.5005804  33.7271559  46.1307988 109.8680709  35.0516664  42.1198960
 110.6152527  35.5638061  41.8106083 110.1372298  34.7300717  42.9803354
 108.1407359  37.5475205  39.1025915 107.2318578  37.2634238  39.1998385
 108.1702442  37.9674283  38.2429222 113.3726626  41.1581794  42.8717082
 112.9188953  40.3172704  42.9282273 112.7420593  41.7943193  43.2091862
 112.3159546  32.0873780  44.1017750 111.5782302  31.5751167  44.4327992
 112.5686319  31.6474162  43.2901027 111.8159565  42.9958291  43.8066900
 112.1082540  43.5563348  43.0879266 112.3258186  43.2886852  44.5620060
 112.4171173  24.8650032  44.6959519 112.7230050  24.0047396  44.4085434
 113.1423778  25.4567652  44.4958513  98.7095529  35.2680719  43.0841117
  98.5119929  34.6750080  42.3592184  98.1542193  34.9632929  43.8017056
 106.6892253  35.1603825  45.2035710 106.7440863  34.2077662  45.1278187
 105.8783455  35.3163264  45.6877009 107.8383446  39.0883948  36.4413993
 107.4002876  38.3719807  35.9819631 108.5793887  39.3160063  35.8799085
 104.6284613  33.7780885  42.9626089 103.8152478  34.0775056  43.3691281
 105.1243607  33.3836574  43.6800571 106.7793191  43.7738642  44.8960354
 106.7369369  43.9999488  43.9668886 107.6955889  43.5402017  45.0446155
 110.2258824  34.2422710  51.7940983 110.5808212  34.4694183  52.6535449
 110.8730956  34.5741086  51.1718238 115.9556561  37.3641145  42.4990312
 115.8174460  37.5542741  41.5711501 115.5992780  38.1260528  42.9558363
 104.1198687  31.3499241  48.5787324 104.7598067  31.2088000  47.8810287
 103.2876218  31.0633754  48.2025926 115.9825941  39.4317672  47.5101583
 116.4162448  39.3392962  48.3584637 116.6957522  39.4075173  46.8721599
 104.8958991  40.6501671  44.6922316 105.6899590  40.1551991  44.4904891
 104.1850684  40.1219534  44.3290022 109.7153836  43.0319767  49.0434684
 109.7690858  43.6010703  49.8112400 108.8468617  43.2021652  48.6788721
 101.2041755  34.7944753  40.7682069 100.2739343  34.7329208  40.9852031
 101.2999227  34.2720706  39.9718710 101.1227304  31.3199566  43.3560311
 101.3834121  32.2344899  43.2469471 101.9444476  30.8524008  43.5056924
 102.5952229  32.7337323  50.5259135 103.2675283  32.5254685  49.8771784
 101.7682016  32.5359409  50.0864368 116.8441490  39.4741373  50.0434469
 117.0377381  40.3787184  50.2893744 116.7442109  39.0148792  50.8773054
 108.4977801  29.3599264  52.5424796 107.8505716  30.0589213  52.4489273
 109.2678817  29.7935408  52.9101044 111.9056599  39.6248116  55.6175349
 111.7542106  39.3958668  54.7005433 111.8961279  40.5818717  55.6306694
 108.6741936  37.1980029  50.6021616 109.6033996  37.3491188  50.4290583
 108.2532966  37.2864049  49.7470262 107.4730267  41.2230693  48.3720153
 107.3341353  40.8549477  49.2446092 106.6844864  41.7378332  48.2004111
 108.0678419  46.3239790  39.7145690 108.2430175  45.8527833  40.5291313
 107.3811207  46.9505556  39.9426951 109.0235482  40.6012296  45.7608991
 108.6885315  40.5613066  46.6566641 108.5239428  39.9357012  45.2879401
 102.9979726  36.0079926  51.2861572 102.8599524  35.2760165  51.8873111
 103.9084650  35.9188826  51.0045760 111.9594674  37.9468330  36.0346051
 111.3423845  37.2215158  35.9379104 111.4911163  38.7077690  35.6913125
 105.6262027  35.7199885  50.7745252 106.3361646  35.0793077  50.7331870
 105.5831335  35.9712780  51.6971433 113.6148806  42.6567238  53.6951831
 113.5561352  41.9726459  53.0282414 114.0168324  43.3986228  53.2432457
 104.3390961  32.7065103  52.5940892 103.8028318  32.2555841  53.2462488
 103.7507670  32.8411012  51.8511356 102.6339505  49.4729152  46.4885550
 102.8736103  50.1047676  47.1664569 101.7908701  49.1217192  46.7750909
 103.7493220  32.1653754  35.1567355 102.8722686  32.0442555  34.7929602
 104.2250973  31.3739833  34.9046244 113.6166213  40.6206822  51.9265811
 112.7292992  40.2832744  52.0492210 114.1864764  39.8889854  52.1634576
  95.2695360  36.9530914  45.2508862  95.9566400  36.6392644  44.6629878
  95.1143489  37.8572279  44.9776114 100.0730082  31.8421111  49.6793886
  99.9888271  31.2346780  48.9444296  99.2512789  32.3330129  49.6803382
 107.1467366  45.2808275  48.8927054 107.0737538  46.0863246  49.4046359
 106.7044760  45.4800241  48.0675076 106.9357146  44.5180045  42.4029876
 106.1524668  45.0601725  42.4968100 107.6349891  45.0354024  42.8024117
 110.2453796  30.3274674  45.0464081 110.7422496  29.5744637  44.7265151
 109.4740778  30.3638991  44.4807290 118.0983554  36.0315040  46.6882373
 118.0873430  36.9139755  46.3176306 117.2300933  35.6786591  46.4936910
 109.6066050  45.1795109  51.0485213 110.3194022  45.8142574  50.9761114
 109.1156079  45.2758975  50.2325215 111.3283577  39.0846361  42.6202504
 110.3939856  39.2047824  42.4507209 111.5060245  38.1818828  42.3562514
 106.8288765  32.4692057  44.7735766 106.4586552  31.9163098  45.4616671
 107.3247857  31.8650191  44.2210766 114.7156128  34.9263681  43.1552539
 115.1816580  35.7591672  43.0812841 115.1663629  34.4608662  43.8597797
 104.6577963  42.9289552  51.8690784 105.3587423  43.5626035  52.0220178
 104.1873078  43.2704284  51.1086423 112.7832359  41.2707502  40.1538691
 113.0592203  41.1564097  41.0632565 111.9136858  40.8724987  40.1150864
 112.6872791  27.2944268  47.1943440 111.7735871  27.5248495  47.3625647
 113.1165892  27.3782712  48.0457472 112.4579249  35.4834160  49.6943334
 111.8050700  35.7310067  49.0395787 112.8359629  34.6698298  49.3605811
 109.4186423  45.5193853  43.7971504 109.6008818  44.7015509  44.2599257
 110.2419409  45.7361545  43.3596394 109.7528589  44.4462038  41.0586553
 110.2816355  43.9354493  40.4456715 110.0156808  44.1304568  41.9232086
 108.5066822  36.2253971  56.1809371 107.8307459  36.1248100  56.8511746
 109.3294456  36.0693184  56.6445368 100.2545682  42.4625907  48.8021886
 100.8399118  41.7169595  48.9349791 100.0570520  42.7729864  49.6858550
 103.1084337  45.4977155  43.8184329 102.4394712  45.9823282  43.3348369
 102.9697206  45.7446375  44.7327707  94.8463336  35.0331507  47.5226329
  94.8847436  34.4995098  48.3163448  94.3403629  34.5066713  46.9037307
 107.2489605  47.5320898  50.4166987 107.8007913  47.6952520  51.1816072
 107.5895799  48.1225336  49.7447012 102.2254099  29.8796048  51.0188872
 102.2895425  30.7410879  50.6066269 102.1621219  29.2670050  50.2861230
 101.7006371  31.9519181  54.6661906 102.3278410  31.5696258  55.2799430
 100.8434290  31.7333382  55.0317599 112.1000480  42.3582156  56.2715641
 112.6440384  42.9712114  55.7770596 111.5187325  42.9161734  56.7882654
  98.4771914  33.7595610  40.5980261  98.7725355  32.8506288  40.5447315
  97.5759950  33.7383349  40.2761263 110.3857993  45.4802874  47.4030669
 110.2609132  44.6792614  46.8941615 111.0437084  45.9749067  46.9144639
 102.0066161  31.8351606  46.5807809 101.2852747  32.4487574  46.4415283
 102.7959417  32.3709371  46.5024455 112.4492901  43.2811894  49.0310219
 111.5023237  43.1617245  48.9588546 112.7975674  42.3934392  49.1136481
 104.8092474  29.1706033  52.8548461 105.3326876  29.4168329  53.6174771
 104.5904808  30.0026068  52.4351599 100.2059755  31.4409707  40.7219586
  99.8772462  30.5607086  40.5394692 100.5599126  31.3857376  41.6095975
 109.4539334  43.0764610  45.2314572 109.3064297  42.1481317  45.4122142
 110.2792828  43.0984701  44.7471647 103.3201579  31.7282677  41.0895064
 103.6597651  32.2568598  40.3673672 103.7673699  32.0663083  41.8653630
 113.0573456  43.8993169  46.3179444 113.9820004  43.6936030  46.1803895
 112.8888760  43.6509570  47.2268786 106.0145019  30.1119728  50.5398132
 105.6741840  29.3127541  50.9418812 105.3084026  30.4121439  49.9674965
 106.6661491  27.1969040  48.9925455 107.4887561  26.7229518  48.8704345
 106.9099555  27.9759524  49.4924141 105.3069726  30.2257299  39.2888356
 106.0278088  30.6038551  38.7852073 104.6835030  30.9446175  39.3923334
 109.4500849  30.9302448  40.2246689 109.6664463  31.8127086  39.9235517
 108.9694916  30.5388661  39.4952331 104.1900070  33.8888161  46.8017433
 104.0444651  34.2028464  47.6941715 103.7125274  34.5073061  46.2488332
 106.0496453  30.8790709  46.8498323 106.0358022  29.9831802  46.5130621
 106.7668881  30.8861373  47.4836609 107.9022584  31.3128049  48.8951450
 107.6440361  32.2345120  48.8935781 107.3707624  30.9158484  49.5851914
 112.8468772  44.4178836  41.6741536 113.0205650  43.8525259  40.9215388
 113.3397664  45.2179731  41.4921026  98.6645732  36.4293505  49.7405095
  98.1199200  37.2053313  49.8725369  99.5425082  36.7764310  49.5824216
 105.4533349  29.7605089  42.1185893 105.5749260  28.8321735  42.3176781
 105.1635391  29.7743775  41.2064208 108.3224539  27.4460000  45.2552613
 108.3446236  27.5099333  44.3004592 108.7392598  26.6064508  45.4493119
 113.8343945  43.7345601  38.7738434 114.5294849  44.3552293  38.9925749
 114.1767095  42.8840952  39.0490812  99.4511754  35.5563402  52.6335251
  98.7093490  35.7046037  53.2199882  99.1304498  35.8171667  51.7702001
 115.7335368  41.1845306  40.3025765 116.2586692  41.5232579  39.5775085
 115.6457721  40.2492321  40.1188899 107.3955417  45.0979380  52.4315641
 107.7042543  44.8528527  53.3038341 108.1930899  45.3026018  51.9434512
 107.4176029  47.2517289  44.6621018 106.9781019  46.7593668  45.3553875
 108.1684146  46.7090257  44.4213093  99.8968368  43.4428830  44.6645646
 100.7226388  43.1432602  44.2844290  99.5462420  42.6736453  45.1135435
 104.8649901  42.7955298  46.7343320 104.2429910  42.1326004  46.4345548
 105.5354768  42.8216430  46.0516967  98.0976973  41.3615157  45.6234580
  97.2608881  40.9337331  45.4418581  98.0700618  41.5547600  46.5605371
 104.9374428  31.2737087  56.3275826 104.9862584  32.1499209  55.9453595
 105.4796943  30.7314480  55.7547469 115.4229274  41.8178210  55.6076963
 114.6324818  41.8002349  55.0681462 115.1862629  42.3566503  56.3625999
 115.5427149  38.6670676  52.9209691 115.5925154  38.5020684  53.8625214
 115.4341072  37.7997935  52.5307572 104.4263408  41.3459222  40.2101780
 104.5751528  42.0294686  39.5568453 105.2329851  41.3264312  40.7251236
 112.8330911  34.6501604  54.2368998 113.7340774  34.5108069  53.9452996
 112.9078886  34.8156059  55.1767175 107.1673717  32.0268459  53.0822184
 106.2977026  32.3202025  52.8104773 107.4033197  32.6108904  53.8029448
 117.0445346  41.0867618  53.1651713 116.7530154  41.4497598  54.0015174
 116.4317477  40.3734626  52.9865045 115.2932534  36.2100232  51.6331771
 115.7686656  36.4027879  50.8250622 114.3698100  36.2659418  51.3875154
 102.1816041  37.3724399  41.2162849 101.9362083  36.4686729  41.4143059
 102.3511955  37.3741550  40.2742327 109.8712751  28.2448076  50.5987605
 110.3894695  28.9809103  50.2734093 109.5167883  28.5512069  51.4334364
 101.4511688  33.1052757  38.7149011 100.7580933  33.1797112  38.0589047
 101.2063440  32.3413101  39.2370527 110.1225345  24.6648358  46.1188501
 110.4027099  23.9971547  46.7448928 110.9075952  24.8577454  45.6063165
 107.9258813  43.8407352  37.6813528 107.3532780  44.4597539  37.2283999
 108.4991607  44.3906714  38.2153450 113.9934203  33.0865992  49.8660076
 114.9451626  33.1864090  49.8872300 113.8237654  32.2944261  50.3758161
 112.0148583  30.1721576  50.0519477 111.4198515  30.4526588  49.3565966
 111.7298279  30.6615477  50.8236218 111.1456073  44.1244502  38.8122110
 112.0786746  44.0590064  39.0154985 111.0579286  44.9600769  38.3536643
 113.7744090  43.4410373  35.7726057 113.6957721  43.1070236  36.6661815
 114.5953757  43.9332141  35.7717530 116.4722281  36.3072112  48.9802376
 116.4398601  35.3688113  49.1662060 117.0822905  36.3856149  48.2468201
 108.3105612  35.1768165  35.0229580 109.2564717  35.0474373  35.0917998
 107.9319857  34.4382827  35.4999008 116.6216769  33.0983155  49.0260659
 116.1055818  32.3141612  48.8390588 117.5056718  32.7701872  49.1907179
 114.2827496  26.8424171  44.9856472 114.0852317  26.5339259  45.8699804
 114.8927202  27.5685810  45.1154402 108.1944304  39.2285911  56.4830237
 109.1147314  39.4064510  56.6770284 108.1593887  38.2841957  56.3309936
 106.4948529  33.1018141  34.9584465 105.5879984  32.8051254  35.0347179
 106.7724510  32.8047959  34.0918752  97.4126469  34.4224505  45.4083512
  97.0929254  33.5689813  45.1157886  96.8659898  34.6373083  46.1641479
 101.1906377  37.1386946  49.1253018 101.4092387  38.0704054  49.1441052
 101.6032151  36.7794920  49.9107822 108.1110595  27.6455031  41.1128707
 107.3011323  27.3002116  41.4883953 108.7995012  27.3362575  41.7016318
 110.0401143  26.7233078  42.7353003 110.5932182  27.1428531  43.3943026
 110.2771229  25.7968826  42.7775959 106.0634242  32.7120152  58.5155767
 105.9630969  33.6614509  58.4467858 105.8455784  32.3838390  57.6431837
 105.2647314  29.9605077  35.0996445 106.1266478  30.2859975  35.3592262
 105.4497658  29.1736573  34.5869510  97.2814729  38.0427416  47.3776633
  96.5878201  37.6281369  46.8646588  98.0287720  38.0847953  46.7810052
 113.4179950  28.8333603  42.2431668 112.8378619  29.4918407  41.8609720
 113.1515883  28.0110948  41.8319085 111.8683516  28.2338661  44.4452988
 112.3683295  28.3455195  43.6367307 112.5119124  27.9299714  45.0853796
 105.9265512  36.1417290  57.3320829 105.4432594  36.9417651  57.5384718
 106.0126451  36.1525235  56.3788273  99.1951472  37.9745670  45.2542648
  99.1722160  38.0733357  44.3024531  99.5052108  38.8210821  45.5759814
 101.8538850  40.0321825  49.3689263 102.8082103  40.0005767  49.3019194
 101.6551373  39.5712449  50.1839489 102.4438232  38.6022941  51.9360060
 103.2631121  39.0967020  51.9594898 102.7175040  37.6854909  51.9077628
 112.2004828  30.9933693  41.2988016 111.3130683  31.2783344  41.0808211
 112.6158817  30.8327457  40.4515293 115.5519364  31.0180214  45.0142355
 116.3279754  31.5076667  45.2866972 114.8267498  31.4438269  45.4714225
 100.2089079  45.5741445  46.3859460 100.0743546  44.8141845  45.8197459
  99.7921141  46.2982344  45.9188249 111.3448042  40.7578368  35.3936036
 112.0483892  40.9628371  36.0093691 110.6210690  41.3255130  35.6585119
 112.1745852  36.5088229  41.5138306 112.1181053  36.9656781  40.6745938
 112.7274194  35.7478914  41.3361149 115.9850658  32.2977961  42.3388425
 115.7287592  31.8974597  43.1696633 115.3603526  33.0121755  42.2138565
 103.3658204  46.4710762  46.5977903 103.2490589  47.4156194  46.4956593
 102.5450651  46.1684323  46.9863702 113.2534739  41.1960897  37.4434496
 114.0880343  40.7642096  37.2611971 113.0919082  41.0242911  38.3711390
 112.9080631  37.6993011  38.8090835 112.8529435  37.5337282  37.8679279
 112.2826686  38.4069044  38.9653025  97.6973146  32.9361075  52.6352257
  98.3432010  32.4260029  53.1239483  97.4890297  33.6729757  53.2095683
 110.2226538  40.0041923  58.1344398 111.0917698  40.1782575  57.7731033
 109.7433290  40.8236339  58.0120127 106.2176757  27.2001120  38.3876154
 106.2055426  28.1442960  38.5444424 107.1100178  27.0171265  38.0935615
 104.3912719  47.1239024  49.8133832 105.2939965  47.1562634  50.1300327
 104.1650089  46.1939474  49.8280167 106.1466321  45.8770010  46.4743910
 105.1961952  45.8771872  46.3608282 106.4498807  45.1302745  45.9579945
 110.0328876  23.7943896  42.6422090 109.2661272  23.2402383  42.7878773
 110.4439581  23.8665765  43.5036242 102.0370637  30.0828692  56.7327272
 102.9002099  29.7265497  56.9430596 101.4636048  29.7442587  57.4202676
 114.5495536  53.5193453  43.4648088 113.9860401  53.4283390  42.6964376
 114.4347931  52.6993357  43.9450581 112.0959968  55.0144645  46.3032309
 112.8881260  54.6735469  45.8878608 112.3356618  55.1239620  47.2234462
 114.0550722  54.2753558  39.1749687 114.8281598  53.7282545  39.0362563
 114.4076121  55.1397807  39.3864149 115.8935764  55.6029940  52.3816587
 115.6025630  56.5075571  52.2663253 116.5292749  55.6446468  53.0960656
 116.8191971  52.9806789  48.9717946 117.4155544  52.7562811  48.2574909
 116.8766943  52.2391534  49.5743394 116.3917000  50.4346224  36.8068137
 116.6442520  49.9127745  36.0451600 115.4541559  50.2712369  36.9094821
 116.1113288  52.3374330  39.0092512 115.9949547  51.6619233  39.6773597
 116.2215548  51.8506704  38.1924665 118.0950316  46.8274377  37.7100550
 118.2624719  47.6954613  38.0771021 117.9047485  46.9901658  36.7861839
 114.3038131  51.7405152  45.4103085 113.3788627  51.6081367  45.6180777
 114.5522544  52.5199372  45.9073027 118.0739537  49.2832034  38.6947217
 117.9539162  49.7289085  39.5332697 117.3792126  49.6317352  38.1360755
 111.6646942  51.3838426  46.2446874 111.7939323  51.6372905  47.1586286
 110.9844393  51.9766134  45.9251529 115.8346429  62.0535676  42.3437348
 115.7570459  63.0043501  42.4225829 115.2308073  61.7081548  43.0012274
 116.5810031  52.0348995  54.5616682 117.3224716  52.5734039  54.2851506
 115.8747017  52.6615283  54.7188234 114.8246229  54.0225215  47.1170981
 115.3947586  54.4512484  46.4788465 115.4154340  53.7407800  47.8155166
 116.8691034  50.5976886  40.9880783 117.5715077  51.0497930  41.4554709
 116.5371662  49.9560705  41.6160676 115.3171395  49.1888643  55.3631992
 114.6870056  49.8704924  55.5967389 115.2107483  49.0771725  54.4185130
 110.6116368  48.8560439  46.2897916 109.8215422  49.1117967  45.8138027
 111.1027615  49.6708777  46.3949957 112.5631113  49.2205018  43.2481393
 111.7662276  49.3323712  43.7664889 112.3356705  49.5591670  42.3822283
 108.8954071  49.1090929  48.7212907 109.1462109  49.9937939  48.9870483
 109.4313619  48.9295531  47.9487999 114.5952138  43.4909409  57.7257243
 114.2019083  42.9375607  58.4004887 115.4118278  43.8019987  58.1163761
 111.5614196  54.9293267  41.6370813 112.0738716  55.7236517  41.7876378
 112.2136908  54.2319557  41.5704414 113.3709080  58.0459023  43.7193566
 113.5475709  58.9676988  43.5314550 114.1665914  57.7317442  44.1487946
 117.5120099  44.9067288  55.3177500 118.2529812  45.5074441  55.2381962
 117.7438022  44.1644926  54.7595542 112.6561437  50.0923655  53.5955729
 112.5414952  49.1908912  53.8962828 111.8005955  50.3387352  53.2440546
 114.4940396  59.5637197  49.7203908 115.0447821  59.4354260  48.9480902
 113.6551872  59.8632086  49.3698801 109.5263112  53.2581921  42.4130384
 110.3638334  53.6678930  42.1964091 109.7041380  52.3181363  42.3830577
 116.7816688  43.3891776  46.5657196 117.6469685  43.1934584  46.2063086
 116.8494197  43.1602127  47.4926553 114.3879007  45.6193984  43.9373563
 114.9622759  45.3969165  43.2046756 114.9749990  45.6882678  44.6902164
 114.7148594  47.6498445  37.9569448 113.8785907  47.9873131  38.2778723
 114.5753364  47.5147424  37.0196585 116.6901675  42.4935232  42.6648633
 116.0366087  42.1784250  42.0405247 116.6482149  41.8710973  43.3908456
 109.5489284  50.5972637  43.0841117 109.3513683  50.0041997  42.3592184
 108.9935948  50.2924847  43.8017056 117.5286007  50.4895743  45.2035710
 117.5834617  49.5369579  45.1278187 116.7177209  50.6455182  45.6877009
 115.4678367  49.1072803  42.9626089 114.6546233  49.4066973  43.3691281
 115.9637361  48.7128492  43.6800571 114.9592442  46.6791158  48.5787324
 115.5991821  46.5379917  47.8810287 114.1269972  46.3925672  48.2025926
 115.7352746  55.9793589  44.6922316 116.5293344  55.4843909  44.4904891
 115.0244438  55.4511452  44.3290022 112.0435509  50.1236670  40.7682069
 111.1133097  50.0621126  40.9852031 112.1392981  49.6012623  39.9718710
 111.9621058  46.6491483  43.3560311 112.2227876  47.5636817  43.2469471
 112.7838231  46.1815926  43.5056924 113.4345984  48.0629240  50.5259135
 114.1069037  47.8546603  49.8771784 112.6075770  47.8651326  50.0864368
 113.8373481  51.3371843  51.2861572 113.6993279  50.6052082  51.8873111
 114.7478404  51.2480744  51.0045760 116.4655782  51.0491803  50.7745252
 117.1755400  50.4084995  50.7331870 116.4225090  51.3004698  51.6971433
 115.1784716  48.0357021  52.5940892 114.6422073  47.5847759  53.2462488
 114.5901424  48.1702929  51.8511356 113.4733259  64.8021070  46.4885550
 113.7129857  65.4339594  47.1664569 112.6302456  64.4509110  46.7750909
 114.5886975  47.4945672  35.1567355 113.7116441  47.3734473  34.7929602
 115.0644728  46.7031750  34.9046244 106.1089115  52.2822832  45.2508862
 106.7960154  51.9684562  44.6629878 105.9537243  53.1864196  44.9776114
 110.9123837  47.1713028  49.6793886 110.8282026  46.5638698  48.9444296
 110.0906543  47.6622047  49.6803382 117.9861121  60.6100192  48.8927054
 117.9131292  61.4155164  49.4046359 117.5438514  60.8092158  48.0675076
 117.6682519  47.7983975  44.7735766 117.2980307  47.2455015  45.4616671
 118.1641612  47.1942108  44.2210766 115.4971718  58.2581470  51.8690784
 116.1981177  58.8917953  52.0220178 115.0266833  58.5996201  51.1086423
 111.0939436  57.7917825  48.8021886 111.6792873  57.0461513  48.9349791
 110.8964274  58.1021782  49.6858550 113.9478091  60.8269072  43.8184329
 113.2788467  61.3115200  43.3348369 113.8090961  61.0738293  44.7327707
 105.6857091  50.3623425  47.5226329 105.7241190  49.8287016  48.3163448
 105.1797384  49.8358631  46.9037307 113.0647853  45.2087966  51.0188872
 113.1289180  46.0702797  50.6066269 113.0014973  44.5961967  50.2861230
 112.5400126  47.2811098  54.6661906 113.1672164  46.8988176  55.2799430
 111.6828044  47.0625300  55.0317599 109.3165668  49.0887527  40.5980261
 109.6119109  48.1798206  40.5447315 108.4153704  49.0675267  40.2761263
 112.8459915  47.1643524  46.5807809 112.1246501  47.7779492  46.4415283
 113.6353171  47.7001289  46.5024455 115.6486229  44.4997950  52.8548461
 116.1720631  44.7460247  53.6174771 115.4298562  45.3317985  52.4351599
 111.0453510  46.7701625  40.7219586 110.7166216  45.8899004  40.5394692
 111.3992881  46.7149294  41.6095975 114.1595333  47.0574595  41.0895064
 114.4991406  47.5860516  40.3673672 114.6067454  47.3955001  41.8653630
 116.8538774  45.4411645  50.5398132 116.5135594  44.6419459  50.9418812
 116.1477780  45.7413356  49.9674965 116.1463480  45.5549216  39.2888356
 116.8671843  45.9330469  38.7852073 115.5228784  46.2738093  39.3923334
 115.0293824  49.2180079  46.8017433 114.8838405  49.5320382  47.6941715
 114.5519028  49.8364979  46.2488332 116.8890207  46.2082627  46.8498323
 116.8751776  45.3123720  46.5130621 117.6062635  46.2153290  47.4836609
 109.5039487  51.7585423  49.7405095 108.9592955  52.5345231  49.8725369
 110.3818837  52.1056227  49.5824216 116.2927103  45.0897007  42.1185893
 116.4143015  44.1613653  42.3176781 116.0029146  45.1035693  41.2064208
 110.2905509  50.8855319  52.6335251 109.5487245  51.0337955  53.2199882
 109.9698253  51.1463585  51.7702001 110.7362122  58.7720748  44.6645646
 111.5620142  58.4724520  44.2844290 110.3856174  58.0028370  45.1135435
 115.7043655  58.1247216  46.7343320 115.0823665  57.4617921  46.4345548
 116.3748522  58.1508348  46.0516967 108.9370727  56.6907074  45.6234580
 108.1002636  56.2629249  45.4418581 108.9094373  56.8839518  46.5605371
 115.7768183  46.6029004  56.3275826 115.8256338  47.4791127  55.9453595
 116.3190697  46.0606397  55.7547469 115.2657162  56.6751140  40.2101780
 115.4145283  57.3586604  39.5568453 116.0723606  56.6556230  40.7251236
 118.0067471  47.3560377  53.0822184 117.1370781  47.6493943  52.8104773
 118.2426952  47.9400822  53.8029448 113.0209795  52.7016317  41.2162849
 112.7755837  51.7978647  41.4143059 113.1905710  52.7033468  40.2742327
 112.2905443  48.4344675  38.7149011 111.5974688  48.5089030  38.0589047
 112.0457195  47.6705018  39.2370527 117.3342283  48.4310059  34.9584465
 116.4273739  48.1343172  35.0347179 117.6118264  48.1339877  34.0918752
 108.2520224  49.7516423  45.4083512 107.9323008  48.8981731  45.1157886
 107.7053652  49.9665001  46.1641479 112.0300131  52.4678863  49.1253018
 112.2486141  53.3995971  49.1441052 112.4425905  52.1086838  49.9107822
 116.9027997  48.0412069  58.5155767 116.8024724  48.9906426  58.4467858
 116.6849539  47.7130308  57.6431837 116.1041068  45.2896994  35.0996445
 116.9660232  45.6151893  35.3592262 116.2891412  44.5028490  34.5869510
 108.1208484  53.3719334  47.3776633 107.4271955  52.9573287  46.8646588
 108.8681475  53.4139871  46.7810052 116.7659267  51.4709208  57.3320829
 116.2826348  52.2709568  57.5384718 116.8520206  51.4817153  56.3788273
 110.0345226  53.3037588  45.2542648 110.0115914  53.4025275  44.3024531
 110.3445863  54.1502739  45.5759814 112.6932604  55.3613743  49.3689263
 113.6475858  55.3297685  49.3019194 112.4945128  54.9004367  50.1839489
 113.2831986  53.9314859  51.9360060 114.1024875  54.4258938  51.9594898
 113.5568794  53.0146827  51.9077628 111.0482833  60.9033362  46.3859460
 110.9137301  60.1433763  45.8197459 110.6314895  61.6274262  45.9188249
 114.2051959  61.8002679  46.5977903 114.0884343  62.7448112  46.4956593
 113.3844405  61.4976241  46.9863702 108.5366901  48.2652993  52.6352257
 109.1825764  47.7551947  53.1239483 108.3284052  49.0021674  53.2095683
 117.0570511  42.5293037  38.3876154 117.0449181  43.4734877  38.5444424
 117.9493933  42.3463183  38.0935615 115.2306473  62.4530941  49.8133832
 116.1333720  62.4854551  50.1300327 115.0043843  61.5231392  49.8280167
 116.9860075  61.2061928  46.4743910 116.0355706  61.2063789  46.3608282
 117.2892561  60.4594662  45.9579945 112.8764392  45.4120610  56.7327272
 113.7395853  45.0557415  56.9430596 112.3029802  45.0734505  57.4202676
 116.9482869  67.6114749  45.2508862 117.6353909  67.2976479  44.6629878
 116.7930998  68.5156114  44.9776114 116.5250845  65.6915343  47.5226329
 116.5634945  65.1578934  48.3163448 116.0191138  65.1650548  46.9037307
  91.7945751  11.1499357  33.2130857  92.0342350  11.7817881  33.8909875
  90.9514948  10.7987397  33.4996216 103.7101783  15.1963658  30.1893395
 103.1466648  15.1053595  29.4209683 103.5954178  14.3763562  30.6695887
 101.2566215  16.6914849  33.0277615 102.0487507  16.3505674  32.6123915
 101.4962865  16.8009825  33.9479769 103.2156969  15.9523763  25.8994994
 103.9887845  15.4052750  25.7607870 103.5682368  16.8168012  26.1109456
 105.0542011  17.2800145  39.1061893 104.7631877  18.1845776  38.9908560
 105.6898996  17.3216673  39.8205963 105.9798218  14.6576994  35.6963253
 106.5761790  14.4333016  34.9820216 106.0373190  13.9161739  36.2988701
 110.0131896  16.9661561  36.1011687 109.7132619  17.8686599  35.9927494
 109.6682956  16.6993744  36.9532840 103.4644378  13.4175357  32.1348392
 102.5394874  13.2851571  32.3426083 103.7128791  14.1969577  32.6318334
 100.8253189  13.0608631  32.9692181 100.9545570  13.3143110  33.8831592
 100.1450640  13.6536339  32.6496836 104.9952676  23.7305881  29.0682655
 104.9176706  24.6813706  29.1471135 104.3914320  23.3851753  29.7257581
 105.7416278  13.7119200  41.2861989 106.4830963  14.2504244  41.0096812
 105.0353264  14.3385488  41.4433540 111.5400432  16.4149531  33.6386439
 110.9109295  16.5795245  32.9362507 111.1526095  16.8291140  34.4097403
 107.0928394  16.1523939  30.9036524 107.5566740  16.4311642  30.1141147
 106.8285192  15.2507383  30.7209615 103.9852475  15.6995420  33.8416287
 104.5553832  16.1282689  33.2033772 104.5760587  15.4178005  34.5400473
 113.7886424  17.8735883  35.7648504 114.6103868  17.4716070  35.4831185
 113.7848827  17.7704117  36.7164619 107.5543027  17.4219926  37.9209214
 107.6187460  17.8840334  38.7567386 106.8453951  16.7917291  38.0491524
 107.2691045  19.0888034  27.7888195 107.1336720  19.9339570  28.2173042
 107.8100858  19.2907311  27.0254128 100.7220442  16.6063472  28.3616120
 101.2344963  17.4006722  28.5121684 101.3743155  15.9089762  28.2949721
 102.5315327  19.7229228  30.4438873 102.7081955  20.6447193  30.2559857
 103.3272161  19.4087647  30.8733253 108.8959521  19.7111600  41.9188537
 108.4523376  18.9247979  41.6009441 109.5576735  19.8990751  41.2532427
 103.6546643  21.2407402  36.4449215 104.2054068  21.1124465  35.6726209
 102.8158118  21.5402291  36.0944108 110.9940759  19.9914400  39.9469938
 110.9759235  20.8123281  39.4550207 111.9160680  19.8668475  40.1720079
 107.4513814  17.5058530  40.7893446 107.9842150  16.7446818  40.5592754
 106.9227895  17.2132182  41.5317601  98.6869359  14.9352126  29.1375690
  99.5244581  15.3449135  28.9209398  98.8647627  13.9951568  29.1075884
 111.8159567  20.0020414  30.5312207 112.1082541  20.5625471  29.8124573
 112.3258187  20.2948975  31.2865366  98.7095530  12.2742841  29.8086424
  98.5119930  11.6812202  29.0837490  98.1542194  11.9695052  30.5262362
 106.7793192  20.7800765  31.6205660 106.7369371  21.0061611  30.6914192
 107.6955891  20.5464139  31.7691461 104.8958993  17.6563794  31.4167623
 105.6899591  17.1614114  31.2150198 104.1850685  17.1281657  31.0535329
 109.7153837  20.0381889  35.7679991 109.7690859  20.6072826  36.5357707
 108.8468618  20.2083774  35.4034028 111.9056600  16.6310238  42.3420656
 111.7542107  16.4020790  41.4250740 111.8961280  17.5880840  42.3552001
 107.4730269  18.2292816  35.0965460 107.3341354  17.8611600  35.9691398
 106.6844865  18.7440455  34.9249418 108.0678421  23.3301912  26.4390997
 108.2430176  22.8589955  27.2536619 107.3811209  23.9567678  26.6672257
 109.0235484  17.6074418  32.4854298 108.6885316  17.5675188  33.3811948
 108.5239429  16.9419134  32.0124708 113.6148807  19.6629361  40.4197138
 113.5561353  18.9788581  39.7527721 114.0168325  20.4048351  39.9677764
 102.6339506  26.4791275  33.2130857 102.8736104  27.1109799  33.8909875
 101.7908702  26.1279315  33.4996216 113.6166214  17.6268945  38.6511118
 112.7292993  17.2894867  38.7737516 114.1864765  16.8951976  38.8879883
  95.2695361  13.9593037  31.9754169  95.9566401  13.6454767  31.3875184
  95.1143490  14.8634401  31.7021420 107.1467368  22.2870397  35.6172361
 107.0737539  23.0925369  36.1291665 106.7044761  22.4862363  34.7920382
 106.9357147  21.5242167  29.1275182 106.1524669  22.0663848  29.2213407
 107.6349892  22.0416147  29.5269424 109.6066051  22.1857231  37.7730519
 110.3194023  22.8204696  37.7006421 109.1156080  22.2821097  36.9570521
 104.6577965  19.9351675  38.5936090 105.3587424  20.5688158  38.7465484
 104.1873080  20.2766406  37.8331730 109.4186425  22.5255975  30.5216811
 109.6008819  21.7077631  30.9844563 110.2419411  22.7423668  30.0841701
 109.7528590  21.4524161  27.7831859 110.2816357  20.9416615  27.1702022
 110.0156810  21.1366691  28.6477392 100.2545683  19.4688030  35.5267193
 100.8399120  18.7231718  35.6595097 100.0570521  19.7791987  36.4103857
 103.1084338  22.5039277  30.5429635 102.4394713  22.9885405  30.0593675
 102.9697208  22.7508498  31.4573014  94.8463338  12.0393630  34.2471636
  94.8847437  11.5057221  35.0408754  94.3403630  11.5128836  33.6282613
 107.2489607  24.5383021  37.1412294 107.8007915  24.7014642  37.9061379
 107.5895800  25.1287459  36.4692319 112.1000481  19.3644278  42.9960948
 112.6440385  19.9774237  42.5015903 111.5187326  19.9223857  43.5127961
 110.3857994  22.4864996  34.1275976 110.2609133  21.6854736  33.6186921
 111.0437085  22.9811190  33.6389946 112.4492902  20.2874016  35.7555526
 111.5023238  20.1679368  35.6833853 112.7975675  19.3996514  35.8381787
 109.4539336  20.0826733  31.9559878 109.3064298  19.1543440  32.1367448
 110.2792829  20.1046823  31.4716953 113.0573457  20.9055291  33.0424751
 113.9820005  20.6998153  32.9049202 112.8888761  20.6571692  33.9514092
  98.6645733  13.4355628  36.4650401  98.1199201  14.2115436  36.5970676
  99.5425083  13.7826432  36.3069523  99.4511755  12.5625524  39.3580558
  98.7093491  12.7108159  39.9445188  99.1304500  12.8233790  38.4947307
 107.3955418  22.1041502  39.1560948 107.7042544  21.8590649  40.0283648
 108.1930900  22.3088141  38.6679818 107.4176030  24.2579412  31.3866325
 106.9781020  23.7655791  32.0799181 108.1684147  23.7152380  31.1458400
  99.8968369  20.4490953  31.3890953 100.7226389  20.1494725  31.0089596
  99.5462421  19.6798575  31.8380741 104.8649902  19.8017421  33.4588626
 104.2429911  19.1388126  33.1590854 105.5354769  19.8278553  32.7762274
  98.0976974  18.3677279  32.3479886  97.2608882  17.9399454  32.1663888
  98.0700619  18.5609723  33.2850677 115.4229275  18.8240332  42.3322269
 114.6324819  18.8064471  41.7926769 115.1862630  19.3628626  43.0871306
 104.4263409  18.3521344  26.9347087 104.5751529  19.0356809  26.2813760
 105.2329852  18.3326434  27.4496543 117.0445347  18.0929740  39.8897019
 116.7530155  18.4559721  40.7260480 116.4317478  17.3796749  39.7110352
 102.1816042  14.3786522  27.9408156 101.9362084  13.4748852  28.1388366
 102.3511957  14.3803673  26.9987634 108.1944306  16.2348034  43.2075544
 109.1147315  16.4126633  43.4015590 108.1593889  15.2904079  43.0555243
  97.4126471  11.4286627  32.1328818  97.0929255  10.5751936  31.8403192
  96.8659899  11.6435206  32.8886786 101.1906378  14.1449068  35.8498325
 101.4092388  15.0766176  35.8686359 101.6032152  13.7857043  36.6353129
  97.2814731  15.0489539  34.1021940  96.5878202  14.6343492  33.5891894
  98.0287722  15.0910075  33.5055359  99.1951473  14.9807793  31.9787955
  99.1722161  15.0795480  31.0269838  99.5052110  15.8272943  32.3005121
 101.8538851  17.0383948  36.0934569 102.8082105  17.0067890  36.0264501
 101.6551375  16.5774571  36.9084795 102.4438233  15.6085064  38.6605367
 103.2631122  16.1029142  38.6840204 102.7175041  14.6917032  38.6322934
 100.2089080  22.5803567  33.1104767 100.0743548  21.8203968  32.5442765
  99.7921142  23.3044467  32.6433556 103.3658206  23.4772884  33.3223210
 103.2490590  24.4218317  33.2201900 102.5450652  23.1746446  33.7109009
 110.2226540  17.0104045  44.8589705 111.0917699  17.1844697  44.4976339
 109.7433291  17.8298462  44.7365434 104.3912720  24.1301146  36.5379138
 105.2939966  24.1624756  36.8545633 104.1650090  23.2001597  36.5525474
 106.1466322  22.8832133  33.1989217 105.1961953  22.8833994  33.0853589
 106.4498808  22.1364867  32.6825251 114.5495537  30.5255576  30.1893395
 113.9860402  30.4345513  29.4209683 114.4347932  29.7055480  30.6695887
 112.0959969  32.0206767  33.0277615 112.8881261  31.6797592  32.6123915
 112.3356619  32.1301742  33.9479769 114.0550723  31.2815680  25.8994994
 114.8281599  30.7344668  25.7607870 114.4076122  32.1459930  26.1109456
 115.8935766  32.6092063  39.1061893 115.6025632  33.5137694  38.9908560
 116.5292750  32.6508590  39.8205963 116.8191973  29.9868911  35.6963253
 117.4155545  29.7624934  34.9820216 116.8766944  29.2453657  36.2988701
 114.3038132  28.7467275  32.1348392 113.3788629  28.6143489  32.3426083
 114.5522545  29.5261494  32.6318334 111.6646943  28.3900549  32.9692181
 111.7939324  28.6435028  33.8831592 110.9844395  28.9828257  32.6496836
 115.8346431  39.0597799  29.0682655 115.7570460  40.0105624  29.1471135
 115.2308074  38.7143671  29.7257581 116.5810033  29.0411117  41.2861989
 117.3224717  29.5796161  41.0096812 115.8747018  29.6677406  41.4433540
 114.8246230  31.0287338  33.8416287 115.3947587  31.4574606  33.2033772
 115.4154342  30.7469923  34.5400473 115.3171396  26.1950766  42.0877299
 114.6870057  26.8767046  42.3212696 115.2107484  26.0833847  41.1430437
 110.6116369  25.8622562  33.0143223 109.8215423  26.1180090  32.5383333
 111.1027616  26.6770899  33.1195263 112.5631114  26.2267141  29.9726700
 111.7662278  26.3385835  30.4910195 112.3356706  26.5653793  29.1067590
 108.8954072  26.1153052  35.4458214 109.1462110  27.0000062  35.7115790
 109.4313620  25.9357654  34.6733305 114.5952139  20.4971531  44.4502550
 114.2019085  19.9437730  45.1250194 115.4118279  20.8082110  44.8409067
 111.5614197  31.9355390  28.3616120 112.0738717  32.7298640  28.5121684
 112.2136910  31.2381680  28.2949721 113.3709082  35.0521146  30.4438873
 113.5475710  35.9739111  30.2559857 114.1665915  34.7379565  30.8733253
 117.5120100  21.9129410  42.0422806 118.2529814  22.5136564  41.9627269
 117.7438023  21.1707048  41.4840849 112.6561438  27.0985778  40.3201036
 112.5414953  26.1971035  40.6208135 111.8005956  27.3449474  39.9685853
 114.4940397  36.5699320  36.4449215 115.0447822  36.4416383  35.6726209
 113.6551873  36.8694209  36.0944108 109.5263114  30.2644044  29.1375690
 110.3638336  30.6741052  28.9209398 109.7041381  29.3243486  29.1075884
 109.5489285  27.6034759  29.8086424 109.3513685  27.0104120  29.0837490
 108.9935949  27.2986969  30.5262362 117.5286008  27.4957866  31.9281017
 117.5834618  26.5431702  31.8523493 116.7177210  27.6517305  32.4122315
 115.4678368  26.1134925  29.6871396 114.6546234  26.4129096  30.0936588
 115.9637363  25.7190614  30.4045878 114.9592443  23.6853281  35.3032631
 115.5991822  23.5442040  34.6055594 114.1269974  23.3987794  34.9271233
 115.7352747  32.9855711  31.4167623 116.5293346  32.4906031  31.2150198
 115.0244439  32.4573574  31.0535329 112.0435511  27.1298793  27.4927376
 111.1133099  27.0683249  27.7097338 112.1392983  26.6074746  26.6964017
 111.9621060  23.6553606  30.0805617 112.2227877  24.5698939  29.9714778
 112.7838232  23.1878048  30.2302230 113.4345985  25.0691363  37.2504442
 114.1069038  24.8608725  36.6017091 112.6075771  24.8713449  36.8109674
 113.8373482  28.3433966  38.0106879 113.6993280  27.6114205  38.6118418
 114.7478406  28.2542866  37.7291067 116.4655783  28.0553925  37.4990559
 117.1755401  27.4147118  37.4577177 116.4225091  28.3066820  38.4216739
 115.1784717  25.0419143  39.3186198 114.6422074  24.5909882  39.9707795
 114.5901425  25.1765052  38.5756663 113.4733260  41.8083193  33.2130857
 113.7129859  42.4401717  33.8909875 112.6302457  41.4571233  33.4996216
 106.1089116  29.2884954  31.9754169 106.7960156  28.9746684  31.3875184
 105.9537245  30.1926319  31.7021420 110.9123838  24.1775151  36.4039193
 110.8282027  23.5700821  35.6689603 110.0906544  24.6684169  36.4048689
 117.9861122  37.6162315  35.6172361 117.9131294  38.4217286  36.1291665
 117.5438515  37.8154281  34.7920382 115.4971719  35.2643592  38.5936090
 116.1981179  35.8980075  38.7465484 115.0266834  35.6058324  37.8331730
 111.0939437  34.7979948  35.5267193 111.6792874  34.0523635  35.6595097
 110.8964276  35.1083904  36.4103857 113.9478093  37.8331195  30.5429635
 113.2788468  38.3177323  30.0593675 113.8090962  38.0800415  31.4573014
 105.6857092  27.3685548  34.2471636 105.7241192  26.8349138  35.0408754
 105.1797385  26.8420753  33.6282613 113.0647854  22.2150088  37.7434178
 113.1289181  23.0764919  37.3311576 113.0014975  21.6024090  37.0106537
 112.5400127  24.2873221  41.3907213 113.1672166  23.9050298  42.0044737
 111.6828046  24.0687423  41.7562905 109.3165670  26.0949650  27.3225567
 109.6119111  25.1860328  27.2692621 108.4153705  26.0737389  27.0006570
 112.8459917  24.1705646  33.3053116 112.1246502  24.7841614  33.1660589
 113.6353172  24.7063411  33.2269762 115.6486230  21.5060073  39.5793768
 116.1720632  21.7522370  40.3420077 115.4298563  22.3380108  39.1596905
 111.0453511  23.7763748  27.4464893 110.7166217  22.8961126  27.2639999
 111.3992882  23.7211416  28.3341282 116.8538775  22.4473768  37.2643438
 116.5135596  21.6481581  37.6664118 116.1477781  22.7475479  36.6920272
 115.0293826  26.2242201  33.5262740 114.8838406  26.5382504  34.4187022
 114.5519029  26.8427101  32.9733639 116.8890209  23.2144749  33.5743630
 116.8751777  22.3185842  33.2375928 117.6062637  23.2215413  34.2081916
 109.5039488  28.7647546  36.4650401 108.9592956  29.5407353  36.5970676
 110.3818838  29.1118350  36.3069523 110.2905510  27.8917442  39.3580558
 109.5487246  28.0400077  39.9445188 109.9698254  28.1525707  38.4947307
 110.7362123  35.7782871  31.3890953 111.5620143  35.4786642  31.0089596
 110.3856175  35.0090493  31.8380741 115.7043657  35.1309339  33.4588626
 115.0823666  34.4680044  33.1590854 116.3748524  35.1570471  32.7762274
 108.9370728  33.6969197  32.3479886 108.1002637  33.2691371  32.1663888
 108.9094374  33.8901640  33.2850677 115.7768184  23.6091127  43.0521132
 115.8256340  24.4853250  42.6698902 116.3190698  23.0668520  42.4792776
 115.2657164  33.6813262  26.9347087 115.4145284  34.3648726  26.2813760
 116.0723607  33.6618352  27.4496543 118.0067473  24.3622499  39.8067491
 117.1370782  24.6556065  39.5350079 118.2426953  24.9462944  40.5274755
 113.0209797  29.7078440  27.9408156 112.7755838  28.8040770  28.1388366
 113.1905711  29.7095590  26.9987634 108.2520225  26.7578545  32.1328818
 107.9323009  25.9043853  31.8403192 107.7053653  26.9727123  32.8886786
 112.0300133  29.4740986  35.8498325 112.2486142  30.4058094  35.8686359
 112.4425906  29.1148960  36.6353129 116.9027998  25.0474192  45.2401074
 116.8024725  25.9968549  45.1713165 116.6849540  24.7192431  44.3677144
 108.1208485  30.3781457  34.1021940 107.4271957  29.9635409  33.5891894
 108.8681476  30.4201993  33.5055359 116.7659268  28.4771331  44.0566135
 116.2826350  29.2771691  44.2630024 116.8520207  28.4879276  43.1033579
 110.0345228  30.3099710  31.9787955 110.0115916  30.4087398  31.0269838
 110.3445864  31.1564861  32.3005121 112.6932605  32.3675865  36.0934569
 113.6475859  32.3359808  36.0264501 112.4945129  31.9066489  36.9084795
 113.2831988  30.9376981  38.6605367 114.1024877  31.4321060  38.6840204
 113.5568795  30.0208950  38.6322934 111.0482834  37.9095485  33.1104767
 110.9137302  37.1495886  32.5442765 110.6314897  38.6336385  32.6433556
 114.2051960  38.8064802  33.3223210 114.0884344  39.7510234  33.2201900
 113.3844406  38.5038363  33.7109009 108.5366902  25.2715115  39.3597564
 109.1825765  24.7614069  39.8484789 108.3284053  26.0083797  39.9340989
 115.2306474  39.4593064  36.5379138 116.1333721  39.4916674  36.8545633
 115.0043844  38.5293515  36.5525474 116.9860076  38.2124050  33.1989217
 116.0355707  38.2125912  33.0853589 117.2892562  37.4656785  32.6825251
 112.8764393  22.4182732  43.4572578 113.7395854  22.0619537  43.6675903
 112.3029804  22.0796627  44.1447982 116.9482870  44.6176872  31.9754169
 117.6353910  44.3038602  31.3875184 116.7930999  45.5218237  31.7021420
 116.5250847  42.6977465  34.2471636 116.5634946  42.1641056  35.0408754
 116.0191139  42.1712671  33.6282613   1.4749653  53.8206080 103.8772075
   0.8011352  54.1237777 104.4857032   1.8615475  54.6235161 103.5277532
   5.3806539  51.1056336 102.1499521   5.3020170  50.7716200 103.0435279
   6.2016205  51.5978104 102.1490994   2.9510490  48.4224331 101.7709500
   3.6546340  48.6274334 102.3867155   2.2273139  48.9901093 102.0358583
   6.1557985  61.1839416 109.8421552   5.5922850  61.0929353 109.0737840
   6.0410380  60.3639321 110.3224044  11.7357544  64.8510384 105.1536017
  11.0845523  65.4364464 104.7670031  12.5301906  65.3816579 105.2131054
   5.6613171  61.9399521 105.5523151   6.4344047  61.3928508 105.4136027
   6.0138570  62.8043770 105.7637613   7.9979449  58.0992187 103.1841601
   8.2504969  57.5773709 102.4225064   7.0604008  57.9358333 103.2868285
  13.0422731  57.1027966 110.9916344  13.8285821  56.6847389 110.6406761
  13.3061436  58.0074058 111.1597993  13.2132809  62.5400816 105.6905001
  12.5778642  62.6135442 106.4025906  12.8830215  63.1294415 105.0124080
  18.4431158  57.0403199 111.8949323  19.1756330  56.4702416 112.1287152
  17.6870514  56.6524799 112.3355828   7.7175737  60.0020293 105.3865976
   7.6011995  59.3265197 106.0547060   7.8277997  59.5152667 104.5698129
  10.0607278  59.4630440 109.0912665   9.6965485  58.9361061 109.8025587
  10.9174394  59.0728909 108.9179151   9.7012765  54.4920340 104.0874014
   9.8687168  55.3600576 104.4544485   9.5109934  54.6547622 103.1635303
   9.6801986  56.9477997 105.0720681   9.5601611  57.3935048 105.9106161
   8.9854574  57.2963315 104.5134219  15.3787052  57.4199471 105.9001015
  16.2904908  57.6526857 105.7248712  14.8696699  58.0036515 105.3376093
  13.9856635  62.4025289 113.2914596  13.3565497  62.5671003 112.5890664
  13.5982297  62.8166899 114.0625560  17.8645866  63.3379727 110.6458960
  17.1796905  63.7178628 110.0955993  17.9489716  63.9475054 111.3790908
   9.5384596  62.1399697 110.5564681  10.0022942  62.4187400 109.7669304
   9.2741394  61.2383142 110.3737772   8.4753482  58.2622850 107.3654246
   9.1777526  58.7143893 107.8328173   8.1434111  57.6206668 107.9934140
  16.2342626  63.8611641 115.4176661  17.0560070  63.4591829 115.1359342
  16.2305029  63.7579876 116.3692777  24.3248619  60.2050390 111.7661632
  23.5712327  59.6357788 111.6105637  24.4596160  60.1713054 112.7132267
   9.7147247  65.0763792 107.4416352   9.5792922  65.9215328 107.8701199
  10.2557060  65.2783070 106.6782285  13.0289993  58.5902965 104.4787680
  12.5136617  59.3607570 104.7176068  12.7567302  57.9168101 105.1020742
  18.0024267  61.3435320 106.4140854  17.2253710  61.0046479 105.9696016
  18.6815748  61.3487943 105.7395819  12.8176297  56.4630057 106.3047461
  12.5126432  56.7776206 107.1557605  13.7706739  56.5411477 106.3474794
  11.2622728  62.6220281 107.9540415  10.7344090  61.8873040 107.6413653
  10.7610231  63.3994957 107.7080384  16.2415574  60.8169301 113.0707462
  15.5839249  61.5068562 113.1587590  17.0455974  61.2065733 113.4141448
  15.0521033  59.1713674 111.1211403  15.5652915  59.8043666 111.6233113
  15.7022257  58.5714869 110.7554763   6.3211043  55.3144408 104.3342912
   5.4848355  55.6519094 104.6552187   6.1815813  55.1793388 103.3970049
   9.4075329  60.4400491 100.9575388   8.5002390  60.2089744 101.1566537
   9.9046361  59.6438110 101.1449370  12.3143407  69.1497998 103.8772075
  11.6405106  69.4529695 104.4857032  12.7009229  69.9527078 103.5277532
  12.3136912  58.0454545 108.4972424  13.0608731  58.5575942 108.1879546
  12.5828501  57.7238598 109.3576818  10.5863562  60.5413086 105.4799378
   9.6774781  60.2572119 105.5771848  10.6158646  60.9612164 104.6202685
  15.8182829  64.1519675 109.2490546  15.3645157  63.3110585 109.3055737
  15.1876796  64.7881074 109.5865326  14.2615769  65.9896172 110.1840364
  14.5538743  66.5501229 109.4652730  14.7714389  66.2824733 110.9393523
  10.2839650  62.0821829 102.8187457   9.8459080  61.3657688 102.3593094
  11.0250091  62.3097944 102.2572548  18.4012765  60.3579026 108.8763776
  18.2630663  60.5480622 107.9484965  18.0448983  61.1198409 109.3331827
  18.4282144  62.4255553 113.8875047  18.8618651  62.3330843 114.7358101
  19.1413725  62.4013054 113.2495063   3.6497958  57.7882634 107.1455533
   2.7195546  57.7267089 107.3625495   3.7455430  57.2658587 106.3492174
  10.5134623  69.3177670 106.0919154  10.6886378  68.8465714 106.9064776
   9.8267411  69.9443437 106.3200414  11.4691686  63.5950177 112.1382455
  11.1341518  63.5550947 113.0340105  10.9695631  62.9294893 111.6652865
  14.4050877  60.9406211 102.4119515  13.7880048  60.2153039 102.3152567
  13.9367366  61.7015571 102.0686589   6.1949423  55.1591635 101.5340819
   5.3178890  55.0380436 101.1703066   6.6707176  54.3677714 101.2819708
   9.3813349  67.5117926 108.7803339   8.5980871  68.0539606 108.8741564
  10.0806095  68.0291905 109.1797581  20.5439757  59.0252921 113.0655836
  20.5329633  59.9077636 112.6949769  19.6757136  58.6724472 112.8710373
  13.7739780  62.0784242 108.9975968  12.8396059  62.1985705 108.8280673
  13.9516449  61.1756709 108.7335978  17.1612332  57.9201562 109.5326002
  17.6272784  58.7529553 109.4586305  17.6119832  57.4546543 110.2371261
  15.2288563  64.2645383 106.5312154  15.5048407  64.1501978 107.4406028
  14.3593061  63.8662868 106.4924327  11.8642627  68.5131734 110.1744968
  12.0465021  67.6953390 110.6372720  12.6875613  68.7299426 109.7369858
  12.1984792  67.4399919 107.4360016  12.7272559  66.9292374 106.8230179
  12.4613012  67.1242449 108.3005550  11.8995538  66.0702491 111.6088035
  11.7520500  65.1419198 111.7895605  12.7249031  66.0922582 111.1245111
  15.5029659  66.8931050 112.6952908  16.4276207  66.6873911 112.5577359
  15.3344963  66.6447451 113.6042250   7.7525929  53.2195180 105.6661820
   8.4734292  53.5976432 105.1625537   7.1291233  53.9384056 105.7696798
  11.8957052  53.9240329 106.6020153  12.1120666  54.8064966 106.3008981
  11.4151119  53.5326542 105.8725794  15.2924976  67.4116717 108.0514999
  15.4661853  66.8463140 107.2988852  15.7853867  68.2117612 107.8694489
  21.1464367  60.1753140 109.6705299  21.5895513  59.4260465 109.2724422
  20.2690877  60.1663276 109.2879031  16.2800148  66.7283482 105.1511898
  16.9751053  67.3490174 105.3699212  16.6223298  65.8778833 105.4264276
  18.1791571  64.1783187 106.6799229  18.7042895  64.5170460 105.9548549
  18.0913924  63.2430202 106.4962363   6.8719611  64.3397103 106.5875244
   7.0207731  65.0232567 105.9341917   7.6786055  64.3202193 107.1024700
  20.6897232  61.6458378 112.0627747  21.5244123  62.0848182 112.2265307
  20.8256360  61.1697032 111.2435993   4.6272244  60.3662280 107.5936313
   4.3818286  59.4624610 107.7916523   4.7968159  60.3679431 106.6515791
   3.8967892  56.0990638 105.0922474   3.2037137  56.1734993 104.4362510
   3.6519643  55.3350982 105.6143991  10.3715017  66.8345233 104.0586991
   9.7988984  67.4535420 103.6057463  10.9447810  67.3844595 104.5926913
  13.5912276  67.1182383 105.1895574  14.5242950  67.0527945 105.3928449
  13.5035489  67.9538650 104.7310106  16.2200293  66.4348254 102.1499521
  16.1413925  66.1008117 103.0435279  17.0409960  66.9270022 102.1490994
  10.7561815  58.1706046 101.4003044  11.7020920  58.0412254 101.4691462
  10.3776060  57.4320708 101.8772472  24.7355034  60.3626000 114.4981877
  25.4658423  60.1011288 115.0589580  24.1261980  59.6254722 114.5383945
  22.8170331  58.5033862 115.0956328  22.0903495  58.3689827 114.4872819
  22.4017618  58.8110691 115.9013046   8.9404732  56.0956022 101.3357929
   8.0336188  55.7989135 101.4120643   9.2180713  55.7985840 100.4692215
   7.7103517  52.9542958 101.4769908   8.5722681  53.2797856 101.7365726
   7.8953861  52.1674453 100.9642974  15.8636153  51.8271484 108.6205131
  15.2834822  52.4856288 108.2383184  15.5972086  51.0048829 108.2092549
  14.6461031  53.9871574 107.6761480  13.7586886  54.2721225 107.4581674
  15.0615020  53.8265338 106.8288756  13.7904245  63.7516249 101.7709500
  14.4940095  63.9566252 102.3867155  13.0666894  64.3193011 102.0358583
  14.6202055  59.5026110 107.8911770  14.5637257  59.9594662 107.0519402
  15.1730398  58.7416795 107.7134612  18.4306861  55.2915842 108.7161889
  18.1743795  54.8912478 109.5470097  17.8059729  56.0059636 108.5912028
  22.7419199  58.0311915 111.2233181  22.1818757  58.1005105 111.9964743
  22.1362702  57.8552900 110.5032677  15.6990942  64.1898778 103.8207960
  16.5336546  63.7579977 103.6385434  15.5375285  64.0180792 104.7484854
  15.3536834  60.6930892 105.1864299  15.2985638  60.5275163 104.2452743
  14.7282890  61.4006925 105.3426489   8.6632960  50.1939001 104.7649617
   8.6511630  51.1380841 104.9217888   9.5556382  50.0109146 104.4709078
  24.3275217  74.7068429 113.9163136  24.9653627  74.5875177 113.2126476
  24.2096060  75.6549273 113.9751088  21.1364924  74.6595858 113.8524661
  20.7983435  74.5436922 112.9645196  22.0054692  74.2587023 113.8325667
  16.9951739  76.5131334 109.8421552  16.4316604  76.4221271 109.0737840
  16.8804134  75.6931238 110.3224044  22.5751298  80.1802302 105.1536017
  21.9239278  80.7656382 104.7670031  23.3695661  80.7108497 105.2131054
  16.5006925  77.2691439 105.5523151  17.2737801  76.7220426 105.4136027
  16.8532324  78.1335688 105.7637613  18.8373203  73.4284105 103.1841601
  19.0898724  72.9065626 102.4225064  17.8997762  73.2650250 103.2868285
  23.8816486  72.4319883 110.9916344  24.6679575  72.0139306 110.6406761
  24.1455190  73.3365975 111.1597993  24.0526563  77.8692734 105.6905001
  23.4172396  77.9427360 106.4025906  23.7223970  78.4586332 105.0124080
  29.2824913  72.3695116 111.8949323  30.0150085  71.7994333 112.1287152
  28.5264269  71.9816717 112.3355828  18.5569492  75.3312211 105.3865976
  18.4405750  74.6557114 106.0547060  18.6671752  74.8444585 104.5698129
  20.9001033  74.7922358 109.0912665  20.5359240  74.2652979 109.8025587
  21.7568149  74.4020827 108.9179151  26.8050333  66.0816691 116.3543931
  26.4733658  66.9512102 116.1305146  26.2095947  65.7652975 117.0337962
  20.5406520  69.8212258 104.0874014  20.7080922  70.6892494 104.4544485
  20.3503689  69.9839539 103.1635303  26.6978997  70.8011777 113.4337282
  25.7895874  70.7327185 113.1396042  26.6466592  71.2783722 114.2619107
  20.5195741  72.2769915 105.0720681  20.3995366  72.7226966 105.9106161
  19.8248329  72.6255233 104.5134219  28.5640643  69.0028215 115.2115155
  27.9215023  69.2960748 114.5654950  28.0595572  68.8881135 116.0168352
  26.2180807  72.7491388 105.9001015  27.1298663  72.9818775 105.7248712
  25.7090454  73.3328433 105.3376093  24.8250389  77.7317207 113.2914596
  24.1959251  77.8962921 112.5890664  24.4376051  78.1458816 114.0625560
  28.7039621  78.6671645 110.6458960  28.0190659  79.0470546 110.0955993
  28.7883470  79.2766971 111.3790908  24.0052090  69.7692991 118.5677038
  23.7613022  70.5235052 118.0311314  24.2812020  70.1478339 119.4024285
  25.9590553  76.3131604 117.2454303  26.1707448  76.9563364 116.5688685
  25.9120301  75.4793920 116.7776234  23.5616781  68.9249424 114.1490876
  22.7001260  69.2230678 114.4407613  23.5879216  69.1419823 113.2171908
  20.3778351  77.4691615 110.5564681  20.8416696  77.7479318 109.7669304
  20.1135149  76.5675059 110.3737772  19.3147237  73.5914767 107.3654246
  20.0171280  74.0435811 107.8328173  18.9827865  72.9498586 107.9934140
  27.0736380  79.1903559 115.4176661  27.8953824  78.7883746 115.1359342
  27.0698783  79.0871793 116.3692777  15.0087316  72.2142899 109.6254857
  14.2118480  72.3261593 110.1438352  14.7812908  72.5529551 108.7595747
  35.1642374  75.5342308 111.7661632  34.4106082  74.9649706 111.6105637
  35.2989915  75.5004972 112.7132267  20.5541002  80.4055710 107.4416352
  20.4186676  81.2507246 107.8701199  21.0950814  80.6074988 106.6782285
  23.9033465  63.9286272 115.9715245  23.5597735  64.8187913 115.8954356
  24.2712428  63.7387929 115.1084830  23.8683748  73.9194883 104.4787680
  23.3530371  74.6899487 104.7176068  23.5961056  73.2460019 105.1020742
  21.4530859  68.7644584 109.5372919  20.5972455  68.3751434 109.3578557
  21.8657811  68.8436544 108.6772704  22.9830006  66.2990927 113.9364478
  22.4794801  66.2621062 113.1232284  23.2760612  67.2083670 113.9961135
  19.2272891  66.3829657 112.9430660  20.0925888  66.1872465 112.5836550
  19.2950400  66.1540008 113.8700017  28.8418022  76.6727238 106.4140854
  28.0647465  76.3338397 105.9696016  29.5209503  76.6779861 105.7395819
  23.6570051  71.7921975 106.3047461  23.3520187  72.1068124 107.1557605
  24.6100493  71.8703395 106.3474794  22.1016483  77.9512198 107.9540415
  21.5737844  77.2164958 107.6413653  21.6003986  78.7286875 107.7080384
  27.0809329  76.1461219 113.0707462  26.4233003  76.8360480 113.1587590
  27.8849728  76.5357651 113.4141448  16.8335210  68.6131865 110.3147027
  17.4078962  68.3907046 109.5820220  17.4206193  68.6820559 111.0675628
  25.8914788  74.5005591 111.1211403  26.4046669  75.1335583 111.6233113
  26.5416012  73.9006787 110.7554763  17.1604798  70.6436326 104.3342912
  16.3242110  70.9811012 104.6552187  17.0209567  70.5085305 103.3970049
  19.1357878  65.4873113 109.0422096  18.4822291  65.1722131 108.4178711
  19.0938352  64.8648854 109.7681919  20.2469083  75.7692409 100.9575388
  19.3396145  75.5381662 101.1566537  20.7440115  74.9730028 101.1449370
  23.1537162  84.4789916 103.8772075  22.4798861  84.7821612 104.4857032
  23.5402984  85.2818996 103.5277532  22.3695619  71.9755047 113.3669744
  21.4518180  72.1969994 113.2091432  22.7855762  72.0501357 112.5081451
  23.1530666  73.3746463 108.4972424  23.9002485  73.8867860 108.1879546
  23.4222256  73.0530515 109.3576818  21.4257316  75.8705003 105.4799378
  20.5168536  75.5864036 105.5771848  21.4552400  76.2904082 104.6202685
  26.6576584  79.4811593 109.2490546  26.2038911  78.6402503 109.3055737
  26.0270551  80.1172991 109.5865326  25.6009503  70.4103579 110.4791213
  24.8632260  69.8980965 110.8101456  25.8536277  69.9703961 109.6674490
  25.1009523  81.3188090 110.1840364  25.3932498  81.8793147 109.4652730
  25.6108144  81.6116651 110.9393523  25.7021131  63.1879831 111.0732983
  26.0080008  62.3277194 110.7858898  26.4273736  63.7797451 110.8731977
  19.9742211  73.4833624 111.5809174  20.0290820  72.5307460 111.5051650
  19.1633413  73.6393063 112.0650472  21.1233404  77.4113747 102.8187457
  20.6852834  76.6949606 102.3593094  21.8643845  77.6389862 102.2572548
  17.9134570  72.1010684 109.3399553  17.1002436  72.4004854 109.7464745
  18.4093565  71.7066373 110.0574035  23.5108782  72.5652508 118.1714447
  23.8658170  72.7923981 119.0308912  24.1580913  72.8970885 117.5491702
  29.2406519  75.6870944 108.8763776  29.1024418  75.8772540 107.9484965
  28.8842738  76.4490327 109.3331827  17.4048645  69.6729039 114.9560788
  18.0448025  69.5317798 114.2583751  16.5726176  69.3863553 114.5799390
  29.2675899  77.7547471 113.8875047  29.7012405  77.6622760 114.7358101
  29.9807479  77.7304972 113.2495063  14.4891713  73.1174551 107.1455533
  13.5589301  73.0559007 107.3625495  14.5849185  72.5950504 106.3492174
  14.4077262  69.6429364 109.7333774  14.6684079  70.5574698 109.6242935
  15.2294434  69.1753807 109.8830387  30.1291448  77.7971172 116.4207933
  30.3227338  78.7016982 116.6667207  30.0292066  77.3378591 117.2546518
  21.7827759  67.6829062 118.9198260  21.1355674  68.3819012 118.8262736
  22.5528774  68.1165206 119.2874508  21.3528377  84.6469588 106.0919154
  21.5280133  84.1757631 106.9064776  20.6661165  85.2735354 106.3200414
  22.3085440  78.9242094 112.1382455  21.9735273  78.8842864 113.0340105
  21.8089386  78.2586810 111.6652865  25.2444632  76.2698129 102.4119515
  24.6273803  75.5444957 102.3152567  24.7761120  77.0307489 102.0686589
  17.0343178  70.4883553 101.5340819  16.1572644  70.3672354 101.1703066
  17.5100931  69.6969631 101.2819708  20.2207104  82.8409843 108.7803339
  19.4374626  83.3831524 108.8741564  20.9199849  83.3583823 109.1797581
  23.5303754  68.6504473 111.4237545  24.0272453  67.8974435 111.1038615
  22.7590735  68.6868790 110.8580754  31.3833511  74.3544838 113.0655836
  31.3723388  75.2369554 112.6949769  30.5150891  74.0016389 112.8710373
  24.6133535  77.4076160 108.9975968  23.6789813  77.5277623 108.8280673
  24.7910203  76.5048627 108.7335978  20.1138723  70.7921856 111.1509229
  19.7436510  70.2392896 111.8390135  20.6097815  70.1879989 110.5984229
  28.0006086  73.2493479 109.5326002  28.4666538  74.0821471 109.4586305
  28.4513586  72.7838461 110.2371261  26.0682317  79.5937301 106.5312154
  26.3442161  79.4793895 107.4406028  25.1986816  79.1954785 106.4924327
  25.9722749  65.6174066 113.5716904  25.0585829  65.8478293 113.7399111
  26.4015850  65.7012510 114.4230936  25.7429207  73.8063958 116.0716798
  25.0900657  74.0539866 115.4169250  26.1209587  72.9928096 115.7379275
  22.7036381  83.8423651 110.1744968  22.8858776  83.0245307 110.6372720
  23.5269367  84.0591344 109.7369858  23.0378547  82.7691837 107.4360016
  23.5666313  82.2584291 106.8230179  23.3006766  82.4534367 108.3005550
  11.7621872  72.0825408 106.9753725  12.0575313  71.1736087 106.9220778
  10.8609907  72.0613148 106.6534727  13.4909713  69.7639506 107.0993050
  13.1622419  68.8836885 106.9168156  13.8449084  69.7087175 107.9869439
  22.7389292  81.3994409 111.6088035  22.5914255  80.4711116 111.7895605
  23.5642786  81.4214499 111.1245111  16.6051536  70.0512476 107.4668527
  16.9447609  70.5798397 106.7447136  17.0523657  70.3892882 108.2427094
  26.3423414  82.2222967 112.6952908  27.2669961  82.0165829 112.5577359
  26.1738717  81.9739369 113.6042250  19.2994977  68.4349526 116.9171595
  18.9591798  67.6357340 117.3192275  18.5933983  68.7351237 116.3448429
  19.9511449  65.5198839 115.3698918  20.7737518  65.0459317 115.2477809
  20.1949513  66.2989323 115.8697605  18.5919684  68.5487097 105.6661820
  19.3128046  68.9268350 105.1625537  17.9684988  69.2675974 105.7696798
  22.7350806  69.2532246 106.6020153  22.9514421  70.1356884 106.3008981
  22.2544874  68.8618460 105.8725794  19.3346411  69.2020507 113.2271787
  19.3207979  68.3061601 112.8904085  20.0518839  69.2091171 113.8610073
  21.1872541  69.6357848 115.2724914  20.9290319  70.5574918 115.2709245
  20.6557582  69.2388282 115.9625378  26.1318730  82.7408635 108.0514999
  26.3055608  82.1755057 107.2988852  26.6247621  83.5409530 107.8694489
  18.7383307  68.0834888 108.4959357  18.8599218  67.1551534 108.6950244
  18.4485349  68.0973574 107.5837672  21.6074497  65.7689798 111.6326077
  21.6296194  65.8329131 110.6778056  22.0242556  64.9294307 111.8266583
  31.9858121  75.5045058 109.6705299  32.4289267  74.7552383 109.2724422
  31.1084632  75.4955194 109.2879031  27.1193903  82.0575399 105.1511898
  27.8144807  82.6782092 105.3699212  27.4617053  81.2070750 105.4264276
  29.0185326  79.5075105 106.6799229  29.5436650  79.8462378 105.9548549
  28.9307678  78.5722120 106.4962363  28.8277107  76.9900475 119.2983155
  28.8775112  76.8250482 120.2398678  28.7191030  76.1227734 118.9081036
  17.7113366  79.6689020 106.5875244  17.8601486  80.3524485 105.9341917
  18.5179809  79.6494111 107.1024700  31.5290986  76.9750296 112.0627747
  32.3637877  77.4140100 112.2265307  31.6650115  76.4988949 111.2435993
  28.5782492  74.5330031 118.0105235  29.0536614  74.7257677 117.2024086
  27.6548057  74.5889217 117.7648618  15.4665999  75.6954198 107.5936313
  15.2212040  74.7916528 107.7916523  15.6361913  75.6971349 106.6515791
  23.1562708  66.5677874 116.9761068  23.6744652  67.3038901 116.6507557
  22.8017841  66.8741868 117.8107828  14.7361646  71.4282556 105.0922474
  14.0430891  71.5026911 104.4362510  14.4913398  70.6642899 105.6143991
  23.4075303  62.9878157 112.4961965  23.6877056  62.3201346 113.1222392
  24.1925910  63.1807253 111.9836629  21.2108771  82.1637151 104.0586991
  20.6382738  82.7827338 103.6057463  21.7841565  82.7136513 104.5926913
  27.2784161  71.4095791 116.2433540  28.2301584  71.5093889 116.2645764
  27.1087611  70.6174060 116.7531625  25.2998540  68.4951374 116.4292941
  24.7048473  68.7756387 115.7339430  25.0148237  68.9845275 117.2009682
  24.4306031  82.4474301 105.1895574  25.3636704  82.3819863 105.3928449
  24.3429244  83.2830568 104.7310106  27.0594048  81.7640171 102.1499521
  26.9807679  81.4300035 103.0435279  27.8803714  82.2561939 102.1490994
  29.7572239  74.6301911 115.3575840  29.7248559  73.6917911 115.5435524
  30.3672862  74.7085947 114.6241665  21.5955570  73.4997964 101.4003044
  22.5414674  73.3704172 101.4691462  21.2169815  72.7612626 101.8772472
  29.9066727  71.4212954 115.4034123  29.3905776  70.6371411 115.2164052
  30.7906676  71.0931671 115.5680642  27.5677454  65.1653970 111.3629936
  27.3702275  64.8569058 112.2473268  28.1777160  65.8915609 111.4927866
  35.5748789  75.6917918 114.4981877  36.3052177  75.4303206 115.0589580
  34.9655734  74.9546639 114.5383945  33.6564086  73.8325780 115.0956328
  32.9297249  73.6981745 114.4872819  33.2411373  74.1402609 115.9013046
  19.7798487  71.4247940 101.3357929  18.8729942  71.1281053 101.4120643
  20.0574468  71.1277758 100.4692215  21.3960552  65.9684830 107.4902170
  20.5861281  65.6231915 107.8657416  22.0844969  65.6592373 108.0789782
  23.3251101  65.0462877 109.1126467  23.8782139  65.4658330 109.7716490
  23.5621187  64.1198625 109.1549423  18.5497271  68.2834875 101.4769908
  19.4116435  68.6089774 101.7365726  18.7347616  67.4966371 100.9642974
  26.7029908  67.1563402 108.6205131  26.1228577  67.8148206 108.2383184
  26.4365841  66.3340746 108.2092549  25.1533474  66.5568459 110.8226452
  25.6533253  66.6684994 110.0140770  25.7969082  66.2529512 111.4627260
  25.4854786  69.3163492 107.6761480  24.5980641  69.6013143 107.4581674
  25.9008775  69.1557255 106.8288756  28.8369322  69.3410013 111.3915819
  29.6129712  69.8306466 111.6640436  28.1117456  69.7668067 111.8487688
  31.2741881  70.0537632 112.4489759  31.8686371  69.8133368 111.7383068
  31.3468464  69.3344763 113.0763296  24.6297999  79.0808167 101.7709500
  25.3333849  79.2858169 102.3867155  23.9060648  79.6484929 102.0358583
  25.4595810  74.8318028 107.8911770  25.4031011  75.2886579 107.0519402
  26.0124152  74.0708713 107.7134612  29.2700616  70.6207760 108.7161889
  29.0137550  70.2204396 109.5470097  28.6453484  71.3351554 108.5912028
  33.5812953  73.3603833 111.2233181  33.0212511  73.4297022 111.9964743
  32.9756457  73.1844818 110.5032677  26.5384697  79.5190696 103.8207960
  27.3730301  79.0871894 103.6385434  26.3769040  79.3472710 104.7484854
  26.1930589  76.0222809 105.1864299  26.1379393  75.8567081 104.2452743
  25.5676644  76.7298842 105.3426489  19.5026714  65.5230918 104.7649617
  19.4905384  66.4672758 104.9217888  20.3950136  65.3401064 104.4709078
  23.3178834  62.1173695 109.0195554  22.5511230  61.5632182 109.1652236
  23.7289539  62.1895564 109.8809706  35.1668972  90.0360347 113.9163136
  35.8047382  89.9167094 113.2126476  35.0489815  90.9841191 113.9751088
  31.9758678  89.9887775 113.8524661  31.6377190  89.8728840 112.9645196
  32.8448446  89.5878940 113.8325667  27.8345494  91.8423252 109.8421552
  27.2710359  91.7513189 109.0737840  27.7197889  91.0223156 110.3224044
  33.4145053  95.5094219 105.1536017  32.7633032  96.0948300 104.7670031
  34.2089415  96.0400414 105.2131054  27.3400680  92.5983356 105.5523151
  28.1131556  92.0512344 105.4136027  27.6926079  93.4627606 105.7637613
  29.6766958  88.7576023 103.1841601  29.9292478  88.2357544 102.4225064
  28.7391517  88.5942168 103.2868285  34.7210240  87.7611801 110.9916344
  35.5073330  87.3431224 110.6406761  34.9848945  88.6657893 111.1597993
  34.8920318  93.1984651 105.6905001  34.2566151  93.2719278 106.4025906
  34.5617724  93.7878250 105.0124080  40.1218667  87.6987034 111.8949323
  40.8543839  87.1286251 112.1287152  39.3658023  87.3108635 112.3355828
  29.3963246  90.6604129 105.3865976  29.2799504  89.9849032 106.0547060
  29.5065506  90.1736502 104.5698129  31.7394787  90.1214276 109.0912665
  31.3752994  89.5944897 109.8025587  32.5961903  89.7312745 108.9179151
  37.6444088  81.4108608 116.3543931  37.3127413  82.2804019 116.1305146
  37.0489701  81.0944892 117.0337962  31.3800274  85.1504175 104.0874014
  31.5474676  86.0184412 104.4544485  31.1897443  85.3131457 103.1635303
  37.5372751  86.1303694 113.4337282  36.6289628  86.0619103 113.1396042
  37.4860347  86.6075639 114.2619107  31.3589495  87.6061833 105.0720681
  31.2389120  88.0518884 105.9106161  30.6642083  87.9547151 104.5134219
  39.4034398  84.3320133 115.2115155  38.7608778  84.6252666 114.5654950
  38.8989326  84.2173053 116.0168352  37.0574561  88.0783306 105.9001015
  37.9692417  88.3110693 105.7248712  36.5484208  88.6620350 105.3376093
  35.6644143  93.0609124 113.2914596  35.0353006  93.2254839 112.5890664
  35.2769806  93.4750734 114.0625560  39.5433375  93.9963562 110.6458960
  38.8584414  94.3762464 110.0955993  39.6277225  94.6058889 111.3790908
  34.8445844  85.0984909 118.5677038  34.6006776  85.8526970 118.0311314
  35.1205775  85.4770257 119.4024285  36.7984307  91.6423521 117.2454303
  37.0101202  92.2855281 116.5688685  36.7514055  90.8085838 116.7776234
  34.4010536  84.2541342 114.1490876  33.5395015  84.5522596 114.4407613
  34.4272971  84.4711741 113.2171908  31.2172105  92.7983533 110.5564681
  31.6810451  93.0771236 109.7669304  30.9528903  91.8966977 110.3737772
  30.1540991  88.9206685 107.3654246  30.8565035  89.3727729 107.8328173
  29.8221620  88.2790504 107.9934140  37.9130135  94.5195477 115.4176661
  38.7347579  94.1175664 115.1359342  37.9092538  94.4163711 116.3692777
  25.8481071  87.5434817 109.6254857  25.0512234  87.6553511 110.1438352
  25.6206663  87.8821469 108.7595747  46.0036128  90.8634225 111.7661632
  45.2499836  90.2941623 111.6105637  46.1383669  90.8296890 112.7132267
  31.3934756  95.7347628 107.4416352  31.2580431  96.5799163 107.8701199
  31.9344569  95.9366905 106.6782285  34.7427220  79.2578189 115.9715245
  34.3991489  80.1479831 115.8954356  35.1106182  79.0679847 115.1084830
  34.7077502  89.2486801 104.4787680  34.1924126  90.0191405 104.7176068
  34.4354811  88.5751937 105.1020742  32.2924613  84.0936501 109.5372919
  31.4366210  83.7043352 109.3578557  32.7051565  84.1728462 108.6772704
  33.8223760  81.6282845 113.9364478  33.3188556  81.5912980 113.1232284
  34.1154367  82.5375587 113.9961135  30.0666646  81.7121574 112.9430660
  30.9319643  81.5164383 112.5836550  30.1344155  81.4831926 113.8700017
  39.6811776  92.0019155 106.4140854  38.9041219  91.6630315 105.9696016
  40.3603257  92.0071778 105.7395819  34.4963805  87.1213893 106.3047461
  34.1913941  87.4360042 107.1557605  35.4494248  87.1995313 106.3474794
  32.9410237  93.2804116 107.9540415  32.4131599  92.5456876 107.6413653
  32.4397740  94.0578792 107.7080384  37.9203083  91.4753136 113.0707462
  37.2626758  92.1652398 113.1587590  38.7243483  91.8649568 113.4141448
  27.6728965  83.9423782 110.3147027  28.2472717  83.7198964 109.5820220
  28.2599947  84.0112477 111.0675628  36.7308542  89.8297509 111.1211403
  37.2440424  90.4627501 111.6233113  37.3809766  89.2298705 110.7554763
  27.9998552  85.9728243 104.3342912  27.1635864  86.3102930 104.6552187
  27.8603322  85.8377223 103.3970049  29.9751633  80.8165031 109.0422096
  29.3216045  80.5014048 108.4178711  29.9332107  80.1940772 109.7681919
  31.0862838  91.0984326 100.9575388  30.1789899  90.8673580 101.1566537
  31.5833870  90.3021945 101.1449370  33.9930916  99.8081833 103.8772075
  33.3192615 100.1113530 104.4857032  34.3796738 100.6110914 103.5277532
  33.2089373  87.3046965 113.3669744  32.2911934  87.5261912 113.2091432
  33.6249517  87.3793275 112.5081451  33.9924421  88.7038380 108.4972424
  34.7396240  89.2159778 108.1879546  34.2616010  88.3822433 109.3576818
  32.2651071  91.1996921 105.4799378  31.3562290  90.9155954 105.5771848
  32.2946155  91.6196000 104.6202685  37.4970338  94.8103511 109.2490546
  37.0432665  93.9694420 109.3055737  36.8664305  95.4464909 109.5865326
  36.4403258  85.7395497 110.4791213  35.7026015  85.2272883 110.8101456
  36.6930031  85.2995878 109.6674490  35.9403278  96.6480007 110.1840364
  36.2326252  97.2085064 109.4652730  36.4501898  96.9408568 110.9393523
  36.5414885  78.5171749 111.0732983  36.8473762  77.6569112 110.7858898
  37.2667490  79.1089369 110.8731977  30.8135965  88.8125542 111.5809174
  30.8684575  87.8599378 111.5051650  30.0027167  88.9684981 112.0650472
  31.9627159  92.7405665 102.8187457  31.5246589  92.0241524 102.3593094
  32.7037600  92.9681780 102.2572548  28.7528325  87.4302601 109.3399553
  27.9396190  87.7296772 109.7464745  29.2487319  87.0358290 110.0574035
  34.3502537  87.8944426 118.1714447  34.7051924  88.1215899 119.0308912
  34.9974668  88.2262803 117.5491702  40.0800274  91.0162862 108.8763776
  39.9418172  91.2064458 107.9484965  39.7236492  91.7782245 109.3331827
  28.2442400  85.0020957 114.9560788  28.8841779  84.8609716 114.2583751
  27.4119930  84.7155470 114.5799390  40.1069653  93.0839389 113.8875047
  40.5406160  92.9914678 114.7358101  40.8201234  93.0596889 113.2495063
  25.3285467  88.4466469 107.1455533  24.3983055  88.3850925 107.3625495
  25.4242939  87.9242422 106.3492174  25.2471016  84.9721282 109.7333774
  25.5077833  85.8866615 109.6242935  26.0688188  84.5045725 109.8830387
  40.9685203  93.1263089 116.4207933  41.1621093  94.0308900 116.6667207
  40.8685821  92.6670509 117.2546518  32.6221513  83.0120980 118.9198260
  31.9749428  83.7110930 118.8262736  33.3922529  83.4457124 119.2874508
  32.1922132  99.9761506 106.0919154  32.3673887  99.5049549 106.9064776
  31.5054920 100.6027272 106.3200414  33.1479195  94.2534012 112.1382455
  32.8129027  94.2134782 113.0340105  32.6483140  93.5878728 111.6652865
  36.0838386  91.5990046 102.4119515  35.4667557  90.8736875 102.3152567
  35.6154875  92.3599407 102.0686589  27.8736932  85.8175471 101.5340819
  26.9966399  85.6964271 101.1703066  28.3494685  85.0261549 101.2819708
  31.0600858  98.1701761 108.7803339  30.2768380  98.7123441 108.8741564
  31.7593604  98.6875741 109.1797581  34.3697508  83.9796391 111.4237545
  34.8666208  83.2266353 111.1038615  33.5984490  84.0160707 110.8580754
  42.2227266  89.6836756 113.0655836  42.2117142  90.5661471 112.6949769
  41.3544645  89.3308307 112.8710373  35.4527289  92.7368078 108.9975968
  34.5183568  92.8569540 108.8280673  35.6303958  91.8340545 108.7335978
  30.9532477  86.1213774 111.1509229  30.5830265  85.5684814 111.8390135
  31.4491570  85.5171907 110.5984229  38.8399840  88.5785397 109.5326002
  39.3060293  89.4113389 109.4586305  39.2907341  88.1130379 110.2371261
  36.9076072  94.9229218 106.5312154  37.1835915  94.8085813 107.4406028
  36.0380570  94.5246703 106.4924327  36.8116503  80.9465984 113.5716904
  35.8979583  81.1770211 113.7399111  37.2409605  81.0304428 114.4230936
  36.5822962  89.1355876 116.0716798  35.9294412  89.3831783 115.4169250
  36.9603342  88.3220014 115.7379275  33.5430136  99.1715569 110.1744968
  33.7252530  98.3537225 110.6372720  34.3663122  99.3883261 109.7369858
  33.8772301  98.0983754 107.4360016  34.4060068  97.5876209 106.8230179
  34.1400521  97.7826284 108.3005550  22.6015626  87.4117326 106.9753725
  22.8969067  86.5028004 106.9220778  21.7003662  87.3905065 106.6534727
  24.3303468  85.0931424 107.0993050  24.0016174  84.2128803 106.9168156
  24.6842838  85.0379092 107.9869439  33.5783047  96.7286326 111.6088035
  33.4308009  95.8003034 111.7895605  34.4036540  96.7506417 111.1245111
  27.4445291  85.3804393 107.4668527  27.7841363  85.9090315 106.7447136
  27.8917411  85.7184800 108.2427094  37.1817168  97.5514885 112.6952908
  38.1063716  97.3457746 112.5577359  37.0132472  97.3031286 113.6042250
  30.1388732  83.7641444 116.9171595  29.7985552  82.9649257 117.3192275
  29.4327738  84.0643155 116.3448429  30.7905204  80.8490757 115.3698918
  31.6131273  80.3751235 115.2477809  31.0343267  81.6281240 115.8697605
  29.4313438  83.8779015 105.6661820  30.1521801  84.2560268 105.1625537
  28.8078742  84.5967892 105.7696798  33.5744561  84.5824164 106.6020153
  33.7908175  85.4648802 106.3008981  33.0938628  84.1910377 105.8725794
  30.1740165  84.5312425 113.2271787  30.1601734  83.6353518 112.8904085
  30.8912593  84.5383089 113.8610073  32.0266296  84.9649765 115.2724914
  31.7684074  85.8866836 115.2709245  31.4951336  84.5680200 115.9625378
  36.9712485  98.0700552 108.0514999  37.1449362  97.5046975 107.2988852
  37.4641376  98.8701447 107.8694489  29.5777061  83.4126805 108.4959357
  29.6992972  82.4843452 108.6950244  29.2879103  83.4265491 107.5837672
  32.4468251  81.0981716 111.6326077  32.4689948  81.1621049 110.6778056
  32.8636310  80.2586225 111.8266583  42.8251876  90.8336975 109.6705299
  43.2683022  90.0844301 109.2724422  41.9478386  90.8247112 109.2879031
  37.9587657  97.3867317 105.1511898  38.6538562  98.0074010 105.3699212
  38.3010807  96.5362668 105.4264276  39.8579080  94.8367022 106.6799229
  40.3830404  95.1754295 105.9548549  39.7701433  93.9014038 106.4962363
  39.6670861  92.3192392 119.2983155  39.7168866  92.1542400 120.2398678
  39.5584785  91.4519651 118.9081036  28.5507120  94.9980938 106.5875244
  28.6995240  95.6816403 105.9341917  29.3573564  94.9786028 107.1024700
  42.3684741  92.3042214 112.0627747  43.2031632  92.7432018 112.2265307
  42.5043869  91.8280867 111.2435993  39.4176246  89.8621949 118.0105235
  39.8930368  90.0549595 117.2024086  38.4941812  89.9181134 117.7648618
  26.3059753  91.0246116 107.5936313  26.0605795  90.1208446 107.7916523
  26.4755668  91.0263266 106.6515791  33.9956463  81.8969792 116.9761068
  34.5138407  82.6330819 116.6507557  33.6411596  82.2033785 117.8107828
  25.5755401  86.7574473 105.0922474  24.8824646  86.8318828 104.4362510
  25.3307152  85.9934817 105.6143991  34.2469057  78.3170075 112.4961965
  34.5270811  77.6493264 113.1222392  35.0319664  78.5099170 111.9836629
  32.0502526  97.4929069 104.0586991  31.4776493  98.1119256 103.6057463
  32.6235319  98.0428430 104.5926913  38.1177915  86.7387709 116.2433540
  39.0695338  86.8385806 116.2645764  37.9481366  85.9465977 116.7531625
  36.1392295  83.8243292 116.4292941  35.5442227  84.1048305 115.7339430
  35.8541992  84.3137193 117.2009682  35.2699785  97.7766219 105.1895574
  36.2030459  97.7111780 105.3928449  35.1822998  98.6122486 104.7310106
  37.8987802  97.0932089 102.1499521  37.8201434  96.7591953 103.0435279
  38.7197469  97.5853857 102.1490994  40.5965993  89.9593828 115.3575840
  40.5642313  89.0209829 115.5435524  41.2066617  90.0377865 114.6241665
  32.4349324  88.8289881 101.4003044  33.3808429  88.6996089 101.4691462
  32.0563569  88.0904543 101.8772472  40.7460482  86.7504872 115.4034123
  40.2299530  85.9663328 115.2164052  41.6300430  86.4223588 115.5680642
  38.4071209  80.4945887 111.3629936  38.2096030  80.1860976 112.2473268
  39.0170914  81.2207526 111.4927866  46.4142543  91.0209835 114.4981877
  47.1445932  90.7595123 115.0589580  45.8049489  90.2838557 114.5383945
  44.4957840  89.1617698 115.0956328  43.7691004  89.0273663 114.4872819
  44.0805127  89.4694526 115.9013046  30.6192241  86.7539858 101.3357929
  29.7123697  86.4572970 101.4120643  30.8968222  86.4569676 100.4692215
  32.2354307  81.2976747 107.4902170  31.4255035  80.9523832 107.8657416
  32.9238724  80.9884291 108.0789782  34.1644855  80.3754794 109.1126467
  34.7175894  80.7950248 109.7716490  34.4014942  79.4490542 109.1549423
  29.3891026  83.6126793 101.4769908  30.2510190  83.9381691 101.7365726
  29.5741370  82.8258289 100.9642974  37.5423662  82.4855319 108.6205131
  36.9622331  83.1440123 108.2383184  37.2759595  81.6632664 108.2092549
  35.9927229  81.8860377 110.8226452  36.4927007  81.9976912 110.0140770
  36.6362837  81.5821430 111.4627260  36.3248540  84.6455410 107.6761480
  35.4374395  84.9305060 107.4581674  36.7402529  84.4849173 106.8288756
  39.6763076  84.6701931 111.3915819  40.4523467  85.1598383 111.6640436
  38.9511211  85.0959985 111.8487688  42.1135635  85.3829550 112.4489759
  42.7080126  85.1425286 111.7383068  42.1862219  84.6636681 113.0763296
  35.4691754  94.4100084 101.7709500  36.1727604  94.6150087 102.3867155
  34.7454403  94.9776846 102.0358583  36.2989564  90.1609946 107.8911770
  36.2424766  90.6178497 107.0519402  36.8517907  89.4000630 107.7134612
  40.1094370  85.9499678 108.7161889  39.8531304  85.5496313 109.5470097
  39.4847238  86.6643472 108.5912028  44.4206708  88.6895751 111.2233181
  43.8606266  88.7588940 111.9964743  43.8150211  88.5136735 110.5032677
  37.3778451  94.8482614 103.8207960  38.2124055  94.4163812 103.6385434
  37.2162794  94.6764627 104.7484854  37.0324343  91.3514727 105.1864299
  36.9773147  91.1858998 104.2452743  36.4070399  92.0590760 105.3426489
  30.3420469  80.8522836 104.7649617  30.3299139  81.7964676 104.9217888
  31.2343891  80.6692981 104.4709078  34.1572588  77.4465613 109.0195554
  33.3904984  76.8924099 109.1652236  34.5683293  77.5187481 109.8809706
  38.6739248 107.1715169 109.8421552  38.1104113 107.0805106 109.0737840
  38.5591643 106.3515074 110.3224044  44.2538807 110.8386137 105.1536017
  43.6026787 111.4240217 104.7670031  45.0483170 111.3692332 105.2131054
  38.1794434 107.9275274 105.5523151  38.9525310 107.3804261 105.4136027
  38.5319833 108.7919523 105.7637613  40.5160712 104.0867940 103.1841601
  40.7686233 103.5649462 102.4225064  39.5785271 103.9234086 103.2868285
  45.5603995 103.0903719 110.9916344  46.3467084 102.6723142 110.6406761
  45.8242699 103.9949811 111.1597993  45.7314072 108.5276569 105.6905001
  45.0959905 108.6011195 106.4025906  45.4011479 109.1170168 105.0124080
  40.2357001 105.9896046 105.3865976  40.1193259 105.3140950 106.0547060
  40.3459261 105.5028420 104.5698129  42.5788542 105.4506193 109.0912665
  42.2146749 104.9236814 109.8025587  43.4355658 105.0604662 108.9179151
  42.2194029 100.4796093 104.0874014  42.3868431 101.3476329 104.4544485
  42.0291198 100.6423375 103.1635303  42.1983250 102.9353751 105.0720681
  42.0782875 103.3810801 105.9106161  41.5035838 103.2839068 104.5134219
  47.8968316 103.4075224 105.9001015  48.8086172 103.6402610 105.7248712
  47.3877963 103.9912268 105.3376093  45.2404290  99.5833260 114.1490876
  44.3788769  99.8814513 114.4407613  45.2666725  99.8003659 113.2171908
  42.0565860 108.1275450 110.5564681  42.5204205 108.4063153 109.7669304
  41.7922658 107.2258895 110.3737772  40.9934746 104.2498603 107.3654246
  41.6958789 104.7019646 107.8328173  40.6615374 103.6082421 107.9934140
  36.6874825 102.8726735 109.6254857  35.8905989 102.9845429 110.1438352
  36.4600417 103.2113387 108.7595747  42.2328511 111.0639545 107.4416352
  42.0974185 111.9091081 107.8701199  42.7738323 111.2658823 106.6782285
  45.5820974  94.5870107 115.9715245  45.2385243  95.4771749 115.8954356
  45.9499937  94.3971765 115.1084830  45.5471257 104.5778718 104.4787680
  45.0317880 105.3483323 104.7176068  45.2748565 103.9043854 105.1020742
  43.1318368  99.4228419 109.5372919  42.2759964  99.0335269 109.3578557
  43.5445320  99.5020380 108.6772704  44.6617514  96.9574762 113.9364478
  44.1582310  96.9204897 113.1232284  44.9548121  97.8667505 113.9961135
  40.9060400  97.0413492 112.9430660  41.7713397  96.8456301 112.5836550
  40.9737909  96.8123844 113.8700017  50.5205531 107.3311073 106.4140854
  49.7434974 106.9922232 105.9696016  51.1997012 107.3363696 105.7395819
  45.3357560 102.4505810 106.3047461  45.0307696 102.7651959 107.1557605
  46.2888002 102.5287230 106.3474794  43.7803992 108.6096034 107.9540415
  43.2525353 107.8748793 107.6413653  43.2791495 109.3870710 107.7080384
  38.5122719  99.2715700 110.3147027  39.0866471  99.0490881 109.5820220
  39.0993702  99.3404394 111.0675628  38.8392307 101.3020161 104.3342912
  38.0029619 101.6394847 104.6552187  38.6997076 101.1669141 103.3970049
  40.8145387  96.1456949 109.0422096  40.1609799  95.8305966 108.4178711
  40.7725861  95.5232689 109.7681919  41.9256592 106.4276244 100.9575388
  41.0183654 106.1965497 101.1566537  42.4227624 105.6313863 101.1449370
  44.8324671 115.1373751 103.8772075  44.1586370 115.4405448 104.4857032
  45.2190493 115.9402831 103.5277532  44.8318175 104.0330298 108.4972424
  45.5789994 104.5451695 108.1879546  45.1009765 103.7114351 109.3576818
  43.1044825 106.5288839 105.4799378  42.1956045 106.2447872 105.5771848
  43.1339909 106.9487917 104.6202685  47.2797012 101.0687414 110.4791213
  46.5419769 100.5564800 110.8101456  47.5323786 100.6287796 109.6674490
  47.3808640  93.8463666 111.0732983  47.6867517  92.9861030 110.7858898
  48.1061245  94.4381286 110.8731977  41.6529719 104.1417459 111.5809174
  41.7078329 103.1891296 111.5051650  40.8420922 104.2976898 112.0650472
  42.8020913 108.0697582 102.8187457  42.3640343 107.3533441 102.3593094
  43.5431354 108.2973697 102.2572548  39.5922079 102.7594519 109.3399553
  38.7789945 103.0588690 109.7464745  40.0881074 102.3650208 110.0574035
  39.0836154 100.3312875 114.9560788  39.7235533 100.1901634 114.2583751
  38.2513685 100.0447388 114.5799390  36.1679222 103.7758387 107.1455533
  35.2376810 103.7142842 107.3625495  36.2636694 103.2534340 106.3492174
  36.0864771 100.3013200 109.7333774  36.3471588 101.2158533 109.6242935
  36.9081943  99.8337642 109.8830387  46.9232141 106.9281964 102.4119515
  46.3061312 106.2028792 102.3152567  46.4548629 107.6891324 102.0686589
  38.7130687 101.1467388 101.5340819  37.8360153 101.0256189 101.1703066
  39.1888440 100.3553467 101.2819708  45.2091263  99.3088308 111.4237545
  45.7059962  98.5558271 111.1038615  44.4378244  99.3452625 110.8580754
  41.7926232 101.4505691 111.1509229  41.4224019 100.8976732 111.8390135
  42.2885324 100.8463825 110.5984229  47.6510258  96.2757902 113.5716904
  46.7373338  96.5062129 113.7399111  48.0803359  96.3596346 114.4230936
  33.4409381 102.7409244 106.9753725  33.7362822 101.8319922 106.9220778
  32.5397416 102.7196983 106.6534727  35.1697222 100.4223341 107.0993050
  34.8409928  99.5420720 106.9168156  35.5236593 100.3671010 107.9869439
  38.2839045 100.7096311 107.4668527  38.6235118 101.2382232 106.7447136
  38.7311166 101.0476717 108.2427094  41.6298958  96.1782674 115.3698918
  42.4525027  95.7043152 115.2477809  41.8737022  96.9573158 115.8697605
  40.2707193  99.2070933 105.6661820  40.9915555  99.5852185 105.1625537
  39.6472497  99.9259809 105.7696798  44.4138315  99.9116082 106.6020153
  44.6301930 100.7940720 106.3008981  43.9332383  99.5202295 105.8725794
  41.0133920  99.8604343 113.2271787  40.9995488  98.9645436 112.8904085
  41.7306348  99.8675007 113.8610073  40.4170816  98.7418723 108.4959357
  40.5386727  97.8135369 108.6950244  40.1272858  98.7557409 107.5837672
  43.2862006  96.4273634 111.6326077  43.3083703  96.4912967 110.6778056
  43.7030065  95.5878142 111.8266583  39.3900875 110.3272856 106.5875244
  39.5388995 111.0108320 105.9341917  40.1967318 110.3077946 107.1024700
  37.1453508 106.3538033 107.5936313  36.8999549 105.4500363 107.7916523
  37.3149422 106.3555184 106.6515791  36.4149155 102.0866391 105.0922474
  35.7218400 102.1610746 104.4362510  36.1700907 101.3226735 105.6143991
  45.0862812  93.6461992 112.4961965  45.3664565  92.9785181 113.1222392
  45.8713419  93.8391088 111.9836629  42.8896280 112.8220986 104.0586991
  42.3170247 113.4411173 103.6057463  43.4629074 113.3720348 104.5926913
  46.1093540 113.1058136 105.1895574  47.0424213 113.0403698 105.3928449
  46.0216753 113.9414403 104.7310106  48.7381557 112.4224007 102.1499521
  48.6595188 112.0883870 103.0435279  49.5591223 112.9145775 102.1490994
  43.2743079 104.1581799 101.4003044  44.2202183 104.0288007 101.4691462
  42.8957324 103.4196461 101.8772472  49.2464963  95.8237805 111.3629936
  49.0489784  95.5152893 112.2473268  49.8564669  96.5499444 111.4927866
  41.4585996 102.0831775 101.3357929  40.5517451 101.7864888 101.4120643
  41.7361977 101.7861593 100.4692215  43.0748061  96.6268665 107.4902170
  42.2648790  96.2815750 107.8657416  43.7632478  96.3176209 108.0789782
  45.0038610  95.7046712 109.1126467  45.5569648  96.1242165 109.7716490
  45.2408696  94.7782460 109.1549423  40.2284780  98.9418711 101.4769908
  41.0903944  99.2673609 101.7365726  40.4135125  98.1550207 100.9642974
  48.3817417  97.8147237 108.6205131  47.8016086  98.4732041 108.2383184
  48.1153350  96.9924582 108.2092549  46.8320983  97.2152295 110.8226452
  47.3320762  97.3268829 110.0140770  47.4756591  96.9113348 111.4627260
  47.1642295  99.9747327 107.6761480  46.2768150 100.2596978 107.4581674
  47.5796284  99.8141091 106.8288756  46.3085508 109.7392002 101.7709500
  47.0121358 109.9442005 102.3867155  45.5848157 110.3068764 102.0358583
  47.1383319 105.4901863 107.8911770  47.0818520 105.9470415 107.0519402
  47.6911661 104.7292548 107.7134612  50.9488125 101.2791595 108.7161889
  50.6925059 100.8788231 109.5470097  50.3240993 101.9935389 108.5912028
  48.2172206 110.1774531 103.8207960  49.0517810 109.7455730 103.6385434
  48.0556549 110.0056545 104.7484854  47.8718098 106.6806645 105.1864299
  47.8166902 106.5150916 104.2452743  47.2464153 107.3882678 105.3426489
  41.1814223  96.1814754 104.7649617  41.1692893  97.1256594 104.9217888
  42.0737645  95.9984899 104.4709078  44.9966343  92.7757530 109.0195554
  44.2298739  92.2216017 109.1652236  45.4077048  92.8479399 109.8809706
  49.5524441 116.4759306 101.5340819  48.6753908 116.3548107 101.1703066
  50.0282194 115.6845384 101.2819708  51.0678535 114.2710628 101.4769908
  51.9297699 114.5965527 101.7365726  51.2528879 113.4842124 100.9642974
   1.4749654  30.8268203  90.6017381   0.8011353  31.1299900  91.2102339
   1.8615476  31.6297283  90.2522838   5.3806540  28.1118459  88.8744828
   5.3020171  27.7778322  89.7680586   6.2016207  28.6040227  88.8736300
   2.9510492  25.4286454  88.4954806   3.6546342  25.6336457  89.1112462
   2.2273140  25.9963216  88.7603890   6.1557986  38.1901539  96.5666859
   5.5922851  38.0991476  95.7983146   6.0410381  37.3701443  97.0469351
  11.7357545  41.8572507  91.8781324  11.0845525  42.4426587  91.4915337
  12.5301908  42.3878701  91.9376361   5.6613172  38.9461644  92.2768458
   6.4344048  38.3990631  92.1381334   6.0138571  39.8105893  92.4882919
   7.9979450  35.1054310  89.9086908   8.2504970  34.5835831  89.1470371
   7.0604009  34.9420455  90.0113591  13.0422733  34.1090088  97.7161651
  13.8285822  33.6909511  97.3652068  13.3061437  35.0136180  97.8843299
  13.2132810  39.5462938  92.4150308  12.5778643  39.6197565  93.1271212
  12.8830216  40.1356537  91.7369387  18.4431160  34.0465321  98.6194630
  19.1756332  33.4764538  98.8532459  17.6870515  33.6586922  99.0601135
   7.7175739  37.0082416  92.1111283   7.6011997  36.3327319  92.7792367
   7.8277998  36.5214790  91.2943436  10.0607279  36.4692563  95.8157972
   9.6965487  35.9423184  96.5270893  10.9174395  36.0791032  95.6424457
   9.7012766  31.4982463  90.8119320   9.8687169  32.3662699  91.1789792
   9.5109935  31.6609744  89.8880610   9.6801987  33.9540120  91.7965987
   9.5601613  34.3997171  92.6351468   8.9854576  34.3025438  91.2379525
   7.4408879  46.7243762  95.4456119   7.3632909  47.6751587  95.5244599
   6.8370523  46.3789634  96.1031045  15.3787053  34.4261593  92.6246321
  16.2904910  34.6588980  92.4494019  14.8696701  35.0098637  92.0621400
  13.9856636  39.4087412 100.0159903  13.3565498  39.5733126  99.3135971
  13.5982298  39.8229021 100.7870867  17.8645868  40.3441850  97.3704267
  17.1796906  40.7240751  96.8201300  17.9489717  40.9537176  98.1036214
   9.5384598  39.1461820  97.2809988  10.0022943  39.4249523  96.4914610
   9.2741396  38.2445264  97.0983079   8.4753484  35.2684972  94.0899553
   9.1777527  35.7206016  94.5573479   8.1434112  34.6268791  94.7179446
  16.2342627  40.8673764 102.1421967  17.0560071  40.4653951 101.8604649
  16.2305030  40.7641998 103.0938083  24.3248620  37.2112512  98.4906939
  23.5712329  36.6419911  98.3350943  24.4596161  37.1775177  99.4377574
   9.7147248  42.0825915  94.1661658   9.5792923  42.9277451  94.5946506
  10.2557061  42.2845192  93.4027592   3.1676646  39.6001353  94.7389583
   3.6801166  40.3944603  94.8895148   3.8199359  38.9027643  94.6723185
   4.9771530  42.7167109  96.8212337   5.1538159  43.6385074  96.6333320
   5.7728364  42.4025528  97.2506716  13.0289995  35.5965088  91.2032987
  12.5136618  36.3669692  91.4421374  12.7567303  34.9230224  91.8266048
  18.0024269  38.3497442  93.1386160  17.2253712  38.0108602  92.6941322
  18.6815750  38.3550066  92.4641125  12.8176298  33.4692180  93.0292768
  12.5126433  33.7838329  93.8802911  13.7706740  33.5473600  93.0720101
  11.2622730  39.6282403  94.6785722  10.7344091  38.8935163  94.3658959
  10.7610232  40.4057080  94.4325690  16.2415576  37.8231424  99.7952768
  15.5839250  38.5130685  99.8832897  17.0455975  38.2127856 100.1386755
  15.0521034  36.1775796  97.8456710  15.5652916  36.8105788  98.3478420
  15.7022258  35.5776992  97.4800070   6.3211044  32.3206531  91.0588219
   5.4848357  32.6581217  91.3797494   6.1815814  32.1855510  90.1215356
   9.4075330  37.4462613  87.6820695   8.5002392  37.2151867  87.8811844
   9.9046362  36.6500233  87.8694677  12.3143409  46.1560121  90.6017381
  11.6405107  46.4591817  91.2102339  12.7009231  46.9589201  90.2522838
  12.3136913  35.0516668  95.2217731  13.0608732  35.5638065  94.9124853
  12.5828503  34.7300720  96.0822124  10.5863563  37.5475208  92.2044685
   9.6774783  37.2634241  92.3017155  10.6158647  37.9674287  91.3447992
  15.8182831  41.1581798  95.9735853  15.3645158  40.3172708  96.0301043
  15.1876797  41.7943196  96.3110633  14.2615770  42.9958295  96.9085671
  14.5538744  43.5563352  96.1898036  14.7714390  43.2886856  97.6638830
  10.2839651  39.0883952  89.5432764   9.8459081  38.3719811  89.0838401
  11.0250092  39.3160067  88.9817855   9.2249395  43.7738646  97.9979124
   9.1825574  43.9999492  97.0687656  10.1412094  43.5402020  98.1464925
  18.4012766  37.3641149  95.6009082  18.2630664  37.5542745  94.6730271
  18.0448985  38.1260532  96.0577133  18.4282145  39.4317676 100.6120354
  18.8618652  39.3392965 101.4603408  19.1413726  39.4075177  99.9740370
   7.3415196  40.6501675  97.7941087   8.1355794  40.1551995  97.5923662
   6.6306888  40.1219538  97.4308792  12.1610040  43.0319770 102.1453454
  12.2147063  43.6010706 102.9131170  11.2924822  43.2021655 101.7807492
   3.6497959  34.7944756  93.8700839   2.7195547  34.7329212  94.0870802
   3.7455431  34.2720709  93.0737481  10.5134624  46.3239793  92.8164460
  10.6886380  45.8527836  93.6310083   9.8267412  46.9505559  93.0445721
  11.4691687  40.6012299  98.8627762  11.1341520  40.5613069  99.7585412
  10.9695633  39.9357015  98.3898172  14.4050879  37.9468334  89.1364821
  13.7880049  37.2215162  89.0397874  13.9367367  38.7077694  88.7931896
   5.0795709  49.4729156  99.5904321   5.3192307  50.1047680 100.2683339
   4.2364906  49.1217196  99.8769680   6.1949425  32.1653758  88.2586126
   5.3178891  32.0442559  87.8948372   6.6707178  31.3739836  88.0065014
   9.5923571  45.2808278 101.9945825   9.5193742  46.0863250 102.5065129
   9.1500964  45.4800244 101.1693846   9.3813351  44.5180048  95.5048646
   8.5980873  45.0601728  95.5986871  10.0806096  45.0354028  95.9042887
  20.5439758  36.0315043  99.7901143  20.5329634  36.9139759  99.4195076
  19.6757138  35.6786594  99.5955680  13.7739781  39.0846365  95.7221275
  12.8396060  39.2047827  95.5525979  13.9516450  38.1818832  95.4581285
  17.1612333  34.9263684  96.2571309  17.6272785  35.7591676  96.1831612
  17.6119833  34.4608666  96.9616567  15.2288564  41.2707506  93.2557461
  15.5048408  41.1564100  94.1651335  14.3593063  40.8724990  93.2169634
  11.8642628  45.5193856  96.8990275  12.0465022  44.7015512  97.3618027
  12.6875614  45.7361549  96.4615165  12.1984793  44.4462042  94.1605323
  12.7272560  43.9354496  93.5475485  12.4613013  44.1304572  95.0250856
   5.5540541  45.4977158  96.9203099   4.8850917  45.9823286  96.4367139
   5.4153411  45.7446379  97.8346478   9.6945810  47.5320902 103.5185757
  10.2464118  47.6952523 104.2834843  10.0352003  48.1225340 102.8465782
  12.8314197  45.4802877 100.5049440  12.7065337  44.6792617  99.9960385
  13.4893288  45.9749071 100.0163410  14.8949106  43.2811897 102.1328990
  13.9479441  43.1617249 102.0607316  15.2431879  42.3934395 102.2155251
  11.8995539  43.0764614  98.3333342  11.7520501  42.1481321  98.5140912
  12.7249032  43.0984704  97.8490417  15.5029661  43.8993172  99.4198215
  16.4276208  43.6936034  99.2822666  15.3344964  43.6509573 100.3287556
   7.7525930  30.2257302  92.3907127   8.4734293  30.6038555  91.8870844
   7.1291234  30.9446179  92.4942105  11.8957053  30.9302451  93.3265459
  12.1120668  31.8127089  93.0254287  11.4151120  30.5388665  92.5971101
  15.2924977  44.4178840  94.7760306  15.4661854  43.8525262  94.0234159
  15.7853868  45.2179735  94.5939796  21.1464368  37.1815263  96.3950606
  21.5895514  36.4322588  95.9969729  20.2690878  37.1725399  96.0124338
  16.2800149  43.7345604  91.8757204  16.9751054  44.3552297  92.0944519
  16.6223300  42.8840955  92.1509582  18.1791573  41.1845310  93.4044535
  18.7042897  41.5232582  92.6793855  18.0913925  40.2492325  93.2207670
   9.8632233  47.2517293  97.7639788   9.4237224  46.7593672  98.4572645
  10.6140350  46.7090261  97.5231864   2.3424572  43.4428834  97.7664416
   3.1682592  43.1432606  97.3863060   1.9918624  42.6736456  98.2154205
   7.3106105  42.7955302  99.8362090   6.6886115  42.1326007  99.5364318
   7.9810972  42.8216434  99.1535738   6.8719612  41.3459225  93.3120551
   7.0207733  42.0294690  92.6587223   7.6786056  41.3264315  93.8270006
  20.6897233  38.6520501  98.7873053  21.5244124  39.0910305  98.9510614
  20.8256362  38.1759154  97.9681299   4.6272245  37.3724403  94.3181619
   4.3818287  36.4686733  94.5161830   4.7968160  37.3741553  93.3761097
   3.8967893  33.1052761  91.8167781   3.2037138  33.1797116  91.1607817
   3.6519645  32.3413104  92.3389298  10.3715018  43.8407356  90.7832298
   9.7988985  44.4597543  90.3302770  10.9447812  44.3906718  91.3172220
  13.5912278  44.1244506  91.9140880  14.5242951  44.0590068  92.1173756
  13.5035490  44.9600773  91.4555413  16.2200294  43.4410376  88.8744828
  16.1413926  43.1070240  89.7680586  17.0409961  43.9332144  88.8736300
  10.7561816  35.1768169  88.1248350  11.7020921  35.0474377  88.1936769
  10.3776061  34.4382830  88.6017779  24.7355035  37.3688122 101.2227183
  25.4658424  37.1073411 101.7834887  24.1261981  36.6316844 101.2629251
  22.8170332  35.5095985 101.8201634  22.0903496  35.3751950 101.2118126
  22.4017619  35.8172814 102.6258352   8.9404734  33.1018145  88.0603236
   8.0336189  32.8051258  88.1365949   9.2180715  32.8047963  87.1937522
   7.7103518  29.9605080  88.2015215   8.5722682  30.2859979  88.4611032
   7.8953862  29.1736576  87.6888281  15.8636155  28.8333607  95.3450438
  15.2834824  29.4918411  94.9628490  15.5972087  28.0110951  94.9337855
  14.6461033  30.9933697  94.4006786  13.7586888  31.2783348  94.1826981
  15.0615022  30.8327460  93.5534063   2.6545283  45.5741448  99.4878231
   2.5199751  44.8141849  98.9216229   2.2377345  46.2982348  99.0207020
  13.7904246  40.7578372  88.4954806  14.4940096  40.9628374  89.1112462
  13.0666895  41.3255134  88.7603890  14.6202056  36.5088233  94.6157076
  14.5637258  36.9656784  93.7764709  15.1730399  35.7478918  94.4379919
  18.4306862  32.2977965  95.4407196  18.1743797  31.8974600  96.2715404
  17.8059730  33.0121759  95.3157335  22.7419200  35.0374038  97.9478487
  22.1818758  35.1067227  98.7210049  22.1362704  34.8615023  97.2277983
   5.8114409  46.4710765  99.6996674   5.6946793  47.4156198  99.5975364
   4.9906855  46.1684327 100.0882473  15.6990944  41.1960901  90.5453266
  16.5336547  40.7642099  90.3630741  15.5375286  41.0242915  91.4730161
  15.3536836  37.6993014  91.9109606  15.2985639  37.5337286  90.9698050
  14.7282891  38.4069047  92.0671795   8.6632961  27.2001123  91.4894924
   8.6511631  28.1442963  91.6463195   9.5556383  27.0171269  91.1954385
   8.5922525  45.8770014  99.5762681   7.6418156  45.8771875  99.4627053
   8.8955011  45.1302748  99.0598715  24.3275219  51.7130552 100.6408443
  24.9653629  51.5937299  99.9371783  24.2096061  52.6611396 100.6996395
  21.1364925  51.6657980 100.5769968  20.7983436  51.5499045  99.6890503
  22.0054693  51.2649145 100.5570974  16.9951741  53.5193457  96.5666859
  16.4316606  53.4283393  95.7983146  16.8804136  52.6993361  97.0469351
  21.6184708  52.8192832 106.5356173  21.6073349  52.4245630 105.6636677
  21.7805347  52.0858904 107.1289945  14.5416173  55.0144648  99.4051079
  15.3337464  54.6735473  98.9897378  14.7812823  55.1239623 100.3253232
  22.5751299  57.1864424  91.8781324  21.9239279  57.7718505  91.4915337
  23.3695662  57.7170619  91.9376361  16.5006926  54.2753561  92.2768458
  17.2737802  53.7282548  92.1381334  16.8532325  55.1397811  92.4882919
  18.3391969  55.6029944 105.4835357  18.0481835  56.5075574 105.3682023
  18.9748953  55.6446471 106.1979427  19.2648176  52.9806792 102.0736717
  19.8611748  52.7562815 101.3593680  19.3223147  52.2391538 102.6762165
  18.8373204  50.4346228  89.9086908  19.0898725  49.9127749  89.1470371
  17.8997763  50.2712373  90.0113591  23.8816487  49.4382006  97.7161651
  24.6679576  49.0201429  97.3652068  24.1455191  50.3428098  97.8843299
  24.0526564  54.8754856  92.4150308  23.4172397  54.9489483  93.1271212
  23.7223971  55.4648455  91.7369387  29.2824914  49.3757239  98.6194630
  30.0150086  48.8056456  98.8532459  28.5264270  48.9878840  99.0601135
  18.5569493  52.3374333  92.1111283  18.4405751  51.6619237  92.7792367
  18.6671753  51.8506707  91.2943436  20.9001034  51.7984481  95.8157972
  20.5359241  51.2715102  96.5270893  21.7568150  51.4082950  95.6424457
  26.8050335  43.0878813 103.0789238  26.4733659  43.9574224 102.8550453
  26.2095948  42.7715097 103.7583269  20.5406521  46.8274380  90.8119320
  20.7080923  47.6954617  91.1789792  20.3503690  46.9901662  89.8880610
  23.2981854  55.2891359 102.4785151  22.9982577  56.1916398 102.3700958
  22.9532914  55.0223542 103.3306304  16.7494336  51.7405156  98.5121855
  15.8244832  51.6081370  98.7199547  16.9978749  52.5199375  99.0091798
  26.6978998  47.8073899 100.1582588  25.7895875  47.7389308  99.8641349
  26.6466594  48.2845844 100.9864414  20.5195742  49.2832038  91.7965987
  20.3995367  49.7289089  92.6351468  19.8248330  49.6317355  91.2379525
  14.1103147  51.3838430  99.3465644  14.2395528  51.6372908 100.2605056
  13.4300598  51.9766138  99.0270299  18.2802634  62.0535680  95.4456119
  18.2026664  63.0043505  95.5244599  17.6764277  61.7081552  96.1031045
  20.7719864  49.2263545 108.1017485  19.9953198  49.7857465 108.0920350
  21.4110427  49.7120328 108.6232356  28.5640644  46.0090338 101.9360462
  27.9215025  46.3022871 101.2900257  28.0595573  45.8943258 102.7413659
  26.2180808  49.7553511  92.6246321  27.1298664  49.9880898  92.4494019
  25.7090455  50.3390555  92.0621400  19.0266236  52.0348998 107.6635452
  19.7680920  52.5734042 107.3870276  18.3203221  52.6615287 107.8207004
  24.5021576  54.1778139 106.2607614  24.9104932  53.7360549 105.5162246
  23.7798837  53.6030766 106.5141807  20.8552646  49.1150746 103.6341171
  21.7013841  49.5390159 103.7775820  20.7951283  48.4584370 104.3279734
  24.8250390  54.7379329 100.0159903  24.1959253  54.9025044  99.3135971
  24.4376052  55.1520939 100.7870867  28.7039622  55.6733767  97.3704267
  28.0190660  56.0532669  96.8201300  28.7883471  56.2829094  98.1036214
  24.0052091  46.7755114 105.2922345  23.7613023  47.5297174 104.7556620
  24.2812021  47.1540461 106.1269592  25.9590554  53.3193726 103.9699610
  26.1707449  53.9625486 103.2933991  25.9120302  52.4856043 103.5021540
  23.5616783  45.9311547 100.8736182  22.7001262  46.2292800 101.1652920
  23.5879217  46.1481946  99.9417215  20.3778352  54.4753737  97.2809988
  20.8416698  54.7541440  96.4914610  20.1135150  53.5737182  97.0983079
  17.2702433  54.0225219 100.2189751  17.8403790  54.4512487  99.5807236
  17.8610545  53.7407804 100.9173937  19.3147238  50.5976890  94.0899553
  20.0171282  51.0497934  94.5573479  18.9827867  49.9560709  94.7179446
  17.7627600  49.1888646 108.4650762  17.1326260  49.8704927 108.6986159
  17.6563688  49.0771728 107.5203901  13.0572572  48.8560443  99.3916687
  12.2671626  49.1117971  98.9156797  13.5483820  49.6708780  99.4968727
  27.0736382  56.1965682 102.1421967  27.8953825  55.7945869 101.8604649
  27.0698785  56.0933916 103.0938083  15.0087318  49.2205022  96.3500163
  14.2118481  49.3323716  96.8683659  14.7812910  49.5591674  95.4841054
  20.8392985  55.7449725 104.2982678  20.9037418  56.2070132 105.1340850
  20.1303909  55.1147090 104.4264988  11.3410275  49.1090933 101.8231677
  11.5918314  49.9937943 102.0889253  11.8769824  48.9295534 101.0506769
  35.1642375  52.5404430  98.4906939  34.4106083  51.9711828  98.3350943
  35.2989916  52.5067095  99.4377574  20.5541003  57.4117832  94.1661658
  20.4186678  58.2569368  94.5946506  21.0950815  57.6137110  93.4027592
  14.0070400  54.9293271  94.7389583  14.5194921  55.7236521  94.8895148
  14.6593113  54.2319561  94.6723185  15.8165285  58.0459027  96.8212337
  15.9931913  58.9676991  96.6333320  16.6122118  57.7317446  97.2506716
  15.1017641  50.0923659 106.6974500  14.9871157  49.1908916 106.9981599
  14.2462159  50.3387355 106.3459316  22.1809479  58.0341399 108.2962000
  21.7373333  57.2477778 107.9782905  22.8426693  58.2220549 107.6305891
  16.9396600  59.5637201 102.8222679  17.4904025  59.4354264 102.0499673
  16.1008076  59.8632090 102.4717572  24.2790717  58.3144199 106.3243402
  24.2609193  59.1353080 105.8323671  25.2010637  58.1898274 106.5493543
  20.7363771  55.8288328 107.1666910  21.2692108  55.0676617 106.9366218
  20.2077853  55.5361980 107.9091064  23.9033466  40.9348394 102.6960552
  23.5597736  41.8250036 102.6199662  24.2712429  40.7450052 101.8330137
  11.9719317  53.2581925  95.5149154  12.8094539  53.6678933  95.2982862
  12.1497585  52.3181367  95.4849348  23.8683749  50.9257005  91.2032987
  23.3530373  51.6961610  91.4421374  23.5961058  50.2522142  91.8266048
  21.4530860  45.7706706  96.2618225  20.5972456  45.3813557  96.0823864
  21.8657812  45.8498667  95.4018011  22.9830007  43.3053050 100.6609785
  22.4794802  43.2683185  99.8477590  23.2760614  44.2145792 100.7206442
  19.2272893  43.3891779  99.6675967  20.0925889  43.1934588  99.3081856
  19.2950402  43.1602131 100.5945323  28.8418023  53.6789360  93.1386160
  28.0647466  53.3400520  92.6941322  29.5209504  53.6841983  92.4641125
  23.6570052  48.7984098  93.0292768  23.3520188  49.1130247  93.8802911
  24.6100494  48.8765517  93.0720101  22.1016484  54.9574321  94.6785722
  21.5737846  54.2227080  94.3658959  21.6003987  55.7348997  94.4325690
  27.0809330  53.1523341  99.7952768  26.4233005  53.8422603  99.8832897
  27.8849729  53.5419773 100.1386755  16.8335212  45.6193987  97.0392334
  17.4078964  45.3969169  96.3065526  17.4206194  45.6882682  97.7920935
  25.8914789  51.5067714  97.8456710  26.4046671  52.1397706  98.3478420
  26.5416013  50.9068910  97.4800070  17.1604799  47.6498448  91.0588219
  16.3242111  47.9873135  91.3797494  17.0209568  47.5147428  90.1215356
  19.1357879  42.4935236  95.7667403  18.4822292  42.1784253  95.1424018
  19.0938354  41.8710977  96.4927226  20.2469084  52.7754531  87.6820695
  19.3396146  52.5443785  87.8811844  20.7440116  51.9792150  87.8694677
  23.1537163  61.4852038  90.6017381  22.4798862  61.7883735  91.2102339
  23.5402985  62.2881119  90.2522838  22.3695620  48.9817170 100.0915051
  21.4518181  49.2032117  99.9336739  22.7855763  49.0563480  99.2326758
  23.1530668  50.3808585  95.2217731  23.9002487  50.8929982  94.9124853
  23.4222257  50.0592638  96.0822124  21.4257318  52.8767126  92.2044685
  20.5168537  52.5926159  92.3017155  21.4552402  53.2966205  91.3447992
  26.6576585  56.4873715  95.9735853  26.2038912  55.6464625  96.0301043
  26.0270552  57.1235114  96.3110633  25.6009505  47.4165702  97.2036520
  24.8632262  46.9043088  97.5346763  25.8536278  46.9766083  96.3919797
  25.1009524  58.3250212  96.9085671  25.3932499  58.8855269  96.1898036
  25.6108145  58.6178773  97.6638830  25.7021132  40.1941954  97.7978289
  26.0080009  39.3339317  97.5104204  26.4273737  40.7859574  97.5977283
  11.9945488  50.5972640  96.1859887  11.7969888  50.0042001  95.4610954
  11.4392152  50.2924850  96.9035826  19.9742212  50.4895747  98.3054480
  20.0290822  49.5369583  98.2296957  19.1633414  50.6455186  98.7895779
  21.1233406  54.4175870  89.5432764  20.6852835  53.7011729  89.0838401
  21.8643846  54.6451984  88.9817855  17.9134572  49.1072806  96.0644859
  17.1002437  49.4066977  96.4710051  18.4093566  48.7128495  96.7819342
  20.0643150  59.1030563  97.9979124  20.0219328  59.3291410  97.0687656
  20.9805848  58.8693938  98.1464925  23.5108783  49.5714631 104.8959753
  23.8658171  49.7986104 105.7554219  24.1580915  49.9033008 104.2737009
  29.2406520  52.6933067  95.6009082  29.1024419  52.8834663  94.6730271
  28.8842739  53.4552450  96.0577133  17.4048646  46.6791162 101.6806094
  18.0448026  46.5379921 100.9829058  16.5726177  46.3925675 101.3044696
  29.2675900  54.7609594 100.6120354  29.7012407  54.6684883 101.4603408
  29.9807481  54.7367094  99.9740370  18.1808950  55.9793592  97.7941087
  18.9749549  55.4843912  97.5923662  17.4700643  55.4511455  97.4308792
  23.0003795  58.3611688 102.1453454  23.0540817  58.9302624 102.9131170
  22.1318576  58.5313573 101.7807492  14.4891714  50.1236674  93.8700839
  13.5589302  50.0621130  94.0870802  14.5849186  49.6012627  93.0737481
  14.4077263  46.6491487  96.4579081  14.6684080  47.5636820  96.3488242
  15.2294435  46.1815929  96.6075694  15.8802188  48.0629244 103.6277906
  16.5525242  47.8546606 102.9790555  15.0531975  47.8651330 103.1883138
  30.1291449  54.8033294 103.1453239  30.3227340  55.7079105 103.3912514
  30.0292068  54.3440713 103.9791824  21.7827760  44.6891185 105.6443567
  21.1355675  45.3881135 105.5508043  22.5528776  45.1227329 106.0119815
  25.1906558  54.9540037 108.7194120  25.0392065  54.7250589 107.8024203
  25.1811238  55.9110639 108.7325465  21.9591895  52.5271950 103.7040386
  22.8883955  52.6783109 103.5309354  21.5382925  52.6155971 102.8489033
  20.7580226  56.5522614 101.4738924  20.6191312  56.1841399 102.3464862
  19.9694823  57.0670254 101.3022882  21.3528378  61.6531711  92.8164460
  21.5280134  61.1819754  93.6310083  20.6661166  62.2797477  93.0445721
  22.3085442  55.9304217  98.8627762  21.9735274  55.8904987  99.7585412
  21.8089387  55.2648933  98.3898172  16.2829685  51.3371847 104.3880343
  16.1449483  50.6052086 104.9891882  17.1934609  51.2480747 104.1064531
  25.2444633  53.2760251  89.1364821  24.6273804  52.5507079  89.0397874
  24.7761122  54.0369612  88.7931896  18.9111986  51.0491806 103.8764022
  19.6211605  50.4084999 103.8350641  18.8681294  51.3004701 104.7990203
  26.8998765  57.9859160 106.7970602  26.8411311  57.3018380 106.1301185
  27.3018283  58.7278150 106.3451228  17.6240920  48.0357024 105.6959662
  17.0878277  47.5847763 106.3481258  17.0357629  48.1702933 104.9530126
  15.9189464  64.8021074  99.5904321  16.1586062  65.4339598 100.2683339
  15.0758660  64.4509114  99.8769680  17.0343179  47.4945676  88.2586126
  16.1572645  47.3734476  87.8948372  17.5100932  46.7031754  88.0065014
  26.9016172  55.9498744 105.0284581  26.0142951  55.6124665 105.1510980
  27.4714723  55.2181775 105.2653347   8.5545319  52.2822835  98.3527633
   9.2416359  51.9684565  97.7648648   8.3993448  53.1864200  98.0794884
  13.3580041  47.1713032 102.7812656  13.2738230  46.5638701 102.0463066
  12.5362748  47.6622050 102.7822153  20.4317325  60.6100196 101.9945825
  20.3587497  61.4155167 102.5065129  19.9894719  60.8092162 101.1693846
  20.2207105  59.8471966  95.5048646  19.4374627  60.3893646  95.5986871
  20.9199850  60.3645946  95.9042887  23.5303755  45.6566595  98.1482851
  24.0272455  44.9036558  97.8283922  22.7590737  45.6930912  97.5826061
  31.3833513  51.3606961  99.7901143  31.3723389  52.2431676  99.4195076
  30.5150892  51.0078512  99.5955680  22.8916009  60.5087030 104.1503983
  23.6043981  61.1434495 104.0779885  22.4006038  60.6050896 103.3343985
  24.6133536  54.4138283  95.7221275  23.6789815  54.5339745  95.5525979
  24.7910204  53.5110749  95.4581285  20.1138724  47.7983978  97.8754536
  19.7436511  47.2455019  98.5635442  20.6097816  47.1942112  97.3229536
  28.0006087  50.2555602  96.2571309  28.4666539  51.0883594  96.1831612
  28.4513588  49.7900584  96.9616567  17.9427923  58.2581473 104.9709554
  18.6437382  58.8917956 105.1238948  17.4723038  58.5996205 104.2105193
  26.0682318  56.5999423  93.2557461  26.3442162  56.4856018  94.1651335
  25.1986817  56.2016908  93.2169634  25.9722750  42.6236189 100.2962210
  25.0585830  42.8540416 100.4644417  26.4015851  42.7074633 101.1476243
  25.7429208  50.8126081 102.7962104  25.0900659  51.0601988 102.1414557
  26.1209588  49.9990219 102.4624582  22.7036382  60.8485774  96.8990275
  22.8858777  60.0307430  97.3618027  23.5269368  61.0653466  96.4615165
  23.0378548  59.7753959  94.1605323  23.5666314  59.2646414  93.5475485
  23.3006767  59.4596489  95.0250856  21.7916782  51.5545892 109.2828141
  21.1157419  51.4540021 109.9530517  22.6144415  51.3985106 109.7464139
  13.5395641  57.7917828 101.9040657  14.1249077  57.0461516 102.0368561
  13.3420479  58.1021785 102.7877321  16.3934296  60.8269076  96.9203099
  15.7244671  61.3115204  96.4367139  16.2547166  61.0738296  97.8346478
   8.1313295  50.3623429 100.6245100   8.1697395  49.8287019 101.4182218
   7.6253588  49.8358634 100.0056077  20.5339564  62.8612819 103.5185757
  21.0857872  63.0244441 104.2834843  20.8745758  63.4517257 102.8465782
  15.5104058  45.2087969 104.1207642  15.5745384  46.0702800 103.7085040
  15.4471178  44.5961971 103.3880001  25.3850439  57.6874077 109.3734412
  25.9290343  58.3004035 108.8789367  24.8037284  58.2453655 109.8901425
  11.7621873  49.0887531  93.6999031  12.0575314  48.1798209  93.6466085
  10.8609909  49.0675270  93.3780034  23.6707952  60.8094795 100.5049440
  23.5459091  60.0084535  99.9960385  24.3287043  61.3040988 100.0163410
  15.2916120  47.1643527  99.6826580  14.5702706  47.7779495  99.5434053
  16.0809376  47.7001292  99.6043226  25.7342860  58.6103815 102.1328990
  24.7873196  58.4909166 102.0607316  26.0825633  57.7226313 102.2155251
  13.4909714  46.7701629  93.8238356  13.1622421  45.8899007  93.6413462
  13.8449085  46.7149297  94.7114746  22.7389293  58.4056531  98.3333342
  22.5914256  57.4773239  98.5140912  23.5642787  58.4276622  97.8490417
  16.6051538  47.0574598  94.1913834  16.9447610  47.5860520  93.4692442
  17.0523658  47.3955004  94.9672401  26.3423415  59.2285090  99.4198215
  27.2669963  59.0227951  99.2822666  26.1738719  58.9801491 100.3287556
  19.2994978  45.4411649 103.6416902  18.9591799  44.6419462 104.0437582
  18.5933985  45.7413360 103.0693735  19.9511450  42.5260961 102.0944225
  20.7737520  42.0521440 101.9723115  20.1949514  43.3051445 102.5942911
  18.5919685  45.5549220  92.3907127  19.3128047  45.9330473  91.8870844
  17.9684989  46.2738097  92.4942105  22.7350808  46.2594369  93.3265459
  22.9514422  47.1419007  93.0254287  22.2544875  45.8680582  92.5971101
  17.4750029  49.2180082  99.9036204  17.3294610  49.5320385 100.7960485
  16.9975233  49.8364982  99.3507102  19.3346412  46.2082630  99.9517093
  19.3207981  45.3123723  99.6149391  20.0518840  46.2153294 100.5855379
  21.1872543  46.6419970 101.9970221  20.9290320  47.5637041 101.9954551
  20.6557583  46.2450405 102.6870685  26.1318731  59.7470757  94.7760306
  26.3055609  59.1817180  94.0234159  26.6247623  60.5471652  94.5939796
  11.9495691  51.7585426 102.8423865  11.4049159  52.5345234 102.9744139
  12.8275041  52.1056231 102.6842986  18.7383308  45.0897010  95.2204663
  18.8599219  44.1613657  95.4195551  18.4485350  45.1035696  94.3082979
  21.6074498  42.7751921  98.3571383  21.6296195  42.8391254  97.4023363
  22.0242557  41.9356429  98.5511889  31.9858123  52.5107180  96.3950606
  32.4289269  51.7614506  95.9969729  31.1084633  52.5017317  96.0124338
  27.1193904  59.0637522  91.8757204  27.8144809  59.6844214  92.0944519
  27.4617054  58.2132873  92.1509582  12.7361713  50.8855323 105.7354022
  11.9943449  51.0337958 106.3218652  12.4154457  51.1463588 104.8720771
  29.0185327  56.5137227  93.4044535  29.5436651  56.8524500  92.6793855
  28.9307680  55.5784243  93.2207670  20.6805376  60.4271301 105.5334412
  20.9892502  60.1820448 106.4057111  21.4780858  60.6317939 105.0453282
  20.7025988  62.5809211  97.7639788  20.2630978  62.0885589  98.4572645
  21.4534105  62.0382178  97.5231864  13.1818327  58.7720751  97.7664416
  14.0076347  58.4724523  97.3863060  12.8312379  58.0028374  98.2154205
  18.1499860  58.1247220  99.8362090  17.5279869  57.4617925  99.5364318
  18.8204727  58.1508352  99.1535738  11.3826932  56.6907078  98.7253350
  10.5458840  56.2629252  98.5437351  11.3550577  56.8839521  99.6624141
  28.7079233  57.1470131 108.7095733  27.9174777  57.1294270 108.1700233
  28.4712588  57.6858425 109.4644770  28.8277108  53.9962597 106.0228462
  28.8775113  53.8312605 106.9643984  28.7191031  53.1289856 105.6326342
  17.7113367  56.6751143  93.3120551  17.8601487  57.3586607  92.6587223
  18.5179810  56.6556233  93.8270006  26.1180871  49.9793525 107.3387768
  27.0190733  49.8399990 107.0471766  26.1928845  50.1447980 108.2785946
  20.4523676  47.3560380 106.1840955  19.5826985  47.6493946 105.9123543
  20.6883156  47.9400825 106.9048218  30.3295305  56.4159539 106.2670483
  30.0380113  56.7789519 107.1033944  29.7167436  55.7026547 106.0883815
  31.5290987  53.9812419  98.7873053  32.3637879  54.4202223  98.9510614
  31.6650116  53.5051072  97.9681299  28.5782493  51.5392154 104.7350541
  29.0536615  51.7319800 103.9269393  27.6548059  51.5951339 104.4893925
  15.4666000  52.7016321  94.3181619  15.2212042  51.7978651  94.5161830
  15.6361914  52.7033471  93.3761097  23.1562710  43.5739997 103.7006375
  23.6744654  44.3101024 103.3752864  22.8017842  43.8803990 104.5353134
  14.7361647  48.4344678  91.8167781  14.0430892  48.5089033  91.1607817
  14.4913399  47.6705022  92.3389298  23.4075304  39.9940280  99.2207272
  23.6877058  39.3263469  99.8467698  24.1925911  40.1869375  98.7081936
  21.2108772  59.1699273  90.7832298  20.6382739  59.7889461  90.3302770
  21.7841566  59.7198635  91.3172220  27.2784162  48.4157914 102.9678847
  28.2301585  48.5156011 102.9891071  27.1087613  47.6236182 103.4776931
  25.2998542  45.5013497 103.1538248  24.7048474  45.7818510 102.4584736
  25.0148238  45.9907398 103.9254989  24.4306032  59.4536424  91.9140880
  25.3636705  59.3881985  92.1173756  24.3429245  60.2892690  91.4555413
  27.0594049  58.7702294  88.8744828  26.9807680  58.4362158  89.7680586
  27.8803716  59.2624062  88.8736300  29.7572240  51.6364033 102.0821146
  29.7248560  50.6980034 102.2680830  30.3672864  51.7148070 101.3486971
  21.5955571  50.5060086  88.1248350  22.5414676  50.3766294  88.1936769
  21.2169816  49.7674748  88.6017779  29.9066728  48.4275077 102.1279430
  29.3905777  47.6433533 101.9409358  30.7906677  48.0993793 102.2925949
  27.5677455  42.1716092  98.0875242  27.3702277  41.8631180  98.9718574
  28.1777161  42.8977731  98.2173172  35.5748790  52.6980040 101.2227183
  36.3052178  52.4365328 101.7834887  34.9655735  51.9608762 101.2629251
  33.6564087  50.8387903 101.8201634  32.9297251  50.7043868 101.2118126
  33.2411374  51.1464731 102.6258352  21.4794263  54.5577832 109.5849007
  22.3997273  54.7356431 109.7789054  21.4443846  53.6133878 109.4328707
  19.7798488  48.4310063  88.0603236  18.8729943  48.1343175  88.1365949
  20.0574469  48.1339881  87.1937522  10.6976428  49.7516426  98.5102282
  10.3779213  48.8981734  98.2176656  10.1509857  49.9665004  99.2660249
  14.4756336  52.4678867 102.2271789  14.6942346  53.3995975 102.2459822
  14.8882110  52.1086841 103.0126592  21.3960554  42.9746952  94.2147477
  20.5861282  42.6294037  94.5902723  22.0844971  42.6654496  94.8035089
  23.3251102  42.0524999  95.8371774  23.8782141  42.4720453  96.4961797
  23.5621188  41.1260747  95.8794730  18.5497273  45.2896998  88.2015215
  19.4116437  45.6151896  88.4611032  18.7347617  44.5028494  87.6888281
  10.5664688  53.3719338 100.4795404   9.8728160  52.9573290  99.9665358
  11.3137679  53.4139874  99.8828823  26.7029909  44.1625524  95.3450438
  26.1228578  44.8210328  94.9628490  26.4365842  43.3402869  94.9337855
  25.1533475  43.5630582  97.5471758  25.6533254  43.6747117  96.7386077
  25.7969083  43.2591635  98.1872567  19.2115471  51.4709212 110.4339599
  18.7282553  52.2709572 110.6403488  19.2976410  51.4817157 109.4807043
  12.4801431  53.3037591  98.3561419  12.4572119  53.4025279  97.4043302
  12.7902067  54.1502742  98.6778585  15.1388809  55.3613746 102.4708033
  16.0932062  55.3297689 102.4037965  14.9401332  54.9004370 103.2858259
  15.7288191  53.9314862 105.0378831  16.5481080  54.4258941 105.0613668
  16.0024999  53.0146831 105.0096398  25.4854787  46.3225615  94.4006786
  24.5980642  46.6075265  94.1826981  25.9008776  46.1619378  93.5534063
  28.8369323  46.3472136  98.1161125  29.6129713  46.8368588  98.3885742
  28.1117457  46.7730190  98.5732995  31.2741882  47.0599755  99.1735066
  31.8686373  46.8195491  98.4628374  31.3468466  46.3406885  99.8008602
  13.4939038  60.9033366  99.4878231  13.3593506  60.1433767  98.9216229
  13.0771100  61.6274266  99.0207020  24.6298001  56.0870289  88.4954806
  25.3333851  56.2920292  89.1112462  23.9060649  56.6547051  88.7603890
  25.4595811  51.8380151  94.6157076  25.4031012  52.2948702  93.7764709
  26.0124153  51.0770835  94.4379919  29.2700617  47.6269883  95.4407196
  29.0137551  47.2266518  96.2715404  28.6453485  48.3413676  95.3157335
  33.5812955  50.3665956  97.9478487  33.0212513  50.4359145  98.7210049
  32.9756458  50.1906940  97.2277983  16.6508163  61.8002683  99.6996674
  16.5340548  62.7448115  99.5975364  15.8300610  61.4976244 100.0882473
  26.5384698  56.5252819  90.5453266  27.3730302  56.0934017  90.3630741
  26.3769041  56.3534832  91.4730161  26.1930590  53.0284932  91.9109606
  26.1379394  52.8629203  90.9698050  25.5676645  53.7360965  92.0671795
  23.5076497  55.3333844 111.2363168  24.3767657  55.5074496 110.8749803
  23.0283249  56.1528261 111.1138898  19.5026716  42.5293041  91.4894924
  19.4905385  43.4734881  91.6463195  20.3950138  42.3463186  91.1954385
  17.6762678  62.4530945 102.9152602  18.5789924  62.4854555 103.2319097
  17.4500048  61.5231396 102.9298938  19.4316280  61.2061931  99.5762681
  18.4811911  61.2063793  99.4627053  19.7348766  60.4594666  99.0598715
  23.3178835  39.1235818  95.7440861  22.5511231  38.5694304  95.8897543
  23.7289540  39.1957686  96.6055012  35.1668973  67.0422470 100.6408443
  35.8047383  66.9229217  99.9371783  35.0489816  67.9903314 100.6996395
  31.9758679  66.9949898 100.5769968  31.6377191  66.8790962  99.6890503
  32.8448448  66.5941063 100.5570974  27.8345495  68.8485374  96.5666859
  27.2710360  68.7575311  95.7983146  27.7197890  68.0285279  97.0469351
  32.4578462  68.1484750 106.5356173  32.4467103  67.7537548 105.6636677
  32.6199102  67.4150822 107.1289945  25.3809927  70.3436566  99.4051079
  26.1731219  70.0027390  98.9897378  25.6206577  70.4531541 100.3253232
  33.4145054  72.5156342  91.8781324  32.7633034  73.1010422  91.4915337
  34.2089417  73.0462537  91.9376361  27.3400681  69.6045479  92.2768458
  28.1131557  69.0574466  92.1381334  27.6926080  70.4689728  92.4882919
  29.1785724  70.9321861 105.4835357  28.8875589  71.8367492 105.3682023
  29.8142708  70.9738389 106.1979427  30.1041930  68.3098710 102.0736717
  30.7005503  68.0854732 101.3593680  30.1616902  67.5683455 102.6762165
  29.6766959  65.7638145  89.9086908  29.9292479  65.2419666  89.1470371
  28.7391518  65.6004291  90.0113591  34.7210242  64.7673924  97.7161651
  35.5073331  64.3493347  97.3652068  34.9848946  65.6720016  97.8843299
  34.8920319  70.2046774  92.4150308  34.2566152  70.2781400  93.1271212
  34.5617725  70.7940373  91.7369387  40.1218669  64.7049157  98.6194630
  40.8543841  64.1348374  98.8532459  39.3658024  64.3170757  99.0601135
  29.3963247  67.6666251  92.1111283  29.2799506  66.9911155  92.7792367
  29.5065507  67.1798625  91.2943436  31.7394788  67.1276398  95.8157972
  31.3752996  66.6007019  96.5270893  32.5961904  66.7374867  95.6424457
  37.6444089  58.4170731 103.0789238  37.3127414  59.2866142 102.8550453
  37.0489702  58.1007015 103.7583269  31.3800275  62.1566298  90.8119320
  31.5474678  63.0246534  91.1789792  31.1897444  62.3193580  89.8880610
  34.1375609  70.6183277 102.4785151  33.8376332  71.5208316 102.3700958
  33.7926668  70.3515460 103.3306304  27.5888090  67.0697074  98.5121855
  26.6638587  66.9373288  98.7199547  27.8372503  67.8491293  99.0091798
  37.5372752  63.1365817 100.1582588  36.6289630  63.0681225  99.8641349
  37.4860348  63.6137762 100.9864414  31.3589496  64.6123955  91.7965987
  31.2389121  65.0581006  92.6351468  30.6642085  64.9609273  91.2379525
  24.9496901  66.7130347  99.3465644  25.0789282  66.9664826 100.2605056
  24.2694352  67.3058055  99.0270299  29.1196388  77.3827597  95.4456119
  29.0420418  78.3335422  95.5244599  28.5158032  77.0373470  96.1031045
  31.6113618  64.5555463 108.1017485  30.8346952  65.1149383 108.0920350
  32.2504181  65.0412246 108.6232356  39.4034399  61.3382255 101.9360462
  38.7608779  61.6314789 101.2900257  38.8989327  61.2235176 102.7413659
  37.0574562  65.0845429  92.6246321  37.9692419  65.3172815  92.4494019
  36.5484210  65.6682473  92.0621400  29.8659990  67.3640916 107.6635452
  30.6074675  67.9025960 107.3870276  29.1596976  67.9907205 107.8207004
  35.3415330  69.5070056 106.2607614  35.7498686  69.0652467 105.5162246
  34.6192592  68.9322684 106.5141807  31.6946400  64.4442663 103.6341171
  32.5407595  64.8682077 103.7775820  31.6345038  63.7876288 104.3279734
  35.6644145  70.0671247 100.0159903  35.0353007  70.2316961  99.3135971
  35.2769807  70.4812857 100.7870867  39.5433377  71.0025685  97.3704267
  38.8584415  71.3824586  96.8201300  39.6277226  71.6121012  98.1036214
  34.8445845  62.1047032 105.2922345  34.6006777  62.8589092 104.7556620
  35.1205776  62.4832379 106.1269592  36.7984308  68.6485644 103.9699610
  37.0101203  69.2917404 103.2933991  36.7514057  67.8147960 103.5021540
  34.4010537  61.2603465 100.8736182  33.5395016  61.5584718 101.1652920
  34.4272972  61.4773863  99.9417215  31.2172107  69.8045655  97.2809988
  31.6810452  70.0833358  96.4914610  30.9528905  68.9029100  97.0983079
  28.1096188  69.3517137 100.2189751  28.6797545  69.7804405  99.5807236
  28.7004300  69.0699721 100.9173937  30.1540993  65.9268808  94.0899553
  30.8565036  66.3789851  94.5573479  29.8221621  65.2852626  94.7179446
  28.6021354  64.5180564 108.4650762  27.9720015  65.1996845 108.6986159
  28.4957442  64.4063646 107.5203901  23.8966327  64.1852360  99.3916687
  23.1065381  64.4409889  98.9156797  24.3877574  65.0000698  99.4968727
  37.9130136  71.5257599 102.1421967  38.7347580  71.1237787 101.8604649
  37.9092539  71.4225834 103.0938083  25.8481072  64.5496939  96.3500163
  25.0512235  64.6615634  96.8683659  25.6206664  64.8883592  95.4841054
  31.6786740  71.0741643 104.2982678  31.7431172  71.5362050 105.1340850
  30.9697664  70.4439008 104.4264988  22.1804030  64.4382851 101.8231677
  22.4312068  65.3229861 102.0889253  22.7163578  64.2587452 101.0506769
  46.0036129  67.8696348  98.4906939  45.2499838  67.3003746  98.3350943
  46.1383670  67.8359012  99.4377574  31.3934757  72.7409750  94.1661658
  31.2580432  73.5861286  94.5946506  31.9344570  72.9429028  93.4027592
  27.8802097  58.8201330 110.8276013  27.4869043  58.2667529 111.5023658
  28.6968237  59.1311908 111.2182531  24.8464155  70.2585188  94.7389583
  25.3588675  71.0528438  94.8895148  25.4986868  69.5611479  94.6723185
  26.6559039  73.3750944  96.8212337  26.8325668  74.2968909  96.6333320
  27.4515873  73.0609364  97.2506716  30.7970058  60.2359209 108.4196270
  31.5379771  60.8366362 108.3400733  31.0287981  59.4936847 107.8614313
  25.9411396  65.4215576 106.6974500  25.8264911  64.5200834 106.9981599
  25.0855914  65.6679273 106.3459316  33.0203234  73.3633317 108.2962000
  32.5767088  72.5769695 107.9782905  33.6820447  73.5512467 107.6305891
  27.7790355  74.8929118 102.8222679  28.3297780  74.7646182 102.0499673
  26.9401831  75.1924007 102.4717572  35.1184472  73.6436117 106.3243402
  35.1002947  74.4644998 105.8323671  36.0404392  73.5190192 106.5493543
  31.5757526  71.1580246 107.1666910  32.1085863  70.3968534 106.9366218
  31.0471607  70.8653898 107.9091064  34.7427221  56.2640312 102.6960552
  34.3991490  57.1541954 102.6199662  35.1106183  56.0741970 101.8330137
  22.8113071  68.5873842  95.5149154  23.6488293  68.9970851  95.2982862
  22.9891339  67.6473285  95.4849348  34.7077504  66.2548923  91.2032987
  34.1924127  67.0253528  91.4421374  34.4354812  65.5814059  91.8266048
  32.2924615  61.0998624  96.2618225  31.4366211  60.7105474  96.0823864
  32.7051566  61.1790585  95.4018011  33.8223761  58.6344967 100.6609785
  33.3188557  58.5975102  99.8477590  34.1154368  59.5437710 100.7206442
  30.0666647  58.7183697  99.6675967  30.9319644  58.5226506  99.3081856
  30.1344156  58.4894049 100.5945323  39.6811778  69.0081278  93.1386160
  38.9041220  68.6692437  92.6941322  40.3603259  69.0133901  92.4641125
  34.4963807  64.1276015  93.0292768  34.1913942  64.4422164  93.8802911
  35.4494249  64.2057435  93.0720101  32.9410239  70.2866239  94.6785722
  32.4131600  69.5518998  94.3658959  32.4397741  71.0640915  94.4325690
  37.9203085  68.4815259  99.7952768  37.2626759  69.1714520  99.8832897
  38.7243484  68.8711691 100.1386755  27.6728966  60.9485905  97.0392334
  28.2472718  60.7261086  96.3065526  28.2599949  61.0174599  97.7920935
  36.7308543  66.8359632  97.8456710  37.2440425  67.4689624  98.3478420
  37.3809767  66.2360827  97.4800070  27.9998553  62.9790366  91.0588219
  27.1635866  63.3165052  91.3797494  27.8603323  62.8439346  90.1215356
  29.9751634  57.8227154  95.7667403  29.3216046  57.5076171  95.1424018
  29.9332108  57.2002894  96.4927226  31.0862839  68.1046449  87.6820695
  30.1789901  67.8735702  87.8811844  31.5833871  67.3084068  87.8694677
  33.9930918  76.8143956  90.6017381  33.3192616  77.1175653  91.2102339
  34.3796740  77.6173036  90.2522838  33.2089374  64.3109087 100.0915051
  32.2911936  64.5324034  99.9336739  33.6249518  64.3855398  99.2326758
  33.9924422  65.7100503  95.2217731  34.7396241  66.2221900  94.9124853
  34.2616012  65.3884556  96.0822124  32.2651072  68.2059044  92.2044685
  31.3562291  67.9218076  92.3017155  32.2946156  68.6258122  91.3447992
  37.4970340  71.8165633  95.9735853  37.0432667  70.9756543  96.0301043
  36.8664306  72.4527032  96.3110633  36.4403259  62.7457619  97.2036520
  35.7026016  62.2335005  97.5346763  36.6930033  62.3058001  96.3919797
  35.9403279  73.6542130  96.9085671  36.2326253  74.2147187  96.1898036
  36.4501899  73.9470691  97.6638830  36.5414887  55.5233871  97.7978289
  36.8473763  54.6631235  97.5104204  37.2667491  56.1151491  97.5977283
  22.8339243  65.9264558  96.1859887  22.6363642  65.3333919  95.4610954
  22.2785907  65.6216768  96.9035826  30.8135966  65.8187664  98.3054480
  30.8684576  64.8661501  98.2296957  30.0027168  65.9747103  98.7895779
  31.9627160  69.7467787  89.5432764  31.5246590  69.0303646  89.0838401
  32.7037601  69.9743902  88.9817855  28.7528326  64.4364724  96.0644859
  27.9396192  64.7358895  96.4710051  29.2487320  64.0420413  96.7819342
  30.9036904  74.4322481  97.9979124  30.8613083  74.6583327  97.0687656
  31.8199603  74.1985856  98.1464925  34.3502538  64.9006548 104.8959753
  34.7051926  65.1278022 105.7554219  34.9974669  65.2324925 104.2737009
  40.0800275  68.0224984  95.6009082  39.9418173  68.2126580  94.6730271
  39.7236494  68.7844367  96.0577133  28.2442401  62.0083080 101.6806094
  28.8841780  61.8671839 100.9829058  27.4119931  61.7217593 101.3044696
  40.1069654  70.0901511 100.6120354  40.5406161  69.9976800 101.4603408
  40.8201235  70.0659012  99.9740370  29.0202705  71.3085510  97.7941087
  29.8143303  70.8135830  97.5923662  28.3094397  70.7803373  97.4308792
  33.8397549  73.6903606 102.1453454  33.8934572  74.2594542 102.9131170
  32.9712331  73.8605491 101.7807492  25.3285468  65.4528592  93.8700839
  24.3983056  65.3913047  94.0870802  25.4242940  64.9304544  93.0737481
  25.2471017  61.9783405  96.4579081  25.5077835  62.8928738  96.3488242
  26.0688190  61.5107847  96.6075694  26.7195943  63.3921162 103.6277906
  27.3918996  63.1838524 102.9790555  25.8925729  63.1943248 103.1883138
  40.9685204  70.1325212 103.1453239  41.1621094  71.0371023 103.3912514
  40.8685822  69.6732631 103.9791824  32.6221515  60.0183103 105.6443567
  31.9749430  60.7173052 105.5508043  33.3922530  60.4519247 106.0119815
  36.0300313  70.2831955 108.7194120  35.8785819  70.0542506 107.8024203
  36.0204992  71.2402556 108.7325465  32.7985649  67.8563868 103.7040386
  33.7277709  68.0075027 103.5309354  32.3776679  67.9447888 102.8489033
  31.5973981  71.8814532 101.4738924  31.4585067  71.5133316 102.3464862
  30.8088577  72.3962171 101.3022882  32.1922133  76.9823628  92.8164460
  32.3673889  76.5111672  93.6310083  31.5054921  77.6089395  93.0445721
  33.1479196  71.2596135  98.8627762  32.8129029  71.2196905  99.7585412
  32.6483142  70.5940851  98.3898172  27.1223440  66.6663765 104.3880343
  26.9843238  65.9344004 104.9891882  28.0328363  66.5772665 104.1064531
  36.0838388  68.6052169  89.1364821  35.4667558  67.8798997  89.0397874
  35.6154876  69.3661529  88.7931896  29.7505741  66.3783724 103.8764022
  30.4605359  65.7376916 103.8350641  29.7075049  66.6296619 104.7990203
  37.7392519  73.3151077 106.7970602  37.6805065  72.6310297 106.1301185
  38.1412038  74.0570067 106.3451228  28.4634675  63.3648942 105.6959662
  27.9272032  62.9139680 106.3481258  27.8751383  63.4994851 104.9530126
  26.7583218  80.1312991  99.5904321  26.9979816  80.7631515 100.2683339
  25.9152415  79.7801031  99.8769680  27.8736934  62.8237593  88.2586126
  26.9966400  62.7026394  87.8948372  28.3494687  62.0323672  88.0065014
  37.7409927  71.2790661 105.0284581  36.8536705  70.9416583 105.1510980
  38.3108478  70.5473693 105.2653347  19.3939074  67.6114753  98.3527633
  20.0810114  67.2976483  97.7648648  19.2387202  68.5156118  98.0794884
  24.1973796  62.5004950 102.7812656  24.1131985  61.8930619 102.0463066
  23.3756502  62.9913968 102.7822153  31.2711080  75.9392114 101.9945825
  31.1981251  76.7447085 102.5065129  30.8288473  76.1384079 101.1693846
  31.0600860  75.1763884  95.5048646  30.2768381  75.7185564  95.5986871
  31.7593605  75.6937863  95.9042887  34.3697510  60.9858513  98.1482851
  34.8666209  60.2328475  97.8283922  33.5984491  61.0222830  97.5826061
  42.2227267  66.6898879  99.7901143  42.2117143  67.5723594  99.4195076
  41.3544647  66.3370429  99.5955680  33.7309763  75.8378948 104.1503983
  34.4437736  76.4726412 104.0779885  33.2399792  75.9342814 103.3343985
  35.4527290  69.7430200  95.7221275  34.5183569  69.8631663  95.5525979
  35.6303959  68.8402667  95.4581285  30.9532478  63.1275896  97.8754536
  30.5830266  62.5746936  98.5635442  31.4491571  62.5234030  97.3229536
  38.8399842  65.5847520  96.2571309  39.3060294  66.4175511  96.1831612
  39.2907342  65.1192501  96.9616567  28.7821677  73.5873391 104.9709554
  29.4831137  74.2209874 105.1238948  28.3116792  73.9288123 104.2105193
  36.9076073  71.9291341  93.2557461  37.1835917  71.8147935  94.1651335
  36.0380572  71.5308826  93.2169634  36.8116504  57.9528107 100.2962210
  35.8979584  58.1832333 100.4644417  37.2409606  58.0366551 101.1476243
  36.5822963  66.1417999 102.7962104  35.9294413  66.3893906 102.1414557
  36.9603343  65.3282137 102.4624582  33.5430137  76.1777692  96.8990275
  33.7252531  75.3599348  97.3618027  34.3663123  76.3945384  96.4615165
  33.8772302  75.1045877  94.1605323  34.4060069  74.5938331  93.5475485
  34.1400522  74.7888407  95.0250856  32.6310536  66.8837810 109.2828141
  31.9551173  66.7831939 109.9530517  33.4538170  66.7277023 109.7464139
  24.3789395  73.1209746 101.9040657  24.9642832  72.3753434 102.0368561
  24.1814234  73.4313703 102.7877321  27.2328050  76.1560994  96.9203099
  26.5638426  76.6407121  96.4367139  27.0940920  76.4030214  97.8346478
  18.9707050  65.6915346 100.6245100  19.0091149  65.1578937 101.4182218
  18.4647343  65.1650552 100.0056077  31.3733319  78.1904737 103.5185757
  31.9251627  78.3536359 104.2834843  31.7139512  78.7809175 102.8465782
  26.3497812  60.5379887 104.1207642  26.4139139  61.3994718 103.7085040
  26.2864932  59.9253889 103.3880001  25.8250085  62.6103019 107.7680676
  26.4522123  62.2280097 108.3818201  24.9678004  62.3917221 108.1336369
  36.2244193  73.0165995 109.3734412  36.7684097  73.6295953 108.8789367
  35.6431038  73.5745573 109.8901425  22.6015627  64.4179449  93.6999031
  22.8969068  63.5090127  93.6466085  21.7003663  64.3967188  93.3780034
  34.5101706  76.1386713 100.5049440  34.3852846  75.3376452  99.9960385
  35.1680797  76.6332906 100.0163410  26.1309874  62.4935445  99.6826580
  25.4096460  63.1071413  99.5434053  26.9203130  63.0293210  99.6043226
  36.5736615  73.9395733 102.1328990  35.6266950  73.8201084 102.0607316
  36.9219388  73.0518231 102.2155251  28.9336188  59.8289872 105.9567232
  29.4570590  60.0752168 106.7193541  28.7148521  60.6609906 105.5370369
  24.3303469  62.0993546  93.8238356  24.0016175  61.2190925  93.6413462
  24.6842840  62.0441215  94.7114746  33.5783048  73.7348449  98.3333342
  33.4308010  72.8065156  98.5140912  34.4036541  73.7568540  97.8490417
  27.4445292  62.3866516  94.1913834  27.7841365  62.9152437  93.4692442
  27.8917413  62.7246922  94.9672401  37.1817170  74.5577008  99.4198215
  38.1063717  74.3519869  99.2822666  37.0132473  74.3093409 100.3287556
  30.1388733  60.7703567 103.6416902  29.7985553  59.9711380 104.0437582
  29.4327739  61.0705278 103.0693735  30.7905205  57.8552879 102.0944225
  31.6131274  57.3813357 101.9723115  31.0343268  58.6343363 102.5942911
  29.4313439  60.8841138  92.3907127  30.1521802  61.2622390  91.8870844
  28.8078743  61.6030014  92.4942105  33.5744562  61.5886287  93.3265459
  33.7908177  62.4710924  93.0254287  33.0938629  61.1972500  92.5971101
  28.3143784  64.5472000  99.9036204  28.1688364  64.8612303 100.7960485
  27.8368987  65.1656900  99.3507102  30.1740166  61.5374548  99.9517093
  30.1601735  60.6415641  99.6149391  30.8912595  61.5445212 100.5855379
  32.0266297  61.9711888 101.9970221  31.7684075  62.8928959 101.9954551
  31.4951338  61.5742323 102.6870685  36.9712486  75.0762675  94.7760306
  37.1449363  74.5109098  94.0234159  37.4641377  75.8763570  94.5939796
  22.7889446  67.0877344 102.8423865  22.2442914  67.8637152 102.9744139
  23.6668796  67.4348149 102.6842986  29.5777062  60.4188928  95.2204663
  29.6992974  59.4905574  95.4195551  29.2879105  60.4327614  94.3082979
  32.4468253  58.1043838  98.3571383  32.4689950  58.1683172  97.4023363
  32.8636312  57.2648347  98.5511889  42.8251877  67.8399098  96.3950606
  43.2683023  67.0906423  95.9969729  41.9478387  67.8309234  96.0124338
  37.9587658  74.3929440  91.8757204  38.6538563  75.0136132  92.0944519
  38.3010809  73.5424791  92.1509582  23.5755468  66.2147240 105.7354022
  22.8337204  66.3629876 106.3218652  23.2548212  66.4755506 104.8720771
  39.8579082  71.8429145  93.4044535  40.3830406  72.1816418  92.6793855
  39.7701434  70.9076160  93.2207670  31.5199130  75.7563219 105.5334412
  31.8286257  75.5112365 106.4057111  32.3174612  75.9609857 105.0453282
  31.5419742  77.9101128  97.7639788  31.1024733  77.4177507  98.4572645
  32.2927859  77.3674096  97.5231864  24.0212081  74.1012669  97.7664416
  24.8470101  73.8016441  97.3863060  23.6706133  73.3320292  98.2154205
  28.9893614  73.4539137  99.8362090  28.3673624  72.7909842  99.5364318
  29.6598481  73.4800269  99.1535738  22.2220686  72.0198996  98.7253350
  21.3852595  71.5921170  98.5437351  22.1944332  72.2131439  99.6624141
  29.0618142  61.9320925 109.4294596  29.1106297  62.8083048 109.0472366
  29.6040656  61.3898318 108.8566239  39.5472988  72.4762049 108.7095733
  38.7568531  72.4586188 108.1700233  39.3106342  73.0150342 109.4644770
  39.6670863  69.3254515 106.0228462  39.7168868  69.1604522 106.9643984
  39.5584786  68.4581774 105.6326342  28.5507121  72.0043061  93.3120551
  28.6995242  72.6878525  92.6587223  29.3573565  71.9848151  93.8270006
  36.9574625  65.3085443 107.3387768  37.8584488  65.1691908 107.0471766
  37.0322600  65.4739898 108.2785946  31.2917430  62.6852298 106.1840955
  30.4220740  62.9785864 105.9123543  31.5276911  63.2692743 106.9048218
  41.1689059  71.7451457 106.2670483  40.8773868  72.1081437 107.1033944
  40.5561191  71.0318465 106.0883815  42.3684742  69.3104336  98.7873053
  43.2031633  69.7494140  98.9510614  42.5043871  68.8342990  97.9681299
  39.4176248  66.8684071 104.7350541  39.8930369  67.0611717 103.9269393
  38.4941813  66.9243257 104.4893925  26.3059754  68.0308238  94.3181619
  26.0605796  67.1270568  94.5161830  26.4755669  68.0325389  93.3761097
  33.9956464  58.9031915 103.7006375  34.5138408  59.6392942 103.3752864
  33.6411597  59.2095908 104.5353134  25.5755402  63.7636596  91.8167781
  24.8824647  63.8380951  91.1607817  25.3307154  62.9996940  92.3389298
  34.2469058  55.3232197  99.2207272  34.5270812  54.6555386  99.8467698
  35.0319665  55.5161293  98.7081936  32.0502527  74.4991191  90.7832298
  31.4776494  75.1181378  90.3302770  32.6235321  75.0490553  91.3172220
  38.1177917  63.7449831 102.9678847  39.0695340  63.8447929 102.9891071
  37.9481367  62.9528100 103.4776931  36.1392296  60.8305414 103.1538248
  35.5442228  61.1110427 102.4584736  35.8541993  61.3199315 103.9254989
  35.2699787  74.7828341  91.9140880  36.2030460  74.7173903  92.1173756
  35.1822999  75.6184608  91.4555413  37.8987803  74.0994212  88.8744828
  37.8201435  73.7654075  89.7680586  38.7197470  74.5915980  88.8736300
  40.5965994  66.9655951 102.0821146  40.5642315  66.0271952 102.2680830
  41.2066618  67.0439988 101.3486971  32.4349325  65.8352004  88.1248350
  33.3808430  65.7058212  88.1936769  32.0563570  65.0966666  88.6017779
  40.7460483  63.7566994 102.1279430  40.2299532  62.9725451 101.9409358
  41.6300431  63.4285711 102.2925949  38.4071210  57.5008010  98.0875242
  38.2096031  57.1923098  98.9718574  39.0170915  58.2269649  98.2173172
  46.4142544  68.0271958 101.2227183  47.1445933  67.7657246 101.7834887
  45.8049490  67.2900680 101.2629251  44.4957841  66.1679820 101.8201634
  43.7691005  66.0335785 101.2118126  44.0805128  66.4756649 102.6258352
  32.3188018  69.8869750 109.5849007  33.2391027  70.0648349 109.7789054
  32.2837601  68.9425795 109.4328707  30.6192242  63.7601980  88.0603236
  29.7123698  63.4635093  88.1365949  30.8968224  63.4631798  87.1937522
  21.5370183  65.0808344  98.5102282  21.2172967  64.2273652  98.2176656
  20.9903611  65.2956922  99.2660249  25.3150090  67.7970785 102.2271789
  25.5336100  68.7287893 102.2459822  25.7275864  67.4378759 103.0126592
  32.2354308  58.3038870  94.2147477  31.4255037  57.9585955  94.5902723
  32.9238725  57.9946414  94.8035089  34.1644857  57.3816917  95.8371774
  34.7175895  57.8012370  96.4961797  34.4014943  56.4552665  95.8794730
  30.1877956  63.3703990 111.6174538  30.0874683  64.3198347 111.5486629
  29.9699498  63.0422229 110.7450608  29.3891027  60.6188916  88.2015215
  30.2510191  60.9443814  88.4611032  29.5741371  59.8320411  87.6888281
  21.4058443  68.7011255 100.4795404  20.7121914  68.2865208  99.9665358
  22.1531434  68.7431792  99.8828823  37.5423664  59.4917442  95.3450438
  36.9622333  60.1502246  94.9628490  37.2759596  58.6694787  94.9337855
  35.9927230  58.8922500  97.5471758  36.4927008  59.0039034  96.7386077
  36.6362838  58.5883553  98.1872567  30.0509226  66.8001129 110.4339599
  29.5676307  67.6001489 110.6403488  30.1370165  66.8109074 109.4807043
  23.3195185  68.6329509  98.3561419  23.2965874  68.7317196  97.4043302
  23.6295822  69.4794660  98.6778585  25.9782563  70.6905664 102.4708033
  26.9325817  70.6589606 102.4037965  25.7795087  70.2296288 103.2858259
  26.5681945  69.2606780 105.0378831  27.3874834  69.7550859 105.0613668
  26.8418753  68.3438748 105.0096398  36.3248542  61.6517532  94.4006786
  35.4374397  61.9367183  94.1826981  36.7402531  61.4911296  93.5534063
  39.6763078  61.6764053  98.1161125  40.4523468  62.1660506  98.3885742
  38.9511212  62.1022108  98.5732995  42.1135636  62.3891673  99.1735066
  42.7080127  62.1487409  98.4628374  42.1862220  61.6698803  99.8008602
  24.3332792  76.2325284  99.4878231  24.1987260  75.4725684  98.9216229
  23.9164854  76.9566183  99.0207020  35.4691755  71.4162207  88.4954806
  36.1727605  71.6212210  89.1112462  34.7454404  71.9838969  88.7603890
  36.2989565  67.1672068  94.6157076  36.2424767  67.6240620  93.7764709
  36.8517908  66.4062753  94.4379919  40.1094371  62.9561800  95.4407196
  39.8531306  62.5558436  96.2715404  39.4847239  63.6705594  95.3157335
  44.4206709  65.6957873  97.9478487  43.8606267  65.7651063  98.7210049
  43.8150212  65.5198858  97.2277983  27.4901918  77.1294601  99.6996674
  27.3734302  78.0740033  99.5975364  26.6694364  76.8268162 100.0882473
  37.3778452  71.8544736  90.5453266  38.2124056  71.4225935  90.3630741
  37.2162795  71.6826750  91.4730161  37.0324345  68.3576850  91.9109606
  36.9773148  68.1921121  90.9698050  36.4070400  69.0652882  92.0671795
  21.8216860  63.5944914 105.7371028  22.4675723  63.0843868 106.2258253
  21.6134011  64.3313596 106.3114453  34.3470252  70.6625761 111.2363168
  35.2161411  70.8366414 110.8749803  33.8677003  71.4820178 111.1138898
  30.3420470  57.8584959  91.4894924  30.3299140  58.8026798  91.6463195
  31.2343892  57.6755104  91.1954385  28.5156432  77.7822862 102.9152602
  29.4183679  77.8146473 103.2319097  28.2893802  76.8523313 102.9298938
  30.2710034  76.5353849  99.5762681  29.3205665  76.5355711  99.4627053
  30.5742520  75.7886584  99.0598715  34.1572590  54.4527735  95.7440861
  33.3904985  53.8986222  95.8897543  34.5683295  54.5249604  96.6055012
  26.1614351  60.7412531 109.8346042  27.0245812  60.3849336 110.0449367
  25.5879761  60.4026426 110.5221446  46.0062728  82.3714387 100.6408443
  46.6441138  82.2521135  99.9371783  45.8883570  83.3195231 100.6996395
  42.8152434  82.3241815 100.5769968  42.4770945  82.2082880  99.6890503
  43.6842202  81.9232981 100.5570974  38.6739250  84.1777292  96.5666859
  38.1104115  84.0867229  95.7983146  38.5591645  83.3577196  97.0469351
  43.2972217  83.4776667 106.5356173  43.2860858  83.0829465 105.6636677
  43.4592856  82.7442740 107.1289945  36.2203681  85.6728483  99.4051079
  37.0124973  85.3319308  98.9897378  36.4600332  85.7823459 100.3253232
  44.2538808  87.8448260  91.8781324  43.6026788  88.4302340  91.4915337
  45.0483171  88.3754454  91.9376361  38.1794435  84.9337397  92.2768458
  38.9525311  84.3866384  92.1381334  38.5319834  85.7981646  92.4882919
  40.0179478  86.2613779 105.4835357  39.7269344  87.1659410 105.3682023
  40.6536462  86.3030307 106.1979427  40.9435685  83.6390628 102.0736717
  41.5399257  83.4146650 101.3593680  41.0010656  82.8975373 102.6762165
  40.5160713  81.0930063  89.9086908  40.7686234  80.5711584  89.1470371
  39.5785272  80.9296208  90.0113591  45.5603996  80.0965841  97.7161651
  46.3467085  79.6785264  97.3652068  45.8242700  81.0011933  97.8843299
  45.7314073  85.5338692  92.4150308  45.0959906  85.6073318  93.1271212
  45.4011480  86.1232290  91.7369387  50.9612423  80.0341074  98.6194630
  51.6937595  79.4640291  98.8532459  50.2051779  79.6462675  99.0601135
  40.2357002  82.9958169  92.1111283  40.1193260  82.3203072  92.7792367
  40.3459262  82.5090543  91.2943436  42.5788543  82.4568316  95.8157972
  42.2146750  81.9298937  96.5270893  43.4355659  82.0666785  95.6424457
  48.4837844  73.7462649 103.0789238  48.1521168  74.6158059 102.8550453
  47.8883457  73.4298933 103.7583269  42.2194030  77.4858216  90.8119320
  42.3868432  78.3538452  91.1789792  42.0291199  77.6485497  89.8880610
  44.9769363  85.9475195 102.4785151  44.6770086  86.8500233 102.3700958
  44.6320423  85.6807378 103.3306304  38.4281845  82.3988991  98.5121855
  37.5032341  82.2665205  98.7199547  38.6766258  83.1783211  99.0091798
  48.3766507  78.4657735 100.1582588  47.4683384  78.3973143  99.8641349
  48.3254103  78.9429680 100.9864414  42.1983251  79.9415873  91.7965987
  42.0782876  80.3872924  92.6351468  41.5035839  80.2901191  91.2379525
  35.7890656  82.0422265  99.3465644  35.9183037  82.2956744 100.2605056
  35.1088107  82.6349973  99.0270299  39.9590143  92.7119515  95.4456119
  39.8814173  93.6627340  95.5244599  39.3551786  92.3665387  96.1031045
  42.4507373  79.8847380 108.1017485  41.6740707  80.4441300 108.0920350
  43.0897936  80.3704163 108.6232356  50.2428153  76.6674173 101.9360462
  49.6002534  76.9606706 101.2900257  49.7383082  76.5527093 102.7413659
  47.8968317  80.4137346  92.6246321  48.8086173  80.6464733  92.4494019
  47.3877964  80.9974390  92.0621400  40.7053745  82.6932834 107.6635452
  41.4468429  83.2317878 107.3870276  39.9990730  83.3199122 107.8207004
  46.1809085  84.8361974 106.2607614  46.5892441  84.3944385 105.5162246
  45.4586346  84.2614602 106.5141807  42.5340155  79.7734581 103.6341171
  43.3801350  80.1973994 103.7775820  42.4738792  79.1168205 104.3279734
  46.5037899  85.3963165 100.0159903  45.8746762  85.5608879  99.3135971
  46.1163561  85.8104774 100.7870867  50.3827131  86.3317603  97.3704267
  49.6978169  86.7116504  96.8201300  50.4670980  86.9412929  98.1036214
  45.6839600  77.4338949 105.2922345  45.4400532  78.1881010 104.7556620
  45.9599530  77.8124297 106.1269592  47.6378063  83.9777562 103.9699610
  47.8494958  84.6209322 103.2933991  47.5907811  83.1439878 103.5021540
  45.2404292  76.5895382 100.8736182  44.3788771  76.8876636 101.1652920
  45.2666726  76.8065781  99.9417215  42.0565861  85.1337573  97.2809988
  42.5204207  85.4125276  96.4914610  41.7922659  84.2321017  97.0983079
  38.9489942  84.6809054 100.2189751  39.5191299  85.1096323  99.5807236
  39.5398054  84.3991639 100.9173937  40.9934747  81.2560725  94.0899553
  41.6958791  81.7081769  94.5573479  40.6615376  80.6144544  94.7179446
  39.4415109  79.8472482 108.4650762  38.8113769  80.5288763 108.6986159
  39.3351197  79.7355563 107.5203901  34.7360081  79.5144278  99.3916687
  33.9459135  79.7701806  98.9156797  35.2271329  80.3292616  99.4968727
  48.7523891  86.8549517 102.1421967  49.5741334  86.4529704 101.8604649
  48.7486294  86.7517751 103.0938083  36.6874827  79.8788857  96.3500163
  35.8905990  79.9907551  96.8683659  36.4600419  80.2175509  95.4841054
  42.5180494  86.4033560 104.2982678  42.5824927  86.8653968 105.1340850
  41.8091418  85.7730925 104.4264988  33.0197784  79.7674768 101.8231677
  33.2705823  80.6521778 102.0889253  33.5557333  79.5879370 101.0506769
  56.8429884  83.1988266  98.4906939  56.0893592  82.6295664  98.3350943
  56.9777425  83.1650930  99.4377574  42.2328512  88.0701668  94.1661658
  42.0974187  88.9153204  94.5946506  42.7738324  88.2720945  93.4027592
  38.7195851  74.1493248 110.8276013  38.3262797  73.5959446 111.5023658
  39.5361992  74.4603826 111.2182531  35.6857909  85.5877106  94.7389583
  36.1982430  86.3820356  94.8895148  36.3380622  84.8903396  94.6723185
  37.4952794  88.7042862  96.8212337  37.6719422  89.6260827  96.6333320
  38.2909627  88.3901281  97.2506716  41.6363812  75.5651127 108.4196270
  42.3773526  76.1658280 108.3400733  41.8681735  74.8228765 107.8614313
  36.7805150  80.7507494 106.6974500  36.6658666  79.8492751 106.9981599
  35.9249668  80.9971191 106.3459316  43.8596988  88.6925234 108.2962000
  43.4160842  87.9061613 107.9782905  44.5214202  88.8804385 107.6305891
  38.6184109  90.2221036 102.8222679  39.1691534  90.0938099 102.0499673
  37.7795585  90.5215925 102.4717572  45.9578226  88.9728034 106.3243402
  45.9396702  89.7936915 105.8323671  46.8798146  88.8482109 106.5493543
  42.4151280  86.4872164 107.1666910  42.9479617  85.7260452 106.9366218
  41.8865361  86.1945816 107.9091064  45.5820975  71.5932230 102.6960552
  45.2385245  72.4833871 102.6199662  45.9499938  71.4033887 101.8330137
  33.6506826  83.9165760  95.5149154  34.4882048  84.3262769  95.2982862
  33.8285094  82.9765202  95.4849348  45.5471258  81.5840841  91.2032987
  45.0317882  82.3545445  91.4421374  45.2748567  80.9105977  91.8266048
  43.1318369  76.4290542  96.2618225  42.2759965  76.0397392  96.0823864
  43.5445321  76.5082502  95.4018011  44.6617516  73.9636885 100.6609785
  44.1582311  73.9267020  99.8477590  44.9548123  74.8729628 100.7206442
  40.9060402  74.0475615  99.6675967  41.7713398  73.8518423  99.3081856
  40.9737911  73.8185966 100.5945323  50.5205532  84.3373195  93.1386160
  49.7434975  83.9984355  92.6941322  51.1997013  84.3425819  92.4641125
  45.3357561  79.4567933  93.0292768  45.0307697  79.7714082  93.8802911
  46.2888003  79.5349353  93.0720101  43.7803993  85.6158156  94.6785722
  43.2525355  84.8810916  94.3658959  43.2791496  86.3932833  94.4325690
  48.7596839  83.8107177  99.7952768  48.1020514  84.5006438  99.8832897
  49.5637238  84.2003609 100.1386755  38.5122721  76.2777823  97.0392334
  39.0866473  76.0553004  96.3065526  39.0993703  76.3466517  97.7920935
  47.5702298  82.1651549  97.8456710  48.0834180  82.7981541  98.3478420
  48.2203522  81.5652745  97.4800070  38.8392308  78.3082284  91.0588219
  38.0029620  78.6456970  91.3797494  38.6997077  78.1731263  90.1215356
  40.8145388  73.1519071  95.7667403  40.1609801  72.8368089  95.1424018
  40.7725863  72.5294812  96.4927226  41.9256593  83.4338366  87.6820695
  41.0183655  83.2027620  87.8811844  42.4227625  82.6375986  87.8694677
  44.8324672  92.1435874  90.6017381  44.1586371  92.4467570  91.2102339
  45.2190494  92.9464954  90.2522838  44.0483129  79.6401005 100.0915051
  43.1305690  79.8615952  99.9336739  44.4643272  79.7147315  99.2326758
  44.8318177  81.0392421  95.2217731  45.5789995  81.5513818  94.9124853
  45.1009766  80.7176473  96.0822124  43.1044827  83.5350961  92.2044685
  42.1956046  83.2509994  92.3017155  43.1339911  83.9550040  91.3447992
  48.3364094  87.1457551  95.9735853  47.8826421  86.3048461  96.0301043
  47.7058061  87.7818949  96.3110633  47.2797014  78.0749537  97.2036520
  46.5419770  77.5626923  97.5346763  47.5323787  77.6349918  96.3919797
  46.7797033  88.9834048  96.9085671  47.0720008  89.5439105  96.1898036
  47.2895654  89.2762609  97.6638830  47.3808641  70.8525789  97.7978289
  47.6867518  69.9923152  97.5104204  48.1061246  71.4443409  97.5977283
  33.6732997  81.2556475  96.1859887  33.4757397  80.6625836  95.4610954
  33.1179661  80.9508686  96.9035826  41.6529721  81.1479582  98.3054480
  41.7078331  80.1953418  98.2296957  40.8420923  81.3039021  98.7895779
  42.8020915  85.0759705  89.5432764  42.3640344  84.3595564  89.0838401
  43.5431355  85.3035820  88.9817855  39.5922081  79.7656642  96.0644859
  38.7789946  80.0650812  96.4710051  40.0881075  79.3712330  96.7819342
  41.7430659  89.7614399  97.9979124  41.7006837  89.9875245  97.0687656
  42.6593357  89.5277773  98.1464925  45.1896292  80.2298466 104.8959753
  45.5445680  80.4569939 105.7554219  45.8368424  80.5616843 104.2737009
  50.9194029  83.3516902  95.6009082  50.7811928  83.5418498  94.6730271
  50.5630248  84.1136285  96.0577133  39.0836155  77.3374997 101.6806094
  39.7235535  77.1963756 100.9829058  38.2513686  77.0509511 101.3044696
  50.9463409  85.4193429 100.6120354  51.3799916  85.3268718 101.4603408
  51.6594990  85.3950930  99.9740370  39.8596459  86.6377428  97.7941087
  40.6537058  86.1427748  97.5923662  39.1488152  86.1095291  97.4308792
  44.6791304  89.0195523 102.1453454  44.7328326  89.5886459 102.9131170
  43.8106085  89.1897408 101.7807492  36.1679223  80.7820509  93.8700839
  35.2376811  80.7204965  94.0870802  36.2636695  80.2596462  93.0737481
  36.0864772  77.3075322  96.4579081  36.3471589  78.2220655  96.3488242
  36.9081944  76.8399765  96.6075694  37.5589697  78.7213079 103.6277906
  38.2312751  78.5130442 102.9790555  36.7319484  78.5235165 103.1883138
  51.8078958  85.4617130 103.1453239  52.0014849  86.3662940 103.3912514
  51.7079577  85.0024549 103.9791824  43.4615269  75.3475020 105.6443567
  42.8143184  76.0464970 105.5508043  44.2316285  75.7811164 106.0119815
  46.8694067  85.6123872 108.7194120  46.7179574  85.3834424 107.8024203
  46.8598747  86.5694474 108.7325465  43.6379404  83.1855785 103.7040386
  44.5671464  83.3366945 103.5309354  43.2170434  83.2739806 102.8489033
  42.4367735  87.2106450 101.4738924  42.2978821  86.8425234 102.3464862
  41.6482332  87.7254089 101.3022882  43.0315887  92.3115546  92.8164460
  43.2067643  91.8403589  93.6310083  42.3448675  92.9381312  93.0445721
  43.9872950  86.5888052  98.8627762  43.6522783  86.5488822  99.7585412
  43.4876896  85.9232768  98.3898172  37.9617194  81.9955682 104.3880343
  37.8236992  81.2635921 104.9891882  38.8722118  81.9064582 104.1064531
  46.9232142  83.9344087  89.1364821  46.3061313  83.2090915  89.0397874
  46.4548631  84.6953447  88.7931896  40.5899495  81.7075642 103.8764022
  41.2999114  81.0668834 103.8350641  40.5468803  81.9588537 104.7990203
  48.5786274  88.6442995 106.7970602  48.5198820  87.9602215 106.1301185
  48.9805792  89.3861985 106.3451228  39.3028429  78.6940860 105.6959662
  38.7665786  78.2431598 106.3481258  38.7145138  78.8286768 104.9530126
  37.5976973  95.4604909  99.5904321  37.8373571  96.0923433 100.2683339
  36.7546169  95.1092949  99.8769680  38.7130688  78.1529511  88.2586126
  37.8360154  78.0318312  87.8948372  39.1888441  77.3615589  88.0065014
  48.5803681  86.6082579 105.0284581  47.6930460  86.2708501 105.1510980
  49.1502232  85.8765610 105.2653347  30.2332828  82.9406671  98.3527633
  30.9203868  82.6268401  97.7648648  30.0780957  83.8448035  98.0794884
  35.0367550  77.8296867 102.7812656  34.9525739  77.2222537 102.0463066
  34.2150257  78.3205886 102.7822153  42.1104834  91.2684031 101.9945825
  42.0375006  92.0739003 102.5065129  41.6682228  91.4675997 101.1693846
  41.8994614  90.5055801  95.5048646  41.1162136  91.0477482  95.5986871
  42.5987359  91.0229781  95.9042887  45.2091264  76.3150431  98.1482851
  45.7059964  75.5620393  97.8283922  44.4378246  76.3514747  97.5826061
  53.0621022  82.0190796  99.7901143  53.0510898  82.9015512  99.4195076
  52.1938401  81.6662347  99.5955680  44.5703518  91.1670865 104.1503983
  45.2831490  91.8018330 104.0779885  44.0793547  91.2634731 103.3343985
  46.2921045  85.0722118  95.7221275  45.3577324  85.1923580  95.5525979
  46.4697713  84.1694585  95.4581285  41.7926233  78.4567814  97.8754536
  41.4224020  77.9038854  98.5635442  42.2885325  77.8525947  97.3229536
  49.6793596  80.9139437  96.2571309  50.1454048  81.7467429  96.1831612
  50.1301097  80.4484419  96.9616567  39.6215432  88.9165309 104.9709554
  40.3224891  89.5501792 105.1238948  39.1510547  89.2580040 104.2105193
  47.7469827  87.2583259  93.2557461  48.0229671  87.1439853  94.1651335
  46.8774326  86.8600743  93.2169634  47.6510259  73.2820024 100.2962210
  46.7373339  73.5124251 100.4644417  48.0803360  73.3658468 101.1476243
  47.4216717  81.4709916 102.7962104  46.7688168  81.7185824 102.1414557
  47.7997097  80.6574054 102.4624582  44.3823891  91.5069609  96.8990275
  44.5646286  90.6891265  97.3618027  45.2056877  91.7237302  96.4615165
  44.7166057  90.4337795  94.1605323  45.2453823  89.9230249  93.5475485
  44.9794276  90.1180325  95.0250856  43.4704290  82.2129727 109.2828141
  42.7944928  82.1123857 109.9530517  44.2931924  82.0568941 109.7464139
  35.2183150  88.4501664 101.9040657  35.8036586  87.7045352 102.0368561
  35.0207988  88.7605621 102.7877321  38.0721805  91.4852911  96.9203099
  37.4032180  91.9699039  96.4367139  37.9334674  91.7322132  97.8346478
  29.8100804  81.0207264 100.6245100  29.8484904  80.4870855 101.4182218
  29.3041097  80.4942470 100.0056077  42.2127073  93.5196655 103.5185757
  42.7645381  93.6828276 104.2834843  42.5533267  94.1101093 102.8465782
  37.1891567  75.8671805 104.1207642  37.2532893  76.7286635 103.7085040
  37.1258687  75.2545806 103.3880001  36.6643839  77.9394937 107.7680676
  37.2915878  77.5572014 108.3818201  35.8071758  77.7209139 108.1336369
  47.0637948  88.3457912 109.3734412  47.6077852  88.9587871 108.8789367
  46.4824793  88.9037491 109.8901425  33.4409382  79.7471366  93.6999031
  33.7362823  78.8382045  93.6466085  32.5397418  79.7259106  93.3780034
  45.3495461  91.4678630 100.5049440  45.2246600  90.6668370  99.9960385
  46.0074552  91.9624824 100.0163410  36.9703629  77.8227363  99.6826580
  36.2490215  78.4363330  99.5434053  37.7596885  78.3585128  99.6043226
  47.4130369  89.2687650 102.1328990  46.4660705  89.1493002 102.0607316
  47.7613142  88.3810148 102.2155251  39.7729942  75.1581789 105.9567232
  40.2964344  75.4044086 106.7193541  39.5542276  75.9901824 105.5370369
  35.1697223  77.4285464  93.8238356  34.8409930  76.5482843  93.6413462
  35.5236594  77.3733133  94.7114746  44.4176802  89.0640367  98.3333342
  44.2701765  88.1357074  98.5140912  45.2430296  89.0860457  97.8490417
  38.2839047  77.7158434  94.1913834  38.6235119  78.2444355  93.4692442
  38.7311167  78.0538840  94.9672401  48.0210924  89.8868925  99.4198215
  48.9457472  89.6811787  99.2822666  47.8526228  89.6385326 100.3287556
  40.9782487  76.0995484 103.6416902  40.6379308  75.3003297 104.0437582
  40.2721494  76.3997195 103.0693735  41.6298959  73.1844797 102.0944225
  42.4525029  72.7105275 101.9723115  41.8737023  73.9635281 102.5942911
  40.2707194  76.2133055  92.3907127  40.9915556  76.5914308  91.8870844
  39.6472498  76.9321932  92.4942105  44.4138317  76.9178204  93.3265459
  44.6301931  77.8002842  93.0254287  43.9332384  76.5264418  92.5971101
  39.1537538  79.8763917  99.9036204  39.0082119  80.1904221 100.7960485
  38.6762742  80.4948818  99.3507102  41.0133921  76.8666465  99.9517093
  40.9995490  75.9707559  99.6149391  41.7306349  76.8737129 100.5855379
  42.8660052  77.3003806 101.9970221  42.6077829  78.2220876 101.9954551
  42.3345092  76.9034240 102.6870685  47.8106240  90.4054593  94.7760306
  47.9843118  89.8401015  94.0234159  48.3035132  91.2055488  94.5939796
  33.6283200  82.4169262 102.8423865  33.0836668  83.1929070 102.9744139
  34.5062550  82.7640066 102.6842986  40.4170817  75.7480846  95.2204663
  40.5386728  74.8197492  95.4195551  40.1272859  75.7619532  94.3082979
  43.2862007  73.4335756  98.3571383  43.3083704  73.4975089  97.4023363
  43.7030066  72.5940265  98.5511889  53.6645632  83.1691016  96.3950606
  54.1076778  82.4198341  95.9969729  52.7872142  83.1601152  96.0124338
  48.7981413  89.7221357  91.8757204  49.4932318  90.3428050  92.0944519
  49.1404563  88.8716708  92.1509582  34.4149222  81.5439158 105.7354022
  33.6730958  81.6921793 106.3218652  34.0941966  81.8047424 104.8720771
  50.6972836  87.1721063  93.4044535  51.2224160  87.5108335  92.6793855
  50.6095189  86.2368078  93.2207670  42.3592885  91.0855136 105.5334412
  42.6680011  90.8404283 106.4057111  43.1568367  91.2901775 105.0453282
  42.3813497  93.2393046  97.7639788  41.9418487  92.7469425  98.4572645
  43.1321614  92.6966014  97.5231864  34.8605836  89.4304587  97.7664416
  35.6863856  89.1308359  97.3863060  34.5099888  88.6612209  98.2154205
  39.8287369  88.7831055  99.8362090  39.2067378  88.1201760  99.5364318
  40.4992236  88.8092187  99.1535738  33.0614441  87.3490913  98.7253350
  32.2246349  86.9213088  98.5437351  33.0338086  87.5423357  99.6624141
  39.9011896  77.2612843 109.4294596  39.9500052  78.1374966 109.0472366
  40.4434411  76.7190236 108.8566239  50.3866742  87.8053966 108.7095733
  49.5962286  87.7878105 108.1700233  50.1500097  88.3442260 109.4644770
  50.5064617  84.6546433 106.0228462  50.5562622  84.4896440 106.9643984
  50.3978540  83.7873692 105.6326342  39.3900876  87.3334978  93.3120551
  39.5388996  88.0170443  92.6587223  40.1967319  87.3140068  93.8270006
  47.7968380  80.6377361 107.3387768  48.6978242  80.4983826 107.0471766
  47.8716354  80.8031816 108.2785946  42.1311185  78.0144215 106.1840955
  41.2614494  78.3077782 105.9123543  42.3670665  78.5984660 106.9048218
  52.0082814  87.0743374 106.2670483  51.7167622  87.4373355 107.1033944
  51.3954945  86.3610383 106.0883815  53.2078496  84.6396254  98.7873053
  54.0425388  85.0786058  98.9510614  53.3437625  84.1634907  97.9681299
  50.2570002  82.1975989 104.7350541  50.7324124  82.3903635 103.9269393
  49.3335568  82.2535175 104.4893925  37.1453509  83.3600156  94.3181619
  36.8999551  82.4562486  94.5161830  37.3149423  83.3617306  93.3761097
  44.8350219  74.2323832 103.7006375  45.3532163  74.9684859 103.3752864
  44.4805351  74.5387826 104.5353134  36.4149156  79.0928514  91.8167781
  35.7218401  79.1672869  91.1607817  36.1700908  78.3288857  92.3389298
  45.0862813  70.6524115  99.2207272  45.3664567  69.9847304  99.8467698
  45.8713420  70.8453211  98.7081936  42.8896281  89.8283109  90.7832298
  42.3170248  90.4473296  90.3302770  43.4629075  90.3782471  91.3172220
  48.9571671  79.0741749 102.9678847  49.9089094  79.1739847 102.9891071
  48.7875122  78.2820018 103.4776931  46.9786051  76.1597332 103.1538248
  46.3835983  76.4402345 102.4584736  46.6935747  76.6491233 103.9254989
  46.1093541  90.1120259  91.9140880  47.0424214  90.0465821  92.1173756
  46.0216754  90.9476526  91.4555413  48.7381558  89.4286129  88.8744828
  48.6595189  89.0945993  89.7680586  49.5591225  89.9207897  88.8736300
  51.4359749  82.2947869 102.0821146  51.4036069  81.3563869 102.2680830
  52.0460373  82.3731905 101.3486971  43.2743080  81.1643922  88.1248350
  44.2202185  81.0350130  88.1936769  42.8957325  80.4258584  88.6017779
  51.5854237  79.0858912 102.1279430  51.0693286  78.3017369 101.9409358
  52.4694186  78.7577629 102.2925949  49.2464964  72.8299928  98.0875242
  49.0489786  72.5215016  98.9718574  49.8564670  73.5561567  98.2173172
  57.2536299  83.3563875 101.2227183  57.9839687  83.0949164 101.7834887
  56.6443244  82.6192597 101.2629251  55.3351596  81.4971738 101.8201634
  54.6084760  81.3627703 101.2118126  54.9198883  81.8048567 102.6258352
  43.1581772  85.2161668 109.5849007  44.0784782  85.3940267 109.7789054
  43.1231355  84.2717713 109.4328707  41.4585997  79.0893898  88.0603236
  40.5517452  78.7927011  88.1365949  41.7361978  78.7923716  87.1937522
  32.3763937  80.4100261  98.5102282  32.0566722  79.5565570  98.2176656
  31.8297366  80.6248840  99.2660249  36.1543845  83.1262702 102.2271789
  36.3729855  84.0579810 102.2459822  36.5669619  82.7670677 103.0126592
  43.0748063  73.6330788  94.2147477  42.2648791  73.2877873  94.5902723
  43.7632480  73.3238331  94.8035089  45.0038611  72.7108835  95.8371774
  45.5569650  73.1304288  96.4961797  45.2408697  71.7844583  95.8794730
  41.0271710  78.6995908 111.6174538  40.9268437  79.6490265 111.5486629
  40.8093252  78.3714147 110.7450608  40.2284782  75.9480833  88.2015215
  41.0903946  76.2735732  88.4611032  40.4135126  75.1612329  87.6888281
  32.2452197  84.0303173 100.4795404  31.5515669  83.6157126  99.9665358
  32.9925188  84.0723709  99.8828823  48.3817418  74.8209360  95.3450438
  47.8016087  75.4794164  94.9628490  48.1153351  73.9986704  94.9337855
  46.8320984  74.2214417  97.5471758  47.3320763  74.3330952  96.7386077
  47.4756592  73.9175470  98.1872567  40.8902980  82.1293047 110.4339599
  40.4070062  82.9293407 110.6403488  40.9763919  82.1400992 109.4807043
  34.1588940  83.9621427  98.3561419  34.1359628  84.0609114  97.4043302
  34.4689576  84.8086577  98.6778585  36.8176318  86.0197582 102.4708033
  37.7719571  85.9881524 102.4037965  36.6188841  85.5588205 103.2858259
  37.4075700  84.5898698 105.0378831  38.2268589  85.0842776 105.0613668
  37.6812508  83.6730666 105.0096398  47.1642296  76.9809450  94.4006786
  46.2768151  77.2659101  94.1826981  47.5796285  76.8203213  93.5534063
  50.5156832  77.0055971  98.1161125  51.2917222  77.4952423  98.3885742
  49.7904966  77.4314025  98.5732995  52.9529391  77.7183590  99.1735066
  53.5473882  77.4779326  98.4628374  53.0255975  76.9990721  99.8008602
  35.1726547  91.5617201  99.4878231  35.0381014  90.8017602  98.9216229
  34.7558609  92.2858101  99.0207020  46.3085510  86.7454125  88.4954806
  47.0121360  86.9504127  89.1112462  45.5848158  87.3130887  88.7603890
  47.1383320  82.4963986  94.6157076  47.0818521  82.9532537  93.7764709
  47.6911662  81.7354671  94.4379919  50.9488126  78.2853718  95.4407196
  50.6925060  77.8850354  96.2715404  50.3240994  78.9997512  95.3157335
  55.2600464  81.0249791  97.9478487  54.7000022  81.0942980  98.7210049
  54.6543967  80.8490776  97.2277983  38.3295672  92.4586518  99.6996674
  38.2128057  93.4031951  99.5975364  37.5088119  92.1560080 100.0882473
  48.2172207  87.1836654  90.5453266  49.0517811  86.7517852  90.3630741
  48.0556550  87.0118668  91.4730161  47.8718099  83.6868767  91.9109606
  47.8166903  83.5213039  90.9698050  47.2464154  84.3944800  92.0671795
  32.6610614  78.9236832 105.7371028  33.3069478  78.4135786 106.2258253
  32.4527765  79.6605513 106.3114453  45.1864006  85.9917679 111.2363168
  46.0555166  86.1658331 110.8749803  44.7070758  86.8112096 111.1138898
  41.1814225  73.1876876  91.4894924  41.1692894  74.1318716  91.6463195
  42.0737646  73.0047022  91.1954385  39.3550187  93.1114780 102.9152602
  40.2577433  93.1438390 103.2319097  39.1287557  92.1815231 102.9298938
  41.1103789  91.8645767  99.5762681  40.1599420  91.8647628  99.4627053
  41.4136275  91.1178501  99.0598715  44.9966344  69.7819653  95.7440861
  44.2298740  69.2278140  95.8897543  45.4077049  69.8541522  96.6055012
  37.0008105  76.0704449 109.8346042  37.8639567  75.7141254 110.0449367
  36.4273516  75.7318344 110.5221446  56.8456482  97.7006305 100.6408443
  57.4834892  97.5813052  99.9371783  56.7277325  98.6487149 100.6996395
  53.6546188  97.6533733 100.5769968  53.3164700  97.5374798  99.6890503
  54.5235957  97.2524898 100.5570974  49.5133004  99.5069210  96.5666859
  48.9497869  99.4159147  95.7983146  49.3985399  98.6869114  97.0469351
  54.1365971  98.8068585 106.5356173  54.1254612  98.4121383 105.6636677
  54.2986611  98.0734657 107.1289945  47.0597436 101.0020401  99.4051079
  47.8518728 100.6611226  98.9897378  47.2994086 101.1115376 100.3253232
  55.0932563 103.1740177  91.8781324  54.4420543 103.7594258  91.4915337
  55.8876926 103.7046372  91.9376361  49.0188190 100.2629314  92.2768458
  49.7919066  99.7158301  92.1381334  49.3713589 101.1273564  92.4882919
  50.8573232 101.5905697 105.4835357  50.5663098 102.4951328 105.3682023
  51.4930217 101.6322224 106.1979427  51.7829439  98.9682545 102.0736717
  52.3793012  98.7438568 101.3593680  51.8404411  98.2267291 102.6762165
  51.3554468  96.4221981  89.9086908  51.6079988  95.9003502  89.1470371
  50.4179027  96.2588126  90.0113591  56.3997751  95.4257759  97.7161651
  57.1860840  95.0077182  97.3652068  56.6636455  96.3303851  97.8843299
  56.5707828 100.8630609  92.4150308  55.9353661 100.9365236  93.1271212
  56.2405234 101.4524208  91.7369387  61.8006178  95.3632992  98.6194630
  62.5331350  94.7932209  98.8532459  61.0445533  94.9754593  99.0601135
  51.0750756  98.3250086  92.1111283  50.9587015  97.6494990  92.7792367
  51.1853016  97.8382460  91.2943436  53.4182297  97.7860234  95.8157972
  53.0540505  97.2590855  96.5270893  54.2749413  97.3958703  95.6424457
  59.3231598  89.0754566 103.0789238  58.9914923  89.9449977 102.8550453
  58.7277211  88.7590850 103.7583269  53.0587784  92.8150133  90.8119320
  53.2262187  93.6830370  91.1789792  52.8684953  92.9777415  89.8880610
  55.8163118 101.2767112 102.4785151  55.5163841 102.1792151 102.3700958
  55.4714177 101.0099295 103.3306304  49.2675599  97.7280909  98.5121855
  48.3426096  97.5957123  98.7199547  49.5160012  98.5075128  99.0091798
  59.2160261  93.7949652 100.1582588  58.3077139  93.7265061  99.8641349
  59.1647857  94.2721597 100.9864414  53.0377005  95.2707791  91.7965987
  52.9176630  95.7164842  92.6351468  52.3429594  95.6193108  91.2379525
  46.6284410  97.3714183  99.3465644  46.7576791  97.6248662 100.2605056
  45.9481861  97.9641891  99.0270299  50.7983897 108.0411433  95.4456119
  50.7207927 108.9919258  95.5244599  50.1945541 107.6957305  96.1031045
  53.2901127  95.2139298 108.1017485  52.5134461  95.7733218 108.0920350
  53.9291690  95.6996081 108.6232356  61.0821908  91.9966091 101.9360462
  60.4396288  92.2898624 101.2900257  60.5776836  91.8819011 102.7413659
  58.7362071  95.7429264  92.6246321  59.6479928  95.9756651  92.4494019
  58.2271718  96.3266308  92.0621400  51.5447499  98.0224751 107.6635452
  52.2862184  98.5609795 107.3870276  50.8384485  98.6491040 107.8207004
  57.0202839 100.1653892 106.2607614  57.4286195  99.7236302 105.5162246
  56.2980101  99.5906519 106.5141807  53.3733909  95.1026499 103.6341171
  54.2195104  95.5265912 103.7775820  53.3132547  94.4460123 104.3279734
  57.3431654 100.7255082 100.0159903  56.7140516 100.8900797  99.3135971
  56.9557316 101.1396692 100.7870867  61.2220886 101.6609520  97.3704267
  60.5371924 102.0408422  96.8201300  61.3064735 102.2704847  98.1036214
  56.5233354  92.7630867 105.2922345  56.2794286  93.5172927 104.7556620
  56.7993285  93.1416215 106.1269592  58.4771817  99.3069479 103.9699610
  58.6888712  99.9501239 103.2933991  58.4301565  98.4731796 103.5021540
  56.0798046  91.9187300 100.8736182  55.2182525  92.2168554 101.1652920
  56.1060481  92.1357699  99.9417215  52.8959616 100.4629491  97.2809988
  53.3597961 100.7417193  96.4914610  52.6316414  99.5612935  97.0983079
  49.7883697 100.0100972 100.2189751  50.3585054 100.4388240  99.5807236
  50.3791809  99.7283557 100.9173937  51.8328502  96.5852643  94.0899553
  52.5352545  97.0373687  94.5573479  51.5009130  95.9436462  94.7179446
  50.2808863  95.1764400 108.4650762  49.6507524  95.8580680 108.6986159
  50.1744951  95.0647481 107.5203901  45.5753836  94.8436196  99.3916687
  44.7852890  95.0993724  98.9156797  46.0665083  95.6584533  99.4968727
  59.5917645 102.1841435 102.1421967  60.4135089 101.7821622 101.8604649
  59.5880048 102.0809669 103.0938083  47.5268581  95.2080775  96.3500163
  46.7299744  95.3199469  96.8683659  47.2994173  95.5467427  95.4841054
  53.3574249 101.7325478 104.2982678  53.4218681 102.1945885 105.1340850
  52.6485173 101.1022843 104.4264988  43.8591539  95.0966686 101.8231677
  44.1099577  95.9813696 102.0889253  44.3951087  94.9171288 101.0506769
  67.6823638  98.5280183  98.4906939  66.9287347  97.9587581  98.3350943
  67.8171179  98.4942848  99.4377574  53.0722266 103.3993585  94.1661658
  52.9367941 104.2445121  94.5946506  53.6132079 103.6012863  93.4027592
  49.5589606  89.4785165 110.8276013  49.1656551  88.9251364 111.5023658
  50.3755746  89.7895744 111.2182531  46.5251664 100.9169024  94.7389583
  47.0376184 101.7112274  94.8895148  47.1774376 100.2195314  94.6723185
  48.3346548 104.0334780  96.8212337  48.5113177 104.9552745  96.6333320
  49.1303382 103.7193199  97.2506716  52.4757567  90.8943044 108.4196270
  53.2167280  91.4950198 108.3400733  52.7075490  90.1520682 107.8614313
  47.6198905  96.0799412 106.6974500  47.5052420  95.1784669 106.9981599
  46.7643423  96.3263108 106.3459316  49.4577864 105.5512954 102.8222679
  50.0085289 105.4230017 102.0499673  48.6189340 105.8507843 102.4717572
  56.7971981 104.3019952 106.3243402  56.7790456 105.1228833 105.8323671
  57.7191901 104.1774027 106.5493543  53.2545035 101.8164081 107.1666910
  53.7873372 101.0552370 106.9366218  52.7259116 101.5237733 107.9091064
  56.4214730  86.9224147 102.6960552  56.0778999  87.8125789 102.6199662
  56.7893692  86.7325805 101.8330137  44.4900580  99.2457678  95.5149154
  45.3275802  99.6554686  95.2982862  44.6678848  98.3057120  95.4849348
  56.3865013  96.9132758  91.2032987  55.8711636  97.6837363  91.4421374
  56.1142321  96.2397895  91.8266048  53.9712124  91.7582459  96.2618225
  53.1153720  91.3689310  96.0823864  54.3839075  91.8374420  95.4018011
  55.5011270  89.2928803 100.6609785  54.9976066  89.2558938  99.8477590
  55.7941877  90.2021545 100.7206442  51.7454156  89.3767532  99.6675967
  52.6107153  89.1810341  99.3081856  51.8131665  89.1477884 100.5945323
  61.3599287  99.6665113  93.1386160  60.5828729  99.3276273  92.6941322
  62.0390768  99.6717736  92.4641125  56.1751316  94.7859851  93.0292768
  55.8701451  95.1006000  93.8802911  57.1281758  94.8641270  93.0720101
  54.6197748 100.9450074  94.6785722  54.0919109 100.2102833  94.3658959
  54.1185250 101.7224750  94.4325690  59.5990594  99.1399094  99.7952768
  58.9414268  99.8298356  99.8832897  60.4030993  99.5295526 100.1386755
  49.3516475  91.6069740  97.0392334  49.9260227  91.3844922  96.3065526
  49.9387458  91.6758435  97.7920935  58.4096052  97.4943467  97.8456710
  58.9227934  98.1273459  98.3478420  59.0597276  96.8944663  97.4800070
  49.6786062  93.6374201  91.0588219  48.8423375  93.9748888  91.3797494
  49.5390832  93.5023181  90.1215356  51.6539143  88.4810989  95.7667403
  51.0003555  88.1660006  95.1424018  51.6119617  87.8586730  96.4927226
  52.7650348  98.7630284  87.6820695  51.8577410  98.5319538  87.8811844
  53.2621380  97.9667903  87.8694677  55.6718427 107.4727791  90.6017381
  54.9980125 107.7759488  91.2102339  56.0584249 108.2756872  90.2522838
  54.8876883  94.9692923 100.0915051  53.9699445  95.1907870  99.9336739
  55.3037027  95.0439233  99.2326758  55.6711931  96.3684338  95.2217731
  56.4183750  96.8805736  94.9124853  55.9403521  96.0468391  96.0822124
  53.9438581  98.8642879  92.2044685  53.0349800  98.5801912  92.3017155
  53.9733665  99.2841958  91.3447992  59.1757849 102.4749469  95.9735853
  58.7220176 101.6340378  96.0301043  58.5451815 103.1110867  96.3110633
  58.1190768  93.4041455  97.2036520  57.3813525  92.8918841  97.5346763
  58.3717542  92.9641836  96.3919797  57.6190788 104.3125965  96.9085671
  57.9113762 104.8731022  96.1898036  58.1289408 104.6054526  97.6638830
  58.2202395  86.1817707  97.7978289  58.5261272  85.3215070  97.5104204
  58.9455000  86.7735327  97.5977283  44.5126752  96.5848393  96.1859887
  44.3151151  95.9917754  95.4610954  43.9573416  96.2800603  96.9035826
  52.4923475  96.4771500  98.3054480  52.5472085  95.5245336  98.2296957
  51.6814677  96.6330939  98.7895779  53.6414669 100.4051623  89.5432764
  53.2034099  99.6887482  89.0838401  54.3825110 100.6327738  88.9817855
  50.4315835  95.0948559  96.0644859  49.6183701  95.3942730  96.4710051
  50.9274829  94.7004248  96.7819342  52.5824413 105.0906316  97.9979124
  52.5400592 105.3167163  97.0687656  53.4987112 104.8569691  98.1464925
  56.0290047  95.5590384 104.8959753  56.3839435  95.7861857 105.7554219
  56.6762178  95.8908761 104.2737009  61.7587784  98.6808820  95.6009082
  61.6205682  98.8710416  94.6730271  61.4024003  99.4428203  96.0577133
  49.9229910  92.6666915 101.6806094  50.5629289  92.5255674 100.9829058
  49.0907440  92.3801428 101.3044696  61.7857163 100.7485347 100.6120354
  62.2193670 100.6560636 101.4603408  62.4988744 100.7242847  99.9740370
  50.6990214 101.9669345  97.7941087  51.4930812 101.4719665  97.5923662
  49.9881906 101.4387208  97.4308792  55.5185058 104.3487441 102.1453454
  55.5722081 104.9178377 102.9131170  54.6499840 104.5189326 101.7807492
  47.0072977  96.1112427  93.8700839  46.0770565  96.0496883  94.0870802
  47.1030449  95.5888380  93.0737481  46.9258526  92.6367240  96.4579081
  47.1865344  93.5512573  96.3488242  47.7475699  92.1691682  96.6075694
  48.3983452  94.0504997 103.6277906  49.0706505  93.8422359 102.9790555
  47.5713238  93.8527083 103.1883138  62.6472713 100.7909047 103.1453239
  62.8408603 101.6954858 103.3912514  62.5473331 100.3316466 103.9791824
  54.3009024  90.6766938 105.6443567  53.6536939  91.3756888 105.5508043
  55.0710039  91.1103082 106.0119815  54.4773158  98.5147703 103.7040386
  55.4065218  98.6658863 103.5309354  54.0564188  98.6031724 102.8489033
  53.2761490 102.5398367 101.4738924  53.1372576 102.1717152 102.3464862
  52.4876086 103.0546007 101.3022882  53.8709642 107.6407464  92.8164460
  54.0461397 107.1695507  93.6310083  53.1842430 108.2673230  93.0445721
  54.8266705 101.9179970  98.8627762  54.4916538 101.8780740  99.7585412
  54.3270651 101.2524686  98.3898172  48.8010949  97.3247600 104.3880343
  48.6630747  96.5927839 104.9891882  49.7115872  97.2356500 104.1064531
  57.7625897  99.2636004  89.1364821  57.1455067  98.5382833  89.0397874
  57.2942385 100.0245365  88.7931896  51.4293250  97.0367559 103.8764022
  52.1392868  96.3960752 103.8350641  51.3862558  97.2880454 104.7990203
  50.1422184  94.0232777 105.6959662  49.6059541  93.5723516 106.3481258
  49.5538892  94.1578686 104.9530126  48.4370727 110.7896827  99.5904321
  48.6767325 111.4215351 100.2683339  47.5939924 110.4384867  99.8769680
  49.5524443  93.4821429  88.2586126  48.6753909  93.3610229  87.8948372
  50.0282196  92.6907507  88.0065014  59.4197436 101.9374497 105.0284581
  58.5324214 101.6000418 105.1510980  59.9895987 101.2057528 105.2653347
  41.0726583  98.2698588  98.3527633  41.7597623  97.9560318  97.7648648
  40.9174711  99.1739953  98.0794884  45.8761305  93.1588785 102.7812656
  45.7919494  92.5514454 102.0463066  45.0544011  93.6497803 102.7822153
  52.9498589 106.5975949 101.9945825  52.8768760 107.4030920 102.5065129
  52.5075982 106.7967915 101.1693846  52.7388369 105.8347719  95.5048646
  51.9555890 106.3769399  95.5986871  53.4381114 106.3521699  95.9042887
  56.0485019  91.6442348  98.1482851  56.5453718  90.8912311  97.8283922
  55.2772000  91.6806665  97.5826061  63.9014776  97.3482714  99.7901143
  63.8904652  98.2307429  99.4195076  63.0332156  96.9954265  99.5955680
  55.4097272 106.4962783 104.1503983  56.1225245 107.1310248 104.0779885
  54.9187301 106.5926649 103.3343985  57.1314799 100.4014036  95.7221275
  56.1971078 100.5215498  95.5525979  57.3091468  99.4986502  95.4581285
  52.6319987  93.7859731  97.8754536  52.2617775  93.2330772  98.5635442
  53.1279080  93.1817865  97.3229536  60.5187351  96.2431355  96.2571309
  60.9847803  97.0759347  96.1831612  60.9694851  95.7776337  96.9616567
  50.4609186 104.2457226 104.9709554  51.1618645 104.8793709 105.1238948
  49.9904301 104.5871958 104.2105193  58.5863582 102.5875176  93.2557461
  58.8623426 102.4731771  94.1651335  57.7168081 102.1892661  93.2169634
  58.4904013  88.6111942 100.2962210  57.5767093  88.8416169 100.4644417
  58.9197115  88.6950386 101.1476243  58.2610472  96.8001834 102.7962104
  57.6081922  97.0477741 102.1414557  58.6390852  95.9865972 102.4624582
  55.2217646 106.8361527  96.8990275  55.4040040 106.0183183  97.3618027
  56.0450632 107.0529219  96.4615165  55.5559811 105.7629712  94.1605323
  56.0847578 105.2522167  93.5475485  55.8188031 105.4472242  95.0250856
  54.3098045  97.5421645 109.2828141  53.6338682  97.4415774 109.9530517
  55.1325679  97.3860859 109.7464139  46.0576904 103.7793582 101.9040657
  46.6430341 103.0337269 102.0368561  45.8601743 104.0897538 102.7877321
  48.9115559 106.8144829  96.9203099  48.2425935 107.2990957  96.4367139
  48.7728429 107.0614049  97.8346478  40.6494559  96.3499182 100.6245100
  40.6878658  95.8162772 101.4182218  40.1434852  95.8234387 100.0056077
  53.0520828 108.8488572 103.5185757  53.6039136 109.0120194 104.2834843
  53.3927021 109.4393010 102.8465782  48.0285321  91.1963722 104.1207642
  48.0926648  92.0578553 103.7085040  47.9652441  90.5837724 103.3880001
  47.5037594  93.2686855 107.7680676  48.1309632  92.8863932 108.3818201
  46.6465512  93.0501057 108.1336369  44.2803136  95.0763284  93.6999031
  44.5756577  94.1673962  93.6466085  43.3791172  95.0551023  93.3780034
  56.1889215 106.7970548 100.5049440  56.0640355 105.9960288  99.9960385
  56.8468306 107.2916741 100.0163410  47.8097383  93.1519280  99.6826580
  47.0883969  93.7655248  99.5434053  48.5990639  93.6877045  99.6043226
  58.2524124 104.5979568 102.1328990  57.3054459 104.4784919 102.0607316
  58.6006897 103.7102066 102.2155251  50.6123697  90.4873707 105.9567232
  51.1358099  90.7336004 106.7193541  50.3936030  91.3193742 105.5370369
  46.0090978  92.7577382  93.8238356  45.6803684  91.8774760  93.6413462
  46.3630349  92.7025050  94.7114746  55.2570557 104.3932284  98.3333342
  55.1095519 103.4648992  98.5140912  56.0824050 104.4152375  97.8490417
  49.1232801  93.0450351  94.1913834  49.4628874  93.5736273  93.4692442
  49.5704922  93.3830757  94.9672401  58.8604679 105.2160843  99.4198215
  59.7851226 105.0103704  99.2822666  58.6919982 104.9677244 100.3287556
  51.8176242  91.4287402 103.6416902  51.4773062  90.6295215 104.0437582
  51.1115248  91.7289113 103.0693735  52.4692714  88.5136714 102.0944225
  53.2918783  88.0397193 101.9723115  52.7130777  89.2927198 102.5942911
  51.1100948  91.5424973  92.3907127  51.8309311  91.9206226  91.8870844
  50.4866252  92.2613850  92.4942105  55.2532071  92.2470122  93.3265459
  55.4695686  93.1294760  93.0254287  54.7726138  91.8556335  92.5971101
  49.9931293  95.2055835  99.9036204  49.8475873  95.5196138 100.7960485
  49.5156496  95.8240735  99.3507102  51.8527675  92.1958383  99.9517093
  51.8389244  91.2999476  99.6149391  52.5700104  92.2029047 100.5855379
  53.7053806  92.6295723 101.9970221  53.4471584  93.5512794 101.9954551
  53.1738846  92.2326158 102.6870685  58.6499995 105.7346510  94.7760306
  58.8236872 105.1692933  94.0234159  59.1428886 106.5347405  94.5939796
  44.4676955  97.7461180 102.8423865  43.9230423  98.5220987 102.9744139
  45.3456305  98.0931984 102.6842986  51.2564571  91.0772763  95.2204663
  51.3780483  90.1489410  95.4195551  50.9666614  91.0911449  94.3082979
  54.1255762  88.7627674  98.3571383  54.1477459  88.8267007  97.4023363
  54.5423821  87.9232182  98.5511889  64.5039386  98.4982933  96.3950606
  64.9470532  97.7490259  95.9969729  63.6265896  98.4893070  96.0124338
  59.6375167 105.0513275  91.8757204  60.3326072 105.6719968  92.0944519
  59.9798318 104.2008626  92.1509582  45.2542977  96.8731076 105.7354022
  44.5124713  97.0213711 106.3218652  44.9335721  97.1339341 104.8720771
  61.5366590 102.5012980  93.4044535  62.0617915 102.8400253  92.6793855
  61.4488943 101.5659996  93.2207670  53.1986639 106.4147054 105.5334412
  53.5073766 106.1696201 106.4057111  53.9962121 106.6193692 105.0453282
  53.2207251 108.5684964  97.7639788  52.7812242 108.0761342  98.4572645
  53.9715368 108.0257931  97.5231864  45.6999590 104.7596505  97.7664416
  46.5257610 104.4600276  97.3863060  45.3493642 103.9904127  98.2154205
  50.6681123 104.1122973  99.8362090  50.0461133 103.4493678  99.5364318
  51.3385990 104.1384105  99.1535738  43.9008195 102.6782831  98.7253350
  43.0640104 102.2505005  98.5437351  43.8731841 102.8715274  99.6624141
  50.7405651  92.5904761 109.4294596  50.7893806  93.4666884 109.0472366
  51.2828165  92.0482154 108.8566239  61.3458372  99.9838350 106.0228462
  61.3956377  99.8188358 106.9643984  61.2372295  99.1165609 105.6326342
  50.2294630 102.6626896  93.3120551  50.3782751 103.3462360  92.6587223
  51.0361074 102.6431986  93.8270006  58.6362134  95.9669278 107.3387768
  59.5371997  95.8275743 107.0471766  58.7110109  96.1323733 108.2785946
  52.9704939  93.3436133 106.1840955  52.1008249  93.6369699 105.9123543
  53.2064420  93.9276578 106.9048218  64.0472251  99.9688172  98.7873053
  64.8819142 100.4077976  98.9510614  64.1831380  99.4926825  97.9681299
  61.0963757  97.5267907 104.7350541  61.5717878  97.7195553 103.9269393
  60.1729322  97.5827092 104.4893925  47.9847263  98.6892074  94.3181619
  47.7393305  97.7854404  94.5161830  48.1543178  98.6909224  93.3761097
  55.6743973  89.5615750 103.7006375  56.1925917  90.2976777 103.3752864
  55.3199106  89.8679743 104.5353134  47.2542911  94.4220431  91.8167781
  46.5612156  94.4964786  91.1607817  47.0094663  93.6580775  92.3389298
  55.9256567  85.9816033  99.2207272  56.2058321  85.3139222  99.8467698
  56.7107174  86.1745128  98.7081936  53.7290036 105.1575027  90.7832298
  53.1564003 105.7765214  90.3302770  54.3022829 105.7074388  91.3172220
  59.7965426  94.4033667 102.9678847  60.7482849  94.5031764 102.9891071
  59.6268876  93.6111935 103.4776931  57.8179805  91.4889250 103.1538248
  57.2229737  91.7694263 102.4584736  57.5329502  91.9783151 103.9254989
  56.9487296 105.4412177  91.9140880  57.8817969 105.3757738  92.1173756
  56.8610508 106.2768444  91.4555413  59.5775312 104.7578047  88.8744828
  59.4988944 104.4237911  89.7680586  60.3984979 105.2499815  88.8736300
  62.2753503  97.6239786 102.0821146  62.2429824  96.6855787 102.2680830
  62.8854127  97.7023823 101.3486971  54.1136834  96.4935839  88.1248350
  55.0595939  96.3642047  88.1936769  53.7351079  95.7550501  88.6017779
  62.4247992  94.4150830 102.1279430  61.9087041  93.6309286 101.9409358
  63.3087940  94.0869546 102.2925949  60.0858719  88.1591845  98.0875242
  59.8883540  87.8506934  98.9718574  60.6958424  88.8853484  98.2173172
  68.0930053  98.6855793 101.2227183  68.8233442  98.4241081 101.7834887
  67.4836999  97.9484515 101.2629251  66.1745350  96.8263656 101.8201634
  65.4478514  96.6919621 101.2118126  65.7592637  97.1340484 102.6258352
  52.2979751  94.4185816  88.0603236  51.3911207  94.1218928  88.1365949
  52.5755732  94.1215634  87.1937522  43.2157692  95.7392179  98.5102282
  42.8960476  94.8857487  98.2176656  42.6691120  95.9540757  99.2660249
  46.9937599  98.4554620 102.2271789  47.2123609  99.3871728 102.2459822
  47.4063373  98.0962594 103.0126592  53.9141817  88.9622705  94.2147477
  53.1042546  88.6169790  94.5902723  54.6026234  88.6530249  94.8035089
  55.8432365  88.0400752  95.8371774  56.3963404  88.4596206  96.4961797
  56.0802452  87.1136500  95.8794730  51.8665465  94.0287826 111.6174538
  51.7662192  94.9782183 111.5486629  51.6487007  93.7006065 110.7450608
  51.0678536  91.2772751  88.2015215  51.9297700  91.6027649  88.4611032
  51.2528880  90.4904247  87.6888281  43.0845952  99.3595091 100.4795404
  42.3909423  98.9449043  99.9665358  43.8318943  99.4015627  99.8828823
  59.2211173  90.1501277  95.3450438  58.6409842  90.8086081  94.9628490
  58.9547105  89.3278622  94.9337855  57.6714739  89.5506335  97.5471758
  58.1714517  89.6622870  96.7386077  58.3150347  89.2467388  98.1872567
  51.7296735  97.4584965 110.4339599  51.2463816  98.2585325 110.6403488
  51.8157674  97.4692910 109.4807043  44.9982694  99.2913344  98.3561419
  44.9753382  99.3901032  97.4043302  45.3083331 100.1378495  98.6778585
  47.6570072 101.3489499 102.4708033  48.6113326 101.3173442 102.4037965
  47.4582596 100.8880123 103.2858259  48.2469454  99.9190615 105.0378831
  49.0662343 100.4134694 105.0613668  48.5206262  99.0022584 105.0096398
  58.0036051  92.3101368  94.4006786  57.1161906  92.5951018  94.1826981
  58.4190040  92.1495131  93.5534063  61.3550587  92.3347889  98.1161125
  62.1310977  92.8244341  98.3885742  60.6298721  92.7605943  98.5732995
  63.7923145  93.0475508  99.1735066  64.3867636  92.8071244  98.4628374
  63.8649729  92.3282639  99.8008602  46.0120301 106.8909119  99.4878231
  45.8774769 106.1309520  98.9216229  45.5952363 107.6150019  99.0207020
  57.1479264 102.0746042  88.4954806  57.8515114 102.2796045  89.1112462
  56.4241913 102.6422804  88.7603890  57.9777074  97.8255904  94.6157076
  57.9212276  98.2824455  93.7764709  58.5305417  97.0646588  94.4379919
  61.7881880  93.6145636  95.4407196  61.5318814  93.2142271  96.2715404
  61.1634748  94.3289429  95.3157335  66.0994218  96.3541709  97.9478487
  65.5393776  96.4234898  98.7210049  65.4937721  96.1782693  97.2277983
  49.1689427 107.7878436  99.6996674  49.0521811 108.7323868  99.5975364
  48.3481873 107.4851997 100.0882473  59.0565961 102.5128572  90.5453266
  59.8911565 102.0809770  90.3630741  58.8950304 102.3410585  91.4730161
  58.7111854  99.0160685  91.9109606  58.6560657  98.8504956  90.9698050
  58.0857909  99.7236718  92.0671795  43.5004369  94.2528749 105.7371028
  44.1463232  93.7427703 106.2258253  43.2921520  94.9897431 106.3114453
  52.0207979  88.5168794  91.4894924  52.0086649  89.4610634  91.6463195
  52.9131401  88.3338939  91.1954385  50.1943941 108.4406698 102.9152602
  51.0971188 108.4730308 103.2319097  49.9681311 107.5107149 102.9298938
  51.9497543 107.1937684  99.5762681  50.9993174 107.1939546  99.4627053
  52.2530029 106.4470419  99.0598715  55.8360099  85.1111571  95.7440861
  55.0692494  84.5570057  95.8897543  56.2470804  85.1833439  96.6055012
  47.8401860  91.3996366 109.8346042  48.7033321  91.0433171 110.0449367
  47.2667270  91.0610261 110.5221446  60.3526759 114.8361127  96.5666859
  59.7891624 114.7451064  95.7983146  60.2379154 114.0161032  97.0469351
  65.9326317 118.5032095  91.8781324  65.2814297 119.0886175  91.4915337
  66.7270680 119.0338290  91.9376361  59.8581944 115.5921232  92.2768458
  60.6312820 115.0450219  92.1381334  60.2107343 116.4565481  92.4882919
  62.1948222 111.7513898  89.9086908  62.4473743 111.2295419  89.1470371
  61.2572781 111.5880044  90.0113591  67.2391505 110.7549677  97.7161651
  68.0254594 110.3369100  97.3652068  67.5030209 111.6595769  97.8843299
  67.4101582 116.1922527  92.4150308  66.7747415 116.2657153  93.1271212
  67.0798989 116.7816126  91.7369387  61.9144511 113.6542004  92.1111283
  61.7980769 112.9786908  92.7792367  62.0246771 113.1674378  91.2943436
  64.2576052 113.1152151  95.8157972  63.8934259 112.5882772  96.5270893
  65.1143168 112.7250620  95.6424457  63.8981539 108.1442051  90.8119320
  64.0655941 109.0122287  91.1789792  63.7078708 108.3069333  89.8880610
  60.1069354 113.0572827  98.5121855  59.1819850 112.9249041  98.7199547
  60.3553767 113.8367046  99.0091798  63.8770760 110.5999708  91.7965987
  63.7570385 111.0456759  92.6351468  63.1823348 110.9485026  91.2379525
  57.4678165 112.7006100  99.3465644  57.5970546 112.9540579 100.2605056
  56.7875616 113.2933808  99.0270299  69.5755826 111.0721182  92.6246321
  70.4873682 111.3048568  92.4494019  69.0665473 111.6558226  92.0621400
  66.9191801 107.2479218 100.8736182  66.0576280 107.5460471 101.1652920
  66.9454235 107.4649617  99.9417215  63.7353370 115.7921408  97.2809988
  64.1991716 116.0709111  96.4914610  63.4710168 114.8904853  97.0983079
  62.6722256 111.9144561  94.0899553  63.3746299 112.3665604  94.5573479
  62.3402885 111.2728379  94.7179446  56.4147590 110.1728113  99.3916687
  55.6246644 110.4285642  98.9156797  56.9058837 110.9876451  99.4968727
  58.3662335 110.5372692  96.3500163  57.5693499 110.6491387  96.8683659
  58.1387928 110.8759345  95.4841054  54.6985293 110.4258604 101.8231677
  54.9493332 111.3105614 102.0889253  55.2344841 110.2463205 101.0506769
  63.9116021 118.7285503  94.1661658  63.7761696 119.5737039  94.5946506
  64.4525833 118.9304781  93.4027592  57.3645418 116.2460941  94.7389583
  57.8769939 117.0404191  94.8895148  58.0168131 115.5487232  94.6723185
  67.2608484 102.2516065 102.6960552  66.9172754 103.1417707 102.6199662
  67.6287447 102.0617723 101.8330137  55.3294335 114.5749596  95.5149154
  56.1669557 114.9846604  95.2982862  55.5072603 113.6349038  95.4849348
  67.2258767 112.2424676  91.2032987  66.7105390 113.0129281  91.4421374
  66.9536076 111.5689812  91.8266048  64.8105878 107.0874377  96.2618225
  63.9547474 106.6981227  96.0823864  65.2232830 107.1666338  95.4018011
  66.3405025 104.6220720 100.6609785  65.8369820 104.5850855  99.8477590
  66.6335632 105.5313463 100.7206442  62.5847911 104.7059450  99.6675967
  63.4500907 104.5102259  99.3081856  62.6525420 104.4769802 100.5945323
  72.1993041 114.9957031  93.1386160  71.4222484 114.6568190  92.6941322
  72.8784522 115.0009654  92.4641125  67.0145070 110.1151768  93.0292768
  66.7095206 110.4297917  93.8802911  67.9675512 110.1933188  93.0720101
  65.4591502 116.2741992  94.6785722  64.9312864 115.5394751  94.3658959
  64.9579005 117.0516668  94.4325690  60.1910230 106.9361658  97.0392334
  60.7653982 106.7136839  96.3065526  60.7781212 107.0050352  97.7920935
  60.5179817 108.9666119  91.0588219  59.6817129 109.3040805  91.3797494
  60.3784586 108.8315099  90.1215356  62.4932897 103.8102907  95.7667403
  61.8397310 103.4951924  95.1424018  62.4513372 103.1878647  96.4927226
  63.6044102 114.0922202  87.6820695  62.6971164 113.8611455  87.8811844
  64.1015134 113.2959821  87.8694677  66.5112181 122.8019709  90.6017381
  65.8373880 123.1051406  91.2102339  66.8978003 123.6048789  90.2522838
  66.5105686 111.6976256  95.2217731  67.2577504 112.2097653  94.9124853
  66.7797275 111.3760309  96.0822124  64.7832336 114.1934797  92.2044685
  63.8743555 113.9093830  92.3017155  64.8127419 114.6133875  91.3447992
  68.9584523 108.7333372  97.2036520  68.2207279 108.2210758  97.5346763
  69.2111296 108.2933754  96.3919797  69.0596150 101.5109624  97.7978289
  69.3655027 100.6506988  97.5104204  69.7848755 102.1027244  97.5977283
  55.3520506 111.9140311  96.1859887  55.1544906 111.3209672  95.4610954
  54.7967170 111.6092521  96.9035826  63.3317230 111.8063417  98.3054480
  63.3865840 110.8537254  98.2296957  62.5208432 111.9622856  98.7895779
  64.4808423 115.7343540  89.5432764  64.0427853 115.0179399  89.0838401
  65.2218864 115.9619655  88.9817855  61.2709590 110.4240477  96.0644859
  60.4577455 110.7234648  96.4710051  61.7668584 110.0296166  96.7819342
  60.7623664 107.9958833 101.6806094  61.4023044 107.8547592 100.9829058
  59.9301195 107.7093346 101.3044696  57.8466732 111.4404345  93.8700839
  56.9164320 111.3788800  94.0870802  57.9424204 110.9180297  93.0737481
  57.7652281 107.9659158  96.4579081  58.0259098 108.8804491  96.3488242
  58.5869453 107.4983600  96.6075694  68.6019651 114.5927922  89.1364821
  67.9848822 113.8674750  89.0397874  68.1336140 115.3537282  88.7931896
  60.3918197 108.8113346  88.2586126  59.5147663 108.6902147  87.8948372
  60.8675950 108.0199425  88.0065014  51.9120337 113.5990506  98.3527633
  52.5991377 113.2852236  97.7648648  51.7568466 114.5031871  98.0794884
  56.7155059 108.4880703 102.7812656  56.6313248 107.8806372 102.0463066
  55.8937766 108.9789721 102.7822153  66.8878773 106.9734266  98.1482851
  67.3847473 106.2204228  97.8283922  66.1165755 107.0098583  97.5826061
  63.4713742 109.1151649  97.8754536  63.1011529 108.5622690  98.5635442
  63.9672834 108.5109783  97.3229536  69.3297768 103.9403860 100.2962210
  68.4160848 104.1708086 100.4644417  69.7590869 104.0242304 101.1476243
  51.4888313 111.6791099 100.6245100  51.5272413 111.1454690 101.4182218
  50.9828606 111.1526305 100.0056077  58.8679076 106.5255640 104.1207642
  58.9320402 107.3870471 103.7085040  58.8046196 105.9129642 103.3880001
  55.1196891 110.4055202  93.6999031  55.4150332 109.4965880  93.6466085
  54.2184927 110.3842941  93.3780034  58.6491138 108.4811198  99.6826580
  57.9277724 109.0947166  99.5434053  59.4384394 109.0168963  99.6043226
  56.8484732 108.0869299  93.8238356  56.5197439 107.2066678  93.6413462
  57.2024103 108.0316968  94.7114746  59.9626556 108.3742269  94.1913834
  60.3022628 108.9028190  93.4692442  60.4098676 108.7122675  94.9672401
  63.3086468 103.8428632 102.0944225  64.1312538 103.3689110 101.9723115
  63.5524532 104.6219116 102.5942911  61.9494703 106.8716891  92.3907127
  62.6703065 107.2498143  91.8870844  61.3260007 107.5905767  92.4942105
  66.0925826 107.5762040  93.3265459  66.3089440 108.4586677  93.0254287
  65.6119893 107.1848253  92.5971101  60.8325047 110.5347753  99.9036204
  60.6869628 110.8488056 100.7960485  60.3550251 111.1532653  99.3507102
  62.6921430 107.5250301  99.9517093  62.6782999 106.6291394  99.6149391
  63.4093858 107.5320965 100.5855379  62.0958326 106.4064681  95.2204663
  62.2174237 105.4781327  95.4195551  61.8060368 106.4203367  94.3082979
  64.9649516 104.0919592  98.3571383  64.9871213 104.1558925  97.4023363
  65.3817575 103.2524100  98.5511889  56.5393345 120.0888422  97.7664416
  57.3651365 119.7892194  97.3863060  56.1887397 119.3196045  98.2154205
  54.7401950 118.0074749  98.7253350  53.9033858 117.5796923  98.5437351
  54.7125595 118.2007192  99.6624141  61.0688385 117.9918814  93.3120551
  61.2176505 118.6754278  92.6587223  61.8754828 117.9723904  93.8270006
  58.8241018 114.0183991  94.3181619  58.5787060 113.1146321  94.5161830
  58.9936932 114.0201142  93.3761097  58.0936665 109.7512349  91.8167781
  57.4005910 109.8256704  91.1607817  57.8488417 108.9872693  92.3389298
  66.7650322 101.3107950  99.2207272  67.0452076 100.6431139  99.8467698
  67.5500929 101.5037046  98.7081936  64.5683790 120.4866944  90.7832298
  63.9957757 121.1057131  90.3302770  65.1416584 121.0366306  91.3172220
  67.7881050 120.7704094  91.9140880  68.7211723 120.7049656  92.1173756
  67.7004263 121.6060361  91.4555413  70.4169067 120.0869965  88.8744828
  70.3382698 119.7529828  89.7680586  71.2378734 120.5791733  88.8736300
  64.9530589 111.8227757  88.1248350  65.8989694 111.6933965  88.1936769
  64.5744834 111.0842419  88.6017779  70.9252473 103.4883763  98.0875242
  70.7277294 103.1798851  98.9718574  71.5352179 104.2145402  98.2173172
  63.1373506 109.7477733  88.0603236  62.2304961 109.4510846  88.1365949
  63.4149487 109.4507551  87.1937522  54.0551446 111.0684097  98.5102282
  53.7354231 110.2149405  98.2176656  53.5084875 111.2832675  99.2660249
  64.7535572 104.2914623  94.2147477  63.9436300 103.9461708  94.5902723
  65.4419989 103.9822167  94.8035089  66.6826120 103.3692670  95.8371774
  67.2357159 103.7888123  96.4961797  66.9196206 102.4428418  95.8794730
  61.9072291 106.6064669  88.2015215  62.7691455 106.9319567  88.4611032
  62.0922635 105.8196164  87.6888281  53.9239706 114.6887008 100.4795404
  53.2303178 114.2740961  99.9665358  54.6712697 114.7307545  99.8828823
  70.0604927 105.4793195  95.3450438  69.4803596 106.1377999  94.9628490
  69.7940860 104.6570540  94.9337855  68.5108493 104.8798253  97.5471758
  69.0108272 104.9914787  96.7386077  69.1544101 104.5759306  98.1872567
  55.8376449 114.6205262  98.3561419  55.8147137 114.7192949  97.4043302
  56.1477085 115.4670413  98.6778585  68.8429805 107.6393285  94.4006786
  67.9555660 107.9242936  94.1826981  69.2583794 107.4787049  93.5534063
  67.9873019 117.4037960  88.4954806  68.6908869 117.6087963  89.1112462
  67.2635667 117.9714722  88.7603890  68.8170829 113.1547821  94.6157076
  68.7606030 113.6116373  93.7764709  69.3699171 112.3938506  94.4379919
  72.6275635 108.9437553  95.4407196  72.3712569 108.5434189  96.2715404
  72.0028503 109.6581347  95.3157335  69.8959716 117.8420489  90.5453266
  70.7305320 117.4101688  90.3630741  69.7344059 117.6702503  91.4730161
  69.5505608 114.3452603  91.9109606  69.4954412 114.1796874  90.9698050
  68.9251663 115.0528636  92.0671795  62.8601734 103.8460712  91.4894924
  62.8480403 104.7902552  91.6463195  63.7525155 103.6630857  91.1954385
  66.6753853 100.4403488  95.7440861  65.9086249  99.8861975  95.8897543
  67.0864558 100.5125357  96.6055012  71.2311952 124.1405264  88.2586126
  70.3541418 124.0194065  87.8948372  71.7069705 123.3491342  88.0065014
  72.7466045 121.9356586  88.2015215  73.6085209 122.2611485  88.4611032
  72.9316389 121.1488082  87.6888281   6.1557987  15.1963661  83.2912165
   5.5922852  15.1053598  82.5228453   6.0410382  14.3763566  83.7714658
  11.7357546  18.8634629  78.6026630  11.0845526  19.4488710  78.2160644
  12.5301909  19.3940824  78.6621668   5.6613173  15.9523766  79.0013764
   6.4344049  15.4052753  78.8626640   6.0138572  16.8168016  79.2128226
  13.0422734  11.1152211  84.4406958  13.8285823  10.6971634  84.0897375
  13.3061438  12.0198303  84.6088606  13.2132811  16.5525061  79.1395614
  12.5778644  16.6259688  79.8516519  12.8830218  17.1418660  78.4614694
  18.4431161  11.0527444  85.3439936  19.1756333  10.4826661  85.5777766
  17.6870517  10.6649044  85.7846442   7.7175740  14.0144538  78.8356589
   7.6011998  13.3389442  79.5037674   7.8278000  13.5276912  78.0188742
  10.0607281  13.4754685  82.5403279   9.6965488  12.9485306  83.2516200
  10.9174397  13.0853155  82.3669764   7.4408881  23.7305884  82.1701425
   7.3632910  24.6813710  82.2489906   6.8370524  23.3851757  82.8276351
  15.3787055  11.4323716  79.3491628  16.2904911  11.6651103  79.1739326
  14.8696702  12.0160760  78.7866707  13.9856637  16.4149534  86.7405209
  13.3565499  16.5795248  86.0381277  13.5982299  16.8291144  87.5116173
  17.8645869  17.3503972  84.0949573  17.1796907  17.7302874  83.5446607
  17.9489718  17.9599299  84.8281521   9.5384599  16.1523942  84.0055295
  10.0022944  16.4311645  83.2159917   9.2741397  15.2507387  83.8228385
  16.2342628  17.8735887  88.8667274  17.0560072  17.4716074  88.5849956
  16.2305031  17.7704121  89.8183390  24.3248622  14.2174635  85.2152246
  23.5712330  13.6482033  85.0596250  24.4596163  14.1837300  86.1622880
   9.7147250  19.0888037  80.8906965   9.5792924  19.9339573  81.3191813
  10.2557062  19.2907315  80.1272899   3.1676647  16.6063475  81.4634890
   3.6801168  17.4006726  81.6140455   3.8199360  15.9089766  81.3968491
   4.9771532  19.7229232  83.5457643   5.1538160  20.6447196  83.3578627
   5.7728365  19.4087651  83.9752023  13.0289996  12.6027210  77.9278293
  12.5136619  13.3731815  78.1666681  12.7567304  11.9292347  78.5511355
  18.0024270  15.3559565  79.8631467  17.2253713  15.0170725  79.4186629
  18.6815751  15.3612188  79.1886432  12.8176299  10.4754302  79.7538075
  12.5126435  10.7900452  80.6048218  13.7706741  10.5535722  79.7965408
  11.2622731  16.6344526  81.4031029  10.7344092  15.8997285  81.0904266
  10.7610234  17.4119202  81.1570997  16.2415577  14.8293546  86.5198075
  15.5839251  15.5192808  86.6078204  17.0455976  15.2189978  86.8632061
  15.0521036  13.1837919  84.5702017  15.5652917  13.8167911  85.0723726
  15.7022260  12.5839114  84.2045377   9.4075331  14.4524736  74.4066002
   8.5002393  14.2213990  74.6057151   9.9046363  13.6562355  74.5939983
  12.3143410  23.1622243  77.3262688  11.6405109  23.4653940  77.9347646
  12.7009232  23.9651324  76.9768145  12.3136914  12.0578790  81.9463037
  13.0608733  12.5700187  81.6370160  12.5828504  11.7362843  82.8067431
  10.5863565  14.5537331  78.9289992   9.6774784  14.2696364  79.0262462
  10.6158648  14.9736409  78.0693299  15.8182832  18.1643920  82.6981159
  15.3645159  17.3234830  82.7546350  15.1876799  18.8005319  83.0355939
  14.2615771  20.0020417  83.6330977  14.5538746  20.5625474  82.9143343
  14.7714392  20.2948978  84.3884137  10.2839652  16.0946075  76.2678070
   9.8459082  15.3781934  75.8083708  11.0250093  16.3222189  75.7063162
   9.2249396  20.7800768  84.7224431   9.1825575  21.0061615  83.7932963
  10.1412095  20.5464143  84.8710232  18.4012767  14.3703272  82.3254389
  18.2630666  14.5604868  81.3975578  18.0448986  15.1322654  82.7822440
  18.4282147  16.4379799  87.3365660  18.8618653  16.3455088  88.1848714
  19.1413727  16.4137299  86.6985676   7.3415197  17.6563797  84.5186393
   8.1355796  17.1614117  84.3168968   6.6306890  17.1281660  84.1554099
  12.1610042  20.0381893  88.8698761  12.2147064  20.6072829  89.6376477
  11.2924823  20.2083778  88.5052798  10.5134625  23.3301916  79.5409767
  10.6886381  22.8589959  80.3555390   9.8267413  23.9567682  79.7691028
  11.4691688  17.6074422  85.5873068  11.1341521  17.5675192  86.4830718
  10.9695634  16.9419138  85.1143478  14.4050880  14.9530456  75.8610128
  13.7880051  14.2277284  75.7643181  13.9367368  15.7139817  75.5177202
   5.0795710  26.4791278  86.3149627   5.3192309  27.1109803  86.9928646
   4.2364907  26.1279318  86.6014986   9.5923572  22.2870401  88.7191131
   9.5193744  23.0925372  89.2310436   9.1500965  22.4862367  87.8939153
   9.3813352  21.5242171  82.2293953   8.5980874  22.0663851  82.3232177
  10.0806097  22.0416151  82.6288194  20.5439759  13.0377166  86.5146450
  20.5329636  13.9201881  86.1440383  19.6757139  12.6848717  86.3200987
  13.7739783  16.0908488  82.4466581  12.8396061  16.2109950  82.2771286
  13.9516451  15.1880954  82.1826591  17.1612334  11.9325807  82.9816616
  17.6272786  12.7653798  82.9076918  17.6119835  11.4670788  83.6861874
  15.2288565  18.2769628  79.9802768  15.5048409  18.1626223  80.8896642
  14.3593064  17.8787113  79.9414941  11.8642629  22.5255979  83.6235581
  12.0465024  21.7077635  84.0863334  12.6875615  22.7423671  83.1860471
  12.1984795  21.4524164  80.8850630  12.7272561  20.9416619  80.2720792
  12.4613014  21.1366694  81.7496163   5.5540543  22.5039281  83.6448406
   4.8850918  22.9885408  83.1612446   5.4153412  22.7508501  84.5591784
   9.6945811  24.5383024  90.2431064  10.2464119  24.7014646  91.0080149
  10.0352005  25.1287462  89.5711089  12.8314198  22.4865000  87.2294746
  12.7065338  21.6854740  86.7205692  13.4893290  22.9811193  86.7408716
  14.8949107  20.2874020  88.8574296  13.9479442  20.1679371  88.7852623
  15.2431880  19.3996518  88.9400558  11.8995540  20.0826736  85.0578649
  11.7520503  19.1543444  85.2386219  12.7249034  20.1046827  84.5735724
  15.5029662  20.9055295  86.1443521  16.4276209  20.6998156  86.0067972
  15.3344965  20.6571696  87.0532863  15.2924978  21.4240962  81.5005613
  15.4661856  20.8587385  80.7479465  15.7853869  22.2241857  81.3185103
  21.1464369  14.1877385  83.1195912  21.5895515  13.4384710  82.7215036
  20.2690880  14.1787522  82.7369644  16.2800151  20.7407727  78.6002511
  16.9751055  21.3614419  78.8189826  16.6223301  19.8903078  78.8754889
  18.1791574  18.1907432  80.1289842  18.7042898  18.5294705  79.4039162
  18.0913926  17.2554448  79.9452976   9.8632235  24.2579416  84.4885095
   9.4237225  23.7655794  85.1817952  10.6140351  23.7152383  84.2477170
   2.3424574  20.4490956  84.4909723   3.1682593  20.1494728  84.1108367
   1.9918626  19.6798579  84.9399512   7.3106107  19.8017425  86.5607397
   6.6886116  19.1388130  86.2609625   7.9810974  19.8278557  85.8781044
   6.8719614  18.3521348  80.0365857   7.0207734  19.0356812  79.3832530
   7.6786057  18.3326438  80.5515313  20.6897234  15.6582624  85.5118360
  21.5244125  16.0972428  85.6755920  20.8256363  15.1821277  84.6926606
  10.3715019  20.8469478  77.5077605   9.7988986  21.4659666  77.0548076
  10.9447813  21.3968840  78.0417527  13.5912279  21.1306629  78.6386187
  14.5242952  21.0652190  78.8419062  13.5035492  21.9662895  78.1800720
  16.2200296  20.4472499  75.5990134  16.1413927  20.1132363  76.4925892
  17.0409962  20.9394267  75.5981607  10.7561818  12.1830291  74.8493657
  11.7020922  12.0536499  74.9182075  10.3776063  11.4444953  75.3263085
  24.7355037  14.3750245  87.9472490  25.4658425  14.1135533  88.5080193
  24.1261982  13.6378967  87.9874558  22.8170334  12.5158108  88.5446941
  22.0903497  12.3814073  87.9363433  22.4017621  12.8234936  89.3503659
  14.6461034   7.9995820  81.1252093  13.7586889   8.2845470  80.9072288
  15.0615023   7.8389583  80.2779370   2.6545284  22.5803571  86.2123537
   2.5199752  21.8203972  85.6461536   2.2377347  23.3044471  85.7452326
  13.7904247  17.7640494  75.2200113  14.4940097  17.9690497  75.8357768
  13.0666896  18.3317256  75.4849196  14.6202058  13.5150356  81.3402383
  14.5637259  13.9718907  80.5010015  15.1730400  12.7541040  81.1625226
  18.4306864   9.3040087  82.1652502  18.1743798   8.9036723  82.9960710
  17.8059732  10.0183881  82.0402642  22.7419201  12.0436161  84.6723794
  22.1818759  12.1129350  85.4455356  22.1362705  11.8677145  83.9523290
   5.8114410  23.4772888  86.4241980   5.6946794  24.4218320  86.3220670
   4.9906856  23.1746449  86.8127779  15.6990945  18.2023023  77.2698573
  16.5336549  17.7704222  77.0876048  15.5375288  18.0305037  78.1975467
  15.3536837  14.7055137  78.6354912  15.2985641  14.5399408  77.6943356
  14.7282892  15.4131170  78.7917102   8.5922526  22.8832136  86.3007987
   7.6418157  22.8833998  86.1872359   8.8955013  22.1364871  85.7844022
  24.3275220  28.7192675  87.3653750  24.9653630  28.5999422  86.6617090
  24.2096063  29.6673519  87.4241702  21.1364926  28.6720103  87.3015274
  20.7983438  28.5561167  86.4135809  22.0054694  28.2711268  87.2816280
  16.9951742  30.5255579  83.2912165  16.4316607  30.4345516  82.5228453
  16.8804137  29.7055484  83.7714658  21.6184709  29.8254954  93.2601480
  21.6073350  29.4307753  92.3881983  21.7805349  29.0921027  93.8535251
  14.5416174  32.0206771  86.1296386  15.3337466  31.6797595  85.7142685
  14.7812824  32.1301746  87.0498539  22.5751301  34.1926547  78.6026630
  21.9239280  34.7780627  78.2160644  23.3695663  34.7232742  78.6621668
  16.5006928  31.2815684  79.0013764  17.2737804  30.7344671  78.8626640
  16.8532327  32.1459933  79.2128226  18.3391970  32.6092066  92.2080664
  18.0481836  33.5137697  92.0927330  18.9748955  32.6508594  92.9224733
  19.2648177  29.9868915  88.7982023  19.8611749  29.7624937  88.0838986
  19.3223149  29.2453660  89.4007471  18.8373206  27.4408350  76.6332214
  19.0898726  26.9189871  75.8715677  17.8997765  27.2774496  76.7358898
  23.8816488  26.4444128  84.4406958  24.6679578  26.0263552  84.0897375
  24.1455193  27.3490221  84.6088606  24.0526566  31.8816979  79.1395614
  23.4172399  31.9551605  79.8516519  23.7223972  32.4710578  78.4614694
  29.2824915  26.3819362  85.3439936  30.0150087  25.8118578  85.5777766
  28.5264271  25.9940962  85.7846442  18.5569494  29.3436456  78.8356589
  18.4405752  28.6681359  79.5037674  18.6671754  28.8568830  78.0188742
  20.9001035  28.8046603  82.5403279  20.5359242  28.2777224  83.2516200
  21.7568151  28.4145072  82.3669764  26.8050336  20.0940936  89.8034545
  26.4733661  20.9636347  89.5795760  26.2095949  19.7777220  90.4828575
  20.5406522  23.8336503  77.5364627  20.7080925  24.7016739  77.9035098
  20.3503691  23.9963785  76.6125916  23.2981855  32.2953482  89.2030457
  22.9982578  33.1978521  89.0946265  22.9532915  32.0285665  90.0551610
  16.7494337  28.7467279  85.2367162  15.8244833  28.6143493  85.4444854
  16.9978750  29.5261498  85.7337104  26.6978999  24.8136022  86.8827895
  25.7895876  24.7451430  86.5886656  26.6466595  25.2907967  87.7109720
  20.5195743  26.2894160  78.5211294  20.3995368  26.7351211  79.3596774
  19.8248331  26.6379478  77.9624832  14.1103148  28.3900552  86.0710951
  14.2395529  28.6435031  86.9850363  13.4300599  28.9828260  85.7515606
  18.2802635  39.0597802  82.1701425  18.2026665  40.0105627  82.2489906
  17.6764279  38.7143675  82.8276351  20.7719865  26.2325668  94.8262792
  19.9953199  26.7919588  94.8165657  21.4110428  26.7182451  95.3477662
  28.5640646  23.0152460  88.6605769  27.9215026  23.3084994  88.0145563
  28.0595574  22.9005381  89.4658965  26.2180809  26.7615634  79.3491628
  27.1298665  26.9943020  79.1739326  25.7090456  27.3452678  78.7866707
  19.0266237  29.0411121  94.3880759  19.7680922  29.5796165  94.1115583
  18.3203223  29.6677410  94.5452311  24.5021577  31.1840261  92.9852921
  24.9104933  30.7422672  92.2407553  23.7798838  30.6092889  93.2387113
  20.8552647  26.1212868  90.3586478  21.7013842  26.5452282  90.5021127
  20.7951285  25.4646492  91.0525041  24.8250392  31.7441452  86.7405209
  24.1959254  31.9087166  86.0381277  24.4376054  32.1583062  87.5116173
  28.7039623  32.6795890  84.0949573  28.0190662  33.0594791  83.5446607
  28.7883473  33.2891216  84.8281521  24.0052092  23.7817236  92.0167651
  23.7613024  24.5359297  91.4801927  24.2812023  24.1602584  92.8514898
  25.9590555  30.3255849  90.6944917  26.1707450  30.9687609  90.0179298
  25.9120303  29.4918165  90.2266847  23.5616784  22.9373670  87.5981489
  22.7001263  23.2354923  87.8898226  23.5879219  23.1544068  86.6662522
  20.3778353  31.4815860  84.0055295  20.8416699  31.7603563  83.2159917
  20.1135151  30.5799305  83.8228385  17.2702434  31.0287342  86.9435058
  17.8403792  31.4574610  86.3052542  17.8610546  30.7469926  87.6419243
  19.3147239  27.6039012  80.8144860  20.0171283  28.0560056  81.2818786
  18.9827868  26.9622831  81.4424753  17.7627601  26.1950769  95.1896069
  17.1326262  26.8767050  95.4231466  17.6563689  26.0833851  94.2449207
  13.0572573  25.8622565  86.1161993  12.2671627  26.1180094  85.6402104
  13.5483821  26.6770903  86.2214034  27.0736383  33.2027804  88.8667274
  27.8953827  32.8007992  88.5849956  27.0698786  33.0996038  89.8183390
  15.0087319  26.2267144  83.0745470  14.2118482  26.3385839  83.5928966
  14.7812911  26.5653797  82.2086360  20.8392986  32.7511848  91.0227985
  20.9037419  33.2132255  91.8586156  20.1303910  32.1209212  91.1510294
  11.3410276  26.1153056  88.5476984  11.5918315  27.0000065  88.8134560
  11.8769825  25.9357657  87.7752076  35.1642376  29.5466553  85.2152246
  34.4106084  28.9773951  85.0596250  35.2989917  29.5129217  86.1622880
  20.5541004  34.4179955  80.8906965  20.4186679  35.2631491  81.3191813
  21.0950817  34.6199233  80.1272899  14.0070401  31.9355393  81.4634890
  14.5194922  32.7298643  81.6140455  14.6593114  31.2381684  81.3968491
  15.8165286  35.0521149  83.5457643  15.9931914  35.9739114  83.3578627
  16.6122120  34.7379569  83.9752023  15.1017643  27.0985781  93.4219806
  14.9871158  26.1971039  93.7226905  14.2462160  27.3449478  93.0704623
  22.1809480  35.0403522  95.0207307  21.7373335  34.2539900  94.7028211
  22.8426694  35.2282672  94.3551198  16.9396602  36.5699323  89.5467985
  17.4904027  36.4416387  88.7744979  16.1008078  36.8694212  89.1962878
  24.2790719  35.3206322  93.0488708  24.2609194  36.1415203  92.5568977
  25.2010639  35.1960397  93.2738849  20.7363773  32.8350451  93.8912217
  21.2692109  32.0738739  93.6611525  20.2077854  32.5424103  94.6336371
  23.9033468  17.9410517  89.4205858  23.5597737  18.8312159  89.3444969
  24.2712430  17.7512175  88.5575443  11.9719318  30.2644047  82.2394461
  12.8094540  30.6741056  82.0228168  12.1497586  29.3243490  82.2094654
  23.8683750  27.9319128  77.9278293  23.3530374  28.7023733  78.1666681
  23.5961059  27.2584264  78.5511355  21.4530861  22.7768829  82.9863532
  20.5972458  22.3875679  82.8069171  21.8657813  22.8560790  82.1263317
  22.9830008  20.3115172  87.3855092  22.4794804  20.2745307  86.5722897
  23.2760615  21.2207915  87.4451748  19.2272894  20.3953902  86.3921273
  20.0925891  20.1996711  86.0327163  19.2950403  20.1664254  87.3190630
  28.8418024  30.6851483  79.8631467  28.0647467  30.3462642  79.4186629
  29.5209505  30.6904106  79.1886432  23.6570054  25.8046220  79.7538075
  23.3520189  26.1192369  80.6048218  24.6100496  25.8827640  79.7965408
  22.1016485  31.9636443  81.4031029  21.5737847  31.2289203  81.0904266
  21.6003988  32.7411120  81.1570997  27.0809331  30.1585464  86.5198075
  26.4233006  30.8484725  86.6078204  27.8849731  30.5481896  86.8632061
  16.8335213  22.6256110  83.7637640  17.4078965  22.4031291  83.0310833
  17.4206195  22.6944804  84.5166241  25.8914790  28.5129837  84.5702017
  26.4046672  29.1459828  85.0723726  26.5416014  27.9131032  84.2045377
  17.1604800  24.6560571  77.7833525  16.3242112  24.9935257  78.1042800
  17.0209570  24.5209551  76.8460662  19.1357881  19.4997359  82.4912710
  18.4822293  19.1846376  81.8669324  19.0938355  18.8773099  83.2172533
  20.2469086  29.7816654  74.4066002  19.3396147  29.5505907  74.6057151
  20.7440118  28.9854273  74.5939983  23.1537164  38.4914161  77.3262688
  22.4798863  38.7945858  77.9347646  23.5402986  39.2943241  76.9768145
  22.3695621  25.9879292  86.8160357  21.4518182  26.2094239  86.6582045
  22.7855765  26.0625603  85.9572065  23.1530669  27.3870708  81.9463037
  23.9002488  27.8992105  81.6370160  23.4222258  27.0654761  82.8067431
  21.4257319  29.8829249  78.9289992  20.5168538  29.5988281  79.0262462
  21.4552403  30.3028327  78.0693299  26.6576586  33.4935838  82.6981159
  26.2038914  32.6526748  82.7546350  26.0270553  34.1297236  83.0355939
  25.6009506  24.4227824  83.9281827  24.8632263  23.9105210  84.2592069
  25.8536280  23.9828206  83.1165104  25.1009526  35.3312335  83.6330977
  25.3932500  35.8917392  82.9143343  25.6108146  35.6240896  84.3884137
  25.7021133  17.2004076  84.5223596  26.0080010  16.3401440  84.2349511
  26.4273738  17.7921696  84.3222590  11.9945489  27.6034763  82.9105194
  11.7969889  27.0104123  82.1856261  11.4392153  27.2986973  83.6281133
  19.9742213  27.4957869  85.0299787  20.0290823  26.5431706  84.9542264
  19.1633415  27.6517308  85.5141086  21.1233407  31.4237992  76.2678070
  20.6852837  30.7073851  75.8083708  21.8643848  31.6514107  75.7063162
  17.9134573  26.1134929  82.7890166  17.1002438  26.4129099  83.1955358
  18.4093567  25.7190618  83.5064648  20.0643151  36.1092686  84.7224431
  20.0219330  36.3353532  83.7932963  20.9805850  35.8756060  84.8710232
  23.5108785  26.5776753  91.6205060  23.8658172  26.8048227  92.4799526
  24.1580916  26.9095130  90.9982315  29.2406522  29.6995189  82.3254389
  29.1024420  29.8896785  81.3975578  28.8842740  30.4614572  82.7822440
  17.4048648  23.6853284  88.4051401  18.0448027  23.5442044  87.7074364
  16.5726178  23.3987798  88.0290003  29.2675901  31.7671716  87.3365660
  29.7012408  31.6747005  88.1848714  29.9807482  31.7429217  86.6985676
  18.1808952  32.9855715  84.5186393  18.9749550  32.4906035  84.3168968
  17.4700644  32.4573578  84.1554099  23.0003796  35.3673810  88.8698761
  23.0540818  35.9364747  89.6376477  22.1318577  35.5375695  88.5052798
  14.4891715  27.1298797  80.5946146  13.5589303  27.0683252  80.8116108
  14.5849187  26.6074749  79.7982787  14.4077264  23.6553609  83.1824388
  14.6684081  24.5698943  83.0733548  15.2294436  23.1878052  83.3321001
  15.8802189  25.0691367  90.3523212  16.5525243  24.8608729  89.7035861
  15.0531976  24.8713453  89.9128445  30.1291451  31.8095417  89.8698546
  30.3227341  32.7141227  90.1157821  30.0292069  31.3502836  90.7037131
  21.7827761  21.6953308  92.3688873  21.1355677  22.3943257  92.2753350
  22.5528777  22.1289451  92.7365121  25.1906559  31.9602160  95.4439426
  25.0392066  31.7312711  94.5269510  25.1811239  32.9172761  95.4570771
  21.9591896  29.5334072  90.4285693  22.8883956  29.6845232  90.2554660
  21.5382926  29.6218093  89.5734339  20.7580228  33.5584737  88.1984230
  20.6191313  33.1903521  89.0710169  19.9694824  34.0732376  88.0268188
  21.3528380  38.6593833  79.5409767  21.5280135  38.1881877  80.3555390
  20.6661168  39.2859600  79.7691028  22.3085443  32.9366340  85.5873068
  21.9735275  32.8967110  86.4830718  21.8089388  32.2711055  85.1143478
  16.2829687  28.3433970  91.1125649  16.1449485  27.6114208  91.7137188
  17.1934610  28.2542870  90.8309837  25.2444634  30.2822374  75.8610128
  24.6273805  29.5569202  75.7643181  24.7761123  31.0431734  75.5177202
  18.9111987  28.0553929  90.6009329  19.6211606  27.4147121  90.5595948
  18.8681296  28.3066824  91.5235510  26.8998766  34.9921282  93.5215908
  26.8411312  34.3080502  92.8546491  27.3018284  35.7340272  93.0696534
  17.6240921  25.0419147  92.4204969  17.0878278  24.5909885  93.0726565
  17.0357630  25.1765056  91.6775433  15.9189465  41.8083196  86.3149627
  16.1586063  42.4401720  86.9928646  15.0758661  41.4571236  86.6014986
  17.0343180  24.5007798  74.9831432  16.1572647  24.3796599  74.6193679
  17.5100933  23.7093877  74.7310321  26.9016173  32.9560866  91.7529888
  26.0142952  32.6186788  91.8756287  27.4714724  32.2243897  91.9898653
   8.5545320  29.2884958  85.0772939   9.2416360  28.9746688  84.4893955
   8.3993449  30.1926323  84.8040191  13.3580043  24.1775155  89.5057963
  13.2738231  23.5700824  88.7708373  12.5362749  24.6684173  89.5067459
  20.4317327  37.6162319  88.7191131  20.3587498  38.4217290  89.2310436
  19.9894720  37.8154284  87.8939153  20.2207106  36.8534089  82.2293953
  19.4374628  37.3955769  82.3232177  20.9199852  37.3708068  82.6288194
  23.5303756  22.6628718  84.8728158  24.0272456  21.9098680  84.5529228
  22.7590738  22.6993035  84.3071367  31.3833514  28.3669084  86.5146450
  31.3723390  29.2493799  86.1440383  30.5150893  28.0140634  86.3200987
  22.8916010  37.5149153  90.8749290  23.6043982  38.1496617  90.8025191
  22.4006039  37.6113019  90.0589292  24.6133537  31.4200405  82.4466581
  23.6789816  31.5401868  82.2771286  24.7910206  30.5172872  82.1826591
  20.1138725  24.8046101  84.5999843  19.7436513  24.2517141  85.2880748
  20.6097818  24.2004235  84.0474843  28.0006089  27.2617725  82.9816616
  28.4666541  28.0945716  82.9076918  28.4513589  26.7962706  83.6861874
  17.9427924  35.2643596  91.6954861  18.6437383  35.8980079  91.8484255
  17.4723039  35.6058328  90.9350500  26.0682320  33.6061546  79.9802768
  26.3442164  33.4918140  80.8896642  25.1986818  33.2079031  79.9414941
  25.9722751  19.6298312  87.0207517  25.0585831  19.8602538  87.1889724
  26.4015853  19.7136756  87.8721549  25.7429210  27.8188203  89.5207411
  25.0900660  28.0664111  88.8659864  26.1209590  27.0052342  89.1869888
  22.7036384  37.8547897  83.6235581  22.8858778  37.0369553  84.0863334
  23.5269370  38.0715589  83.1860471  23.0378549  36.7816082  80.8850630
  23.5666316  36.2708536  80.2720792  23.3006769  36.4658612  81.7496163
  21.7916783  28.5608015  96.0073448  21.1157420  28.4602144  96.6775823
  22.6144417  28.4047228  96.4709445  13.5395642  34.7979951  88.6285963
  14.1249079  34.0523639  88.7613868  13.3420480  35.1083908  89.5122627
  16.3934297  37.8331198  83.6448406  15.7244672  38.3177326  83.1612446
  16.2547167  38.0800419  84.5591784   8.1313297  27.3685551  87.3490406
   8.1697396  26.8349142  88.1427525   7.6253589  26.8420757  86.7301384
  20.5339566  39.8674942  90.2431064  21.0857874  40.0306564  91.0080149
  20.8745759  40.4579380  89.5711089  15.5104059  22.2150092  90.8452949
  15.5745385  23.0764923  90.4330346  15.4471179  21.6024093  90.1125307
  25.3850440  34.6936200  96.0979719  25.9290344  35.3066158  95.6034673
  24.8037285  35.2515778  96.6146732  11.7621874  26.0949653  80.4244338
  12.0575315  25.1860332  80.3711392  10.8609910  26.0737393  80.1025340
  23.6707953  37.8156918  87.2294746  23.5459092  37.0146657  86.7205692
  24.3287044  38.3103111  86.7408716  15.2916121  24.1705650  86.4071886
  14.5702707  24.7841618  86.2679360  16.0809377  24.7063415  86.3288532
  25.7342861  35.6165938  88.8574296  24.7873197  35.4971289  88.7852623
  26.0825634  34.7288436  88.9400558  13.4909716  23.7763751  80.5483663
  13.1622422  22.8961130  80.3658769  13.8449086  23.7211420  81.4360052
  22.7389295  35.4118654  85.0578649  22.5914257  34.4835361  85.2386219
  23.5642788  35.4338745  84.5735724  16.6051539  24.0636721  80.9159141
  16.9447611  24.5922642  80.1937749  17.0523659  24.4017127  81.6917707
  26.3423416  36.2347213  86.1443521  27.2669964  36.0290074  86.0067972
  26.1738720  35.9863614  87.0532863  19.2994980  22.4473772  90.3662209
  18.9591800  21.6481585  90.7682889  18.5933986  22.7475482  89.7939042
  19.9511452  19.5323084  88.8189532  20.7737521  19.0583562  88.6968422
  20.1949515  20.3113568  89.3188218  18.5919686  22.5611343  79.1152433
  19.3128049  22.9392595  78.6116150  17.9684990  23.2800219  79.2187411
  22.7350809  23.2656491  80.0510766  22.9514423  24.1481129  79.7499594
  22.2544876  22.8742705  79.3216408  17.4750030  26.2242205  86.6281510
  17.3294611  26.5382508  87.5205792  16.9975234  26.8427105  86.0752409
  19.3346413  23.2144753  86.6762400  19.3207982  22.3185846  86.3394698
  20.0518841  23.2215416  87.3100686  21.1872544  23.6482093  88.7215527
  20.9290322  24.5699164  88.7199858  20.6557584  23.2512527  89.4115992
  26.1318733  36.7532880  81.5005613  26.3055610  36.1879302  80.7479465
  26.6247624  37.5533775  81.3185103  11.9495692  28.7647549  89.5669172
  11.4049161  29.5407357  89.6989446  12.8275042  29.1118354  89.4088293
  18.7383309  22.0959133  81.9449970  18.8599220  21.1675779  82.1440858
  18.4485351  22.1097819  81.0328286  21.6074500  19.7814043  85.0816690
  21.6296196  19.8453376  84.1268669  22.0242559  18.9418552  85.2757196
  31.9858124  29.5169303  83.1195912  32.4289270  28.7676628  82.7215036
  31.1084634  29.5079439  82.7369644  27.1193905  36.0699644  78.6002511
  27.8144810  36.6906337  78.8189826  27.4617055  35.2194996  78.8754889
  12.7361714  27.8917445  92.4599328  11.9943450  28.0400081  93.0463959
  12.4154459  28.1525711  91.5966078  29.0185328  33.5199350  80.1289842
  29.5436652  33.8586623  79.4039162  28.9307681  32.5846365  79.9452976
  20.6805377  37.4333424  92.2579718  20.9892503  37.1882570  93.1302418
  21.4780859  37.6380062  91.7698589  20.7025989  39.5871333  84.4885095
  20.2630979  39.0947712  85.1817952  21.4534106  39.0444301  84.2477170
  13.1818328  35.7782874  84.4909723  14.0076348  35.4786646  84.1108367
  12.8312380  35.0090497  84.9399512  18.1499861  35.1309342  86.5607397
  17.5279870  34.4680047  86.2609625  18.8204728  35.1570474  85.8781044
  11.3826933  33.6969201  85.4498657  10.5458841  33.2691375  85.2682658
  11.3550578  33.8901644  86.3869448  28.7079234  34.1532254  95.4341040
  27.9174778  34.1356392  94.8945539  28.4712589  34.6920547  96.1890076
  28.8277109  31.0024720  92.7473768  28.8775114  30.8374727  93.6889291
  28.7191033  30.1351979  92.3571649  17.7113368  33.6813266  80.0365857
  17.8601488  34.3648730  79.3832530  18.5179812  33.6618356  80.5515313
  26.1180872  26.9855648  94.0633075  27.0190735  26.8462113  93.7717073
  26.1928846  27.1510103  95.0031252  20.4523677  24.3622503  92.9086261
  19.5826987  24.6556069  92.6368850  20.6883157  24.9462948  93.6293525
  30.3295306  33.4221661  92.9915790  30.0380115  33.7851642  93.8279251
  29.7167438  32.7088670  92.8129122  31.5290989  30.9874541  85.5118360
  32.3637880  31.4264345  85.6755920  31.6650117  30.5113194  84.6926606
  28.5782494  28.5454276  91.4595848  29.0536616  28.7381922  90.6514699
  27.6548060  28.6013462  91.2139231  15.4666001  29.7078443  81.0426926
  15.2212043  28.8040773  81.2407136  15.6361916  29.7095594  80.1006404
  23.1562711  20.5802120  90.4251682  23.6744655  21.3163147  90.0998170
  22.8017844  20.8866113  91.2598441  14.7361649  25.4406801  78.5413088
  14.0430894  25.5151156  77.8853124  14.4913401  24.6767144  79.0634604
  23.4075305  17.0002402  85.9452578  23.6877059  16.3325591  86.5713005
  24.1925912  17.1931498  85.4327242  21.2108774  36.1761396  77.5077605
  20.6382741  36.7951583  77.0548076  21.7841567  36.7260758  78.0417527
  27.2784163  25.4220036  89.6924153  28.2301586  25.5218134  89.7136377
  27.1087614  24.6298305  90.2022238  25.2998543  22.5075619  89.8783554
  24.7048475  22.7880632  89.1830043  25.0148240  22.9969520  90.6500295
  24.4306033  36.4598546  78.6386187  25.3636707  36.3944108  78.8419062
  24.3429246  37.2954813  78.1800720  27.0594050  35.7764417  75.5990134
  26.9807682  35.4424280  76.4925892  27.8803717  36.2686184  75.5981607
  29.7572241  28.6426156  88.8066453  29.7248561  27.7042157  88.9926137
  30.3672865  28.7210193  88.0732278  21.5955572  27.5122209  74.8493657
  22.5414677  27.3828417  74.9182075  21.2169817  26.7736871  75.3263085
  29.9066730  25.4337199  88.8524736  29.3905778  24.6495656  88.6654665
  30.7906678  25.1055916  89.0171256  27.5677457  19.1778215  84.8120549
  27.3702278  18.8693303  85.6963881  28.1777162  19.9039854  84.9418479
  35.5748791  29.7042163  87.9472490  36.3052180  29.4427451  88.5080193
  34.9655737  28.9670885  87.9874558  33.6564088  27.8450025  88.5446941
  32.9297252  27.7105990  87.9363433  33.2411375  28.1526854  89.3503659
  21.4794265  31.5639955  96.3094314  22.3997274  31.7418554  96.5034361
  21.4443848  30.6196000  96.1574013  19.7798489  25.4372185  74.7848542
  18.8729945  25.1405298  74.8611256  20.0574470  25.1402003  73.9182829
  10.6976430  26.7578549  85.2347589  10.3779214  25.9043857  84.9421963
  10.1509858  26.9727127  85.9905556  14.4756337  29.4740990  88.9517095
  14.6942347  30.4058097  88.9705129  14.8882111  29.1148964  89.7371899
  21.3960555  19.9809075  80.9392784  20.5861283  19.6356160  81.3148030
  22.0844972  19.6716619  81.5280395  23.3251103  19.0587122  82.5617080
  23.8782142  19.4782575  83.2207103  23.5621190  18.1322870  82.6040036
  18.5497274  22.2959120  74.9260522  19.4116438  22.6214019  75.1856339
  18.7347618  21.5090616  74.4133587  10.5664690  30.3781460  87.2040710
   9.8728161  29.9635413  86.6910665  11.3137681  30.4201997  86.6074129
  26.7029910  21.1687647  82.0695745  26.1228579  21.8272451  81.6873797
  26.4365843  20.3464992  81.6583162  25.1533477  20.5692705  84.2717065
  25.6533255  20.6809239  83.4631384  25.7969085  20.2653757  84.9117873
  19.2115473  28.4771334  97.1584906  18.7282554  29.2771694  97.3648795
  19.2976412  28.4879279  96.2052350  12.4801432  30.3099714  85.0806725
  12.4572120  30.4087401  84.1288608  12.7902069  31.1564865  85.4023891
  15.1388810  32.3675869  89.1953340  16.0932064  32.3359811  89.1283271
  14.9401334  31.9066493  90.0103566  15.7288192  30.9376985  91.7624137
  16.5481081  31.4321064  91.7858975  16.0025000  30.0208953  91.7341705
  25.4854788  23.3287737  81.1252093  24.5980643  23.6137388  80.9072288
  25.9008777  23.1681501  80.2779370  28.8369325  23.3534258  84.8406432
  29.6129715  23.8430711  85.1131049  28.1117459  23.7792312  85.2978302
  31.2741883  24.0661878  85.8980373  31.8686374  23.8257613  85.1873681
  31.3468467  23.3469008  86.5253909  13.4939039  37.9095488  86.2123537
  13.3593507  37.1495889  85.6461536  13.0771101  38.6336388  85.7452326
  24.6298002  33.0932412  75.2200113  25.3333852  33.2982414  75.8357768
  23.9060651  33.6609174  75.4849196  25.4595812  28.8442273  81.3402383
  25.4031014  29.3010825  80.5010015  26.0124155  28.0832958  81.1625226
  29.2700618  24.6332005  82.1652502  29.0137552  24.2328641  82.9960710
  28.6453486  25.3475799  82.0402642  33.5812956  27.3728078  84.6723794
  33.0212514  27.4421268  85.4455356  32.9756459  27.1969063  83.9523290
  16.6508165  38.8064805  86.4241980  16.5340549  39.7510238  86.3220670
  15.8300611  38.5038367  86.8127779  26.5384699  33.5314941  77.2698573
  27.3730303  33.0996140  77.0876048  26.3769042  33.3596955  78.1975467
  26.1930591  30.0347054  78.6354912  26.1379395  29.8691326  77.6943356
  25.5676647  30.7423087  78.7917102  23.5076499  32.3395966  97.9608475
  24.3767658  32.5136619  97.5995110  23.0283250  33.1590383  97.8384204
  19.5026717  19.5355163  78.2140231  19.4905387  20.4797003  78.3708501
  20.3950139  19.3525309  77.9199692  17.6762679  39.4593067  89.6397909
  18.5789926  39.4916678  89.9564404  17.4500049  38.5293518  89.6544244
  19.4316281  38.2124054  86.3007987  18.4811912  38.2125916  86.1872359
  19.7348767  37.4656788  85.7844022  23.3178836  16.1297940  82.4686167
  22.5511232  15.5756427  82.6142850  23.7289541  16.2019809  83.3300319
  35.1668974  44.0484592  87.3653750  35.8047384  43.9291340  86.6617090
  35.0489817  44.9965436  87.4241702  31.9758681  44.0012020  87.3015274
  31.6377192  43.8853085  86.4135809  32.8448449  43.6003185  87.2816280
  27.8345496  45.8547497  83.2912165  27.2710361  45.7637434  82.5228453
  27.7197891  45.0347401  83.7714658  32.4578464  45.1546872  93.2601480
  32.4467104  44.7599670  92.3881983  32.6199103  44.4212945  93.8535251
  25.3809928  47.3498688  86.1296386  26.1731220  47.0089513  85.7142685
  25.6206578  47.4593663  87.0498539  33.4145055  49.5218465  78.6026630
  32.7633035  50.1072545  78.2160644  34.2089418  50.0524659  78.6621668
  27.3400682  46.6107602  79.0013764  28.1131558  46.0636589  78.8626640
  27.6926081  47.4751851  79.2128226  29.1785725  47.9383984  92.2080664
  28.8875591  48.8429615  92.0927330  29.8142709  47.9800512  92.9224733
  30.1041932  45.3160832  88.7982023  30.7005504  45.0916855  88.0838986
  30.1616903  44.5745578  89.4007471  29.6766960  42.7700268  76.6332214
  29.9292481  42.2481789  75.8715677  28.7391519  42.6066413  76.7358898
  34.7210243  41.7736046  84.4406958  35.5073332  41.3555469  84.0897375
  34.9848947  42.6782138  84.6088606  34.8920320  47.2108896  79.1395614
  34.2566153  47.2843523  79.8516519  34.5617727  47.8002495  78.4614694
  40.1218670  41.7111279  85.3439936  40.8543842  41.1410496  85.5777766
  39.3658026  41.3232880  85.7846442  29.3963249  44.6728374  78.8356589
  29.2799507  43.9973277  79.5037674  29.5065509  44.1860748  78.0188742
  31.7394790  44.1338521  82.5403279  31.3752997  43.6069142  83.2516200
  32.5961906  43.7436990  82.3669764  37.6444090  35.4232853  89.8034545
  37.3127415  36.2928264  89.5795760  37.0489704  35.1069137  90.4828575
  31.3800277  39.1628421  77.5364627  31.5474679  40.0308657  77.9035098
  31.1897446  39.3255702  76.6125916  34.1375610  47.6245399  89.2030457
  33.8376333  48.5270438  89.0946265  33.7926669  47.3577583  90.0551610
  27.5888091  44.0759196  85.2367162  26.6638588  43.9435410  85.4444854
  27.8372505  44.8553416  85.7337104  37.5372754  40.1427940  86.8827895
  36.6289631  40.0743348  86.5886656  37.4860349  40.6199885  87.7109720
  31.3589498  41.6186078  78.5211294  31.2389123  42.0643129  79.3596774
  30.6642086  41.9671396  77.9624832  24.9496902  43.7192470  86.0710951
  25.0789284  43.9726949  86.9850363  24.2694354  44.3120178  85.7515606
  29.1196390  54.3889720  82.1701425  29.0420419  55.3397545  82.2489906
  28.5158033  54.0435592  82.8276351  31.6113619  41.5617585  94.8262792
  30.8346953  42.1211505  94.8165657  32.2504182  42.0474368  95.3477662
  39.4034400  38.3444378  88.6605769  38.7608780  38.6376911  88.0145563
  38.8989329  38.2297298  89.4658965  37.0574564  42.0907551  79.3491628
  37.9692420  42.3234938  79.1739326  36.5484211  42.6744595  78.7866707
  29.8659992  44.3703039  94.3880759  30.6074676  44.9088083  94.1115583
  29.1596977  44.9969327  94.5452311  35.3415331  46.5132179  92.9852921
  35.7498687  46.0714590  92.2407553  34.6192593  45.9384807  93.2387113
  31.6946401  41.4504786  90.3586478  32.5407597  41.8744199  90.5021127
  31.6345039  40.7938410  91.0525041  35.6644146  47.0733370  86.7405209
  35.0353008  47.2379084  86.0381277  35.2769808  47.4874979  87.5116173
  39.5433378  48.0087808  84.0949573  38.8584416  48.3886709  83.5446607
  39.6277227  48.6183134  84.8281521  34.8445847  39.1109154  92.0167651
  34.6006779  39.8651215  91.4801927  35.1205777  39.4894502  92.8514898
  36.7984310  45.6547767  90.6944917  37.0101205  46.2979526  90.0179298
  36.7514058  44.8210083  90.2266847  34.4010538  38.2665587  87.5981489
  33.5395018  38.5646841  87.8898226  34.4272973  38.4835986  86.6662522
  31.2172108  46.8107778  84.0055295  31.6810453  47.0895481  83.2159917
  30.9528906  45.9091222  83.8228385  28.1096189  46.3579259  86.9435058
  28.6797546  46.7866528  86.3052542  28.7004301  46.0761844  87.6419243
  30.1540994  42.9330930  80.8144860  30.8565037  43.3851974  81.2818786
  29.8221622  42.2914749  81.4424753  28.6021355  41.5242687  95.1896069
  27.9720016  42.2058968  95.4231466  28.4957443  41.4125768  94.2449207
  23.8966328  41.1914483  86.1161993  23.1065382  41.4472011  85.6402104
  24.3877575  42.0062821  86.2214034  37.9130137  48.5319722  88.8667274
  38.7347581  48.1299909  88.5849956  37.9092540  48.4287956  89.8183390
  25.8481073  41.5559062  83.0745470  25.0512237  41.6677756  83.5928966
  25.6206665  41.8945714  82.2086360  31.6786741  48.0803765  91.0227985
  31.7431173  48.5424172  91.8586156  30.9697665  47.4501130  91.1510294
  22.1804031  41.4444973  88.5476984  22.4312069  42.3291983  88.8134560
  22.7163579  41.2649575  87.7752076  46.0036131  44.8758470  85.2152246
  45.2499839  44.3065869  85.0596250  46.1383672  44.8421135  86.1622880
  31.3934759  49.7471873  80.8906965  31.2580433  50.5923408  81.3191813
  31.9344571  49.9491150  80.1272899  27.8802098  35.8263453  97.5521320
  27.4869044  35.2729651  98.2268964  28.6968239  36.1374031  97.9427838
  24.8464156  47.2647311  81.4634890  25.3588677  48.0590561  81.6140455
  25.4986869  46.5673601  81.3968491  26.6559041  50.3813067  83.5457643
  26.8325669  51.3031032  83.3578627  27.4515874  50.0671486  83.9752023
  30.7970059  37.2421332  95.1441577  31.5379773  37.8428485  95.0646039
  31.0287982  36.4998969  94.5859619  25.9411397  42.4277699  93.4219806
  25.8264912  41.5262956  93.7226905  25.0855915  42.6741396  93.0704623
  33.0203235  50.3695439  95.0207307  32.5767089  49.5831818  94.7028211
  33.6820449  50.5574590  94.3551198  27.7790356  51.8991241  89.5467985
  28.3297781  51.7708304  88.7744979  26.9401832  52.1986130  89.1962878
  35.1184473  50.6498239  93.0488708  35.1002948  51.4707120  92.5568977
  36.0404393  50.5252314  93.2738849  31.5757527  48.1642369  93.8912217
  32.1085864  47.4030657  93.6611525  31.0471608  47.8716020  94.6336371
  34.7427222  33.2702435  89.4205858  34.3991492  34.1604076  89.3444969
  35.1106185  33.0804092  88.5575443  22.8113073  45.5935965  82.2394461
  23.6488295  46.0032973  82.0228168  22.9891340  44.6535407  82.2094654
  34.7077505  43.2611046  77.9278293  34.1924128  44.0315650  78.1666681
  34.4354813  42.5876182  78.5511355  32.2924616  38.1060747  82.9863532
  31.4366212  37.7167597  82.8069171  32.7051568  38.1852707  82.1263317
  33.8223763  35.6407090  87.3855092  33.3188558  35.6037225  86.5722897
  34.1154369  36.5499832  87.4451748  30.0666648  35.7245819  86.3921273
  30.9319645  35.5288628  86.0327163  30.1344157  35.4956171  87.3190630
  39.6811779  46.0143400  79.8631467  38.9041222  45.6754560  79.4186629
  40.3603260  46.0196024  79.1886432  34.4963808  41.1338138  79.7538075
  34.1913944  41.4484287  80.6048218  35.4494250  41.2119558  79.7965408
  32.9410240  47.2928361  81.4031029  32.4131601  46.5581121  81.0904266
  32.4397743  48.0703037  81.1570997  37.9203086  45.4877382  86.5198075
  37.2626760  46.1776643  86.6078204  38.7243485  45.8773814  86.8632061
  27.6728967  37.9548027  83.7637640  28.2472719  37.7323209  83.0310833
  28.2599950  38.0236722  84.5166241  36.7308545  43.8421754  84.5702017
  37.2440426  44.4751746  85.0723726  37.3809769  43.2422950  84.2045377
  27.9998555  39.9852488  77.7833525  27.1635867  40.3227175  78.1042800
  27.8603324  39.8501468  76.8460662  29.9751635  34.8289276  82.4912710
  29.3216048  34.5138293  81.8669324  29.9332109  34.2065017  83.2172533
  31.0862840  45.1108571  74.4066002  30.1789902  44.8797825  74.6057151
  31.5833872  44.3146191  74.5939983  33.9930919  53.8206079  77.3262688
  33.3192618  54.1237775  77.9347646  34.3796741  54.6235159  76.9768145
  33.2089376  41.3171210  86.8160357  32.2911937  41.5386157  86.6582045
  33.6249519  41.3917520  85.9572065  33.9924423  42.7162626  81.9463037
  34.7396242  43.2284023  81.6370160  34.2616013  42.3946678  82.8067431
  32.2651073  45.2121166  78.9289992  31.3562293  44.9280199  79.0262462
  32.2946157  45.6320245  78.0693299  37.4970341  48.8227756  82.6981159
  37.0432668  47.9818666  82.7546350  36.8664308  49.4589154  83.0355939
  36.4403260  39.7519742  83.9281827  35.7026017  39.2397128  84.2592069
  36.6930034  39.3120123  83.1165104  35.9403280  50.6604252  83.6330977
  36.2326255  51.2209310  82.9143343  36.4501901  50.9532813  84.3884137
  36.5414888  32.5295994  84.5223596  36.8473765  31.6693357  84.2349511
  37.2667493  33.1213614  84.3222590  22.8339244  42.9326680  82.9105194
  22.6363644  42.3396041  82.1856261  22.2785908  42.6278891  83.6281133
  30.8135968  42.8249787  85.0299787  30.8684577  41.8723623  84.9542264
  30.0027170  42.9809226  85.5141086  31.9627161  46.7529910  76.2678070
  31.5246591  46.0365769  75.8083708  32.7037602  46.9806025  75.7063162
  28.7528327  41.4426847  82.7890166  27.9396193  41.7421017  83.1955358
  29.2487322  41.0482535  83.5064648  30.9036905  51.4384604  84.7224431
  30.8613084  51.6645450  83.7932963  31.8199604  51.2047978  84.8710232
  34.3502539  41.9068671  91.6205060  34.7051927  42.1340144  92.4799526
  34.9974670  42.2387048  90.9982315  40.0800276  45.0287107  82.3254389
  39.9418175  45.2188703  81.3975578  39.7236495  45.7906490  82.7822440
  28.2442402  39.0145202  88.4051401  28.8841782  38.8733961  87.7074364
  27.4119933  38.7279716  88.0290003  40.1069656  47.0963634  87.3365660
  40.5406162  47.0038923  88.1848714  40.8201236  47.0721134  86.6985676
  29.0202706  48.3147633  84.5186393  29.8143305  47.8197953  84.3168968
  28.3094398  47.7865496  84.1554099  33.8397551  50.6965728  88.8698761
  33.8934573  51.2656664  89.6376477  32.9712332  50.8667613  88.5052798
  25.3285470  42.4590714  80.5946146  24.3983058  42.3975170  80.8116108
  25.4242942  41.9366667  79.7982787  25.2471019  38.9845527  83.1824388
  25.5077836  39.8990860  83.0733548  26.0688191  38.5169970  83.3321001
  26.7195944  40.3983284  90.3523212  27.3918997  40.1900646  89.7035861
  25.8925730  40.2005370  89.9128445  40.9685205  47.1387335  89.8698546
  41.1621095  48.0433145  90.1157821  40.8685823  46.6794754  90.7037131
  32.6221516  37.0245225  92.3688873  31.9749431  37.7235175  92.2753350
  33.3922531  37.4581369  92.7365121  36.0300314  47.2894077  95.4439426
  35.8785820  47.0604629  94.5269510  36.0204993  48.2464679  95.4570771
  32.7985650  44.8625990  90.4285693  33.7277710  45.0137150  90.2554660
  32.3776680  44.9510011  89.5734339  31.5973982  48.8876655  88.1984230
  31.4585068  48.5195439  89.0710169  30.8088578  49.4024294  88.0268188
  32.1922134  53.9885751  79.5409767  32.3673890  53.5173794  80.3555390
  31.5054922  54.6151517  79.7691028  33.1479197  48.2658257  85.5873068
  32.8129030  48.2259027  86.4830718  32.6483143  47.6002973  85.1143478
  27.1223441  43.6725887  91.1125649  26.9843239  42.9406126  91.7137188
  28.0328365  43.5834787  90.8309837  36.0838389  45.6114292  75.8610128
  35.4667560  44.8861120  75.7643181  35.6154877  46.3723652  75.5177202
  29.7505742  43.3845847  90.6009329  30.4605360  42.7439039  90.5595948
  29.7075050  43.6358741  91.5235510  37.7392521  50.3213200  93.5215908
  37.6805067  49.6372420  92.8546491  38.1412039  51.0632190  93.0696534
  28.4634676  40.3711064  92.4204969  27.9272033  39.9201803  93.0726565
  27.8751384  40.5056973  91.6775433  26.7583219  57.1375114  86.3149627
  26.9979818  57.7693638  86.9928646  25.9152416  56.7863154  86.6014986
  27.8736935  39.8299716  74.9831432  26.9966401  39.7088517  74.6193679
  28.3494688  39.0385794  74.7310321  37.7409928  48.2852784  91.7529888
  36.8536707  47.9478706  91.8756287  38.3108479  47.5535815  91.9898653
  19.3939075  44.6176876  85.0772939  20.0810115  44.3038606  84.4893955
  19.2387204  45.5218240  84.8040191  24.1973797  39.5067072  89.5057963
  24.1131986  38.8992742  88.7708373  23.3756503  39.9976090  89.5067459
  31.2711081  52.9454236  88.7191131  31.1981253  53.7509208  89.2310436
  30.8288474  53.1446202  87.8939153  31.0600861  52.1826006  82.2293953
  30.2768383  52.7247686  82.3232177  31.7593606  52.6999986  82.6288194
  34.3697511  37.9920636  84.8728158  34.8666210  37.2390598  84.5529228
  33.5984492  38.0284952  84.3071367  42.2227268  43.6961001  86.5146450
  42.2117145  44.5785717  86.1440383  41.3544648  43.3432552  86.3200987
  33.7309765  52.8441070  90.8749290  34.4437737  53.4788535  90.8025191
  33.2399793  52.9404936  90.0589292  35.4527292  46.7492323  82.4466581
  34.5183570  46.8693785  82.2771286  35.6303960  45.8464790  82.1826591
  30.9532480  40.1338019  84.5999843  30.5830267  39.5809059  85.2880748
  31.4491572  39.5296152  84.0474843  38.8399843  42.5909642  82.9816616
  39.3060295  43.4237634  82.9076918  39.2907343  42.1254624  83.6861874
  28.7821678  50.5935514  91.6954861  29.4831138  51.2271997  91.8484255
  28.3116793  50.9350245  90.9350500  36.9076074  48.9353464  79.9802768
  37.1835918  48.8210058  80.8896642  36.0380573  48.5370948  79.9414941
  36.8116506  34.9590229  87.0207517  35.8979586  35.1894456  87.1889724
  37.2409607  35.0428673  87.8721549  36.5822964  43.1480121  89.5207411
  35.9294414  43.3956029  88.8659864  36.9603344  42.3344259  89.1869888
  33.5430138  53.1839814  83.6235581  33.7252533  52.3661470  84.0863334
  34.3663124  53.4007507  83.1860471  33.8772304  52.1107999  80.8850630
  34.4060070  51.6000454  80.2720792  34.1400523  51.7950530  81.7496163
  32.6310537  43.8899932  96.0073448  31.9551174  43.7894062  96.6775823
  33.4538171  43.7339146  96.4709445  24.3789396  50.1271869  88.6285963
  24.9642833  49.3815557  88.7613868  24.1814235  50.4375825  89.5122627
  27.2328052  53.1623116  83.6448406  26.5638427  53.6469244  83.1612446
  27.0940921  53.4092337  84.5591784  18.9707051  42.6977469  87.3490406
  19.0091151  42.1641060  88.1427525  18.4647344  42.1712674  86.7301384
  31.3733320  55.1966860  90.2431064  31.9251628  55.3598481  91.0080149
  31.7139514  55.7871298  89.5711089  26.3497813  37.5442009  90.8452949
  26.4139140  38.4056840  90.4330346  26.2864934  36.9316011  90.1125307
  25.8250086  39.6165142  94.4925983  26.4522125  39.2342219  95.1063507
  24.9678005  39.3979344  94.8581676  36.2244194  50.0228117  96.0979719
  36.7684098  50.6358075  95.6034673  35.6431039  50.5807696  96.6146732
  22.6015629  41.4241571  80.4244338  22.8969070  40.5152250  80.3711392
  21.7003664  41.4029311  80.1025340  34.5101707  53.1448835  87.2294746
  34.3852847  52.3438575  86.7205692  35.1680799  53.6395029  86.7408716
  26.1309876  39.4997568  86.4071886  25.4096461  40.1133535  86.2679360
  26.9203131  40.0355333  86.3288532  36.5736616  50.9457855  88.8574296
  35.6266951  50.8263206  88.7852623  36.9219389  50.0580353  88.9400558
  28.9336189  36.8351994  92.6812538  29.4570591  37.0814291  93.4438848
  28.7148522  37.6672029  92.2615676  24.3303470  39.1055669  80.5483663
  24.0016176  38.2253048  80.3658769  24.6842841  39.0503337  81.4360052
  33.5783049  50.7410572  85.0578649  33.4308012  49.8127279  85.2386219
  34.4036543  50.7630662  84.5735724  27.4445293  39.3928639  80.9159141
  27.7841366  39.9214560  80.1937749  27.8917414  39.7309045  81.6917707
  37.1817171  51.5639130  86.1443521  38.1063718  51.3581992  86.0067972
  37.0132474  51.3155531  87.0532863  30.1388734  37.7765689  90.3662209
  29.7985555  36.9773502  90.7682889  29.4327740  38.0767400  89.7939042
  30.7905206  34.8615002  88.8189532  31.6131275  34.3875480  88.6968422
  31.0343270  35.6405485  89.3188218  29.4313441  37.8903260  79.1152433
  30.1521803  38.2684513  78.6116150  28.8078745  38.6092137  79.2187411
  33.5744563  38.5948409  80.0510766  33.7908178  39.4773047  79.7499594
  33.0938631  38.2034623  79.3216408  28.3143785  41.5534122  86.6281510
  28.1688366  41.8674425  87.5205792  27.8368988  42.1719023  86.0752409
  30.1740168  38.5436670  86.6762400  30.1601736  37.6477764  86.3394698
  30.8912596  38.5507334  87.3100686  32.0266298  38.9774011  88.7215527
  31.7684076  39.8991081  88.7199858  31.4951339  38.5804445  89.4115992
  36.9712487  52.0824798  81.5005613  37.1449365  51.5171220  80.7479465
  37.4641378  52.8825693  81.3185103  22.7889447  44.0939467  89.5669172
  22.2442915  44.8699275  89.6989446  23.6668797  44.4410271  89.4088293
  29.5777064  37.4251051  81.9449970  29.6992975  36.4967697  82.1440858
  29.2879106  37.4389737  81.0328286  32.4468254  35.1105961  85.0816690
  32.4689951  35.1745294  84.1268669  32.8636313  34.2710470  85.2757196
  42.8251878  44.8461221  83.1195912  43.2683024  44.0968546  82.7215036
  41.9478389  44.8371357  82.7369644  37.9587660  51.3991562  78.6002511
  38.6538564  52.0198255  78.8189826  38.3010810  50.5486913  78.8754889
  23.5755469  43.2209363  92.4599328  22.8337205  43.3691998  93.0463959
  23.2548213  43.4817629  91.5966078  39.8579083  48.8491268  80.1289842
  40.3830407  49.1878540  79.4039162  39.7701435  47.9138283  79.9452976
  31.5199131  52.7625341  92.2579718  31.8286258  52.5174488  93.1302418
  32.3174613  52.9671980  91.7698589  31.5419744  54.9163251  84.4885095
  31.1024734  54.4239630  85.1817952  32.2927860  54.3736219  84.2477170
  24.0212082  51.1074792  84.4909723  24.8470102  50.8078564  84.1108367
  23.6706134  50.3382414  84.9399512  28.9893616  50.4601260  86.5607397
  28.3673625  49.7971965  86.2609625  29.6598483  50.4862392  85.8781044
  22.2220688  49.0261118  85.4498657  21.3852596  48.5983293  85.2682658
  22.1944333  49.2193562  86.3869448  29.0618143  38.9383048  96.1539903
  29.1106299  39.8145171  95.7717672  29.6040657  38.3960441  95.5811546
  39.5472989  49.4824171  95.4341040  38.7568533  49.4648310  94.8945539
  39.3106343  50.0212465  96.1890076  39.6670864  46.3316638  92.7473768
  39.7168869  46.1666645  93.6889291  39.5584787  45.4643897  92.3571649
  28.5507123  49.0105183  80.0365857  28.6995243  49.6940648  79.3832530
  29.3573566  48.9910273  80.5515313  36.9574626  42.3147566  94.0633075
  37.8584489  42.1754031  93.7717073  37.0322601  42.4802020  95.0031252
  31.2917432  39.6914420  92.9086261  30.4220741  39.9847986  92.6368850
  31.5276912  40.2754865  93.6293525  41.1689061  48.7513579  92.9915790
  40.8773869  49.1143560  93.8279251  40.5561192  48.0380587  92.8129122
  42.3684743  46.3166459  85.5118360  43.2031634  46.7556263  85.6755920
  42.5043872  45.8405112  84.6926606  39.4176249  43.8746194  91.4595848
  39.8930371  44.0673840  90.6514699  38.4941814  43.9305380  91.2139231
  26.3059756  45.0370361  81.0426926  26.0605797  44.1332691  81.2407136
  26.4755670  45.0387511  80.1006404  33.9956465  35.9094037  90.4251682
  34.5138409  36.6455064  90.0998170  33.6411598  36.2158031  91.2598441
  25.5755403  40.7698719  78.5413088  24.8824648  40.8443074  77.8853124
  25.3307155  40.0059062  79.0634604  34.2469060  32.3294320  85.9452578
  34.5270813  31.6617509  86.5713005  35.0319667  32.5223415  85.4327242
  32.0502528  51.5053314  77.5077605  31.4776495  52.1243501  77.0548076
  32.6235322  52.0552675  78.0417527  38.1177918  40.7511954  89.6924153
  39.0695341  40.8510052  89.7136377  37.9481368  39.9590222  90.2022238
  36.1392297  37.8367537  89.8783554  35.5442230  38.1172550  89.1830043
  35.8541994  38.3261438  90.6500295  35.2699788  51.7890464  78.6386187
  36.2030461  51.7236026  78.8419062  35.1823001  52.6246731  78.1800720
  37.8987805  51.1056334  75.5990134  37.8201436  50.7716198  76.4925892
  38.7197471  51.5978102  75.5981607  40.5965996  43.9718074  88.8066453
  40.5642316  43.0334074  88.9926137  41.2066619  44.0502110  88.0732278
  32.4349327  42.8414127  74.8493657  33.3808431  42.7120335  74.9182075
  32.0563572  42.1028788  75.3263085  40.7460484  40.7629117  88.8524736
  40.2299533  39.9787574  88.6654665  41.6300433  40.4347834  89.0171256
  38.4071211  34.5070133  84.8120549  38.2096032  34.1985221  85.6963881
  39.0170917  35.2331771  84.9418479  46.4142546  45.0334080  87.9472490
  47.1445934  44.7719369  88.5080193  45.8049491  44.2962802  87.9874558
  44.4957843  43.1741943  88.5446941  43.7691006  43.0397908  87.9363433
  44.0805130  43.4818772  89.3503659  32.3188019  46.8931873  96.3094314
  33.2391029  47.0710472  96.5034361  32.2837602  45.9487918  96.1574013
  30.6192244  40.7664103  74.7848542  29.7123699  40.4697216  74.8611256
  30.8968225  40.4693921  73.9182829  21.5370184  42.0870466  85.2347589
  21.2172968  41.2335775  84.9421963  20.9903612  42.3019044  85.9905556
  25.3150092  44.8032907  88.9517095  25.5336101  45.7350015  88.9705129
  25.7275866  44.4440882  89.7371899  32.2354309  35.3100993  80.9392784
  31.4255038  34.9648078  81.3148030  32.9238726  35.0008536  81.5280395
  34.1644858  34.3879039  82.5617080  34.7175896  34.8074493  83.2207103
  34.4014944  33.4614788  82.6040036  30.1877957  40.3766113  98.3419844
  30.0874684  41.3260470  98.2731935  29.9699499  40.0484352  97.4695914
  29.3891028  37.6251038  74.9260522  30.2510192  37.9505936  75.1856339
  29.5741373  36.8382534  74.4133587  21.4058444  45.7073378  87.2040710
  20.7121916  45.2927331  86.6910665  22.1531435  45.7493914  86.6074129
  37.5423665  36.4979565  82.0695745  36.9622334  37.1564369  81.6873797
  37.2759598  35.6756909  81.6583162  35.9927231  35.8984622  84.2717065
  36.4927010  36.0101157  83.4631384  36.6362839  35.5945675  84.9117873
  30.0509227  43.8063252  97.1584906  29.5676309  44.6063612  97.3648795
  30.1370166  43.8171197  96.2052350  23.3195187  45.6391632  85.0806725
  23.2965875  45.7379319  84.1288608  23.6295823  46.4856782  85.4023891
  25.9782565  47.6967787  89.1953340  26.9325818  47.6651729  89.1283271
  25.7795088  47.2358410  90.0103566  26.5681947  46.2668903  91.7624137
  27.3874836  46.7612981  91.7858975  26.8418754  45.3500871  91.7341705
  36.3248543  38.6579655  81.1252093  35.4374398  38.9429306  80.9072288
  36.7402532  38.4973418  80.2779370  39.6763079  38.6826176  84.8406432
  40.4523469  39.1722628  85.1131049  38.9511213  39.1084230  85.2978302
  42.1135638  39.3953795  85.8980373  42.7080128  39.1549531  85.1873681
  42.1862221  38.6760926  86.5253909  24.3332793  53.2387406  86.2123537
  24.1987261  52.4787807  85.6461536  23.9164856  53.9628306  85.7452326
  35.4691756  48.4224330  75.2200113  36.1727606  48.6274332  75.8357768
  34.7454405  48.9901092  75.4849196  36.2989567  44.1734191  81.3402383
  36.2424768  44.6302742  80.5010015  36.8517909  43.4124876  81.1625226
  40.1094373  39.9623923  82.1652502  39.8531307  39.5620558  82.9960710
  39.4847241  40.6767717  82.0402642  44.4206710  42.7019996  84.6723794
  43.8606268  42.7713185  85.4455356  43.8150214  42.5260981  83.9523290
  27.4901919  54.1356723  86.4241980  27.3734303  55.0802156  86.3220670
  26.6694365  53.8330285  86.8127779  37.3778454  48.8606859  77.2698573
  38.2124058  48.4288057  77.0876048  37.2162797  48.6888873  78.1975467
  37.0324346  45.3638972  78.6354912  36.9773150  45.1983244  77.6943356
  36.4070401  46.0715005  78.7917102  21.8216861  40.6007037  92.4616334
  22.4675725  40.0905991  92.9503560  21.6134012  41.3375718  93.0359760
  34.3470253  47.6687884  97.9608475  35.2161413  47.8428536  97.5995110
  33.8677005  48.4882301  97.8384204  30.3420471  34.8647081  78.2140231
  30.3299141  35.8088921  78.3708501  31.2343893  34.6817227  77.9199692
  28.5156433  54.7884985  89.6397909  29.4183680  54.8208595  89.9564404
  28.2893803  53.8585436  89.6544244  30.2710035  53.5415972  86.3007987
  29.3205666  53.5417833  86.1872359  30.5742521  52.7948706  85.7844022
  34.1572591  31.4589858  82.4686167  33.3904987  30.9048345  82.6142850
  34.5683296  31.5311727  83.3300319  26.1614352  37.7474654  96.5591349
  27.0245813  37.3911458  96.7694673  25.5879763  37.4088548  97.2466753
  46.0062729  59.3776510  87.3653750  46.6441139  59.2583257  86.6617090
  45.8883572  60.3257354  87.4241702  42.8152435  59.3303938  87.3015274
  42.4770947  59.2145003  86.4135809  43.6842203  58.9295103  87.2816280
  38.6739251  61.1839414  83.2912165  38.1104116  61.0929351  82.5228453
  38.5591646  60.3639319  83.7714658  43.2972218  60.4838790  93.2601480
  43.2860859  60.0891588  92.3881983  43.4592858  59.7504862  93.8535251
  36.2203683  62.6790606  86.1296386  37.0124975  62.3381431  85.7142685
  36.4600333  62.7885581  87.0498539  44.2538810  64.8510382  78.6026630
  43.6026789  65.4364463  78.2160644  45.0483172  65.3816577  78.6621668
  38.1794437  61.9399519  79.0013764  38.9525313  61.3928506  78.8626640
  38.5319836  62.8043769  79.2128226  40.0179479  63.2675902  92.2080664
  39.7269345  64.1721532  92.0927330  40.6536464  63.3092429  92.9224733
  40.9435686  60.6452750  88.7982023  41.5399258  60.4208773  88.0838986
  41.0010658  59.9037496  89.4007471  40.5160715  58.0992185  76.6332214
  40.7686235  57.5773707  75.8715677  39.5785274  57.9358331  76.7358898
  45.5603997  57.1027964  84.4406958  46.3467087  56.6847387  84.0897375
  45.8242702  58.0074056  84.6088606  45.7314075  62.5400814  79.1395614
  45.0959908  62.6135441  79.8516519  45.4011481  63.1294413  78.4614694
  50.9612424  57.0403197  85.3439936  51.6937596  56.4702414  85.5777766
  50.2051780  56.6524797  85.7846442  40.2357003  60.0020291  78.8356589
  40.1193261  59.3265195  79.5037674  40.3459263  59.5152665  78.0188742
  42.5788544  59.4630439  82.5403279  42.2146751  58.9361059  83.2516200
  43.4355660  59.0728908  82.3669764  48.4837845  50.7524771  89.8034545
  48.1521170  51.6220182  89.5795760  47.8883458  50.4361055  90.4828575
  42.2194031  54.4920338  77.5364627  42.3868434  55.3600575  77.9035098
  42.0291200  54.6547620  76.6125916  44.9769364  62.9537317  89.2030457
  44.6770087  63.8562356  89.0946265  44.6320424  62.6869500  90.0551610
  38.4281846  59.4051114  85.2367162  37.5032342  59.2727328  85.4444854
  38.6766259  60.1845333  85.7337104  48.3766508  55.4719857  86.8827895
  47.4683385  55.4035266  86.5886656  48.3254104  55.9491802  87.7109720
  42.1983252  56.9477996  78.5211294  42.0782877  57.3935046  79.3596774
  41.5035840  57.2963313  77.9624832  35.7890657  59.0484388  86.0710951
  35.9183038  59.3018866  86.9850363  35.1088108  59.6412096  85.7515606
  39.9590144  69.7181637  82.1701425  39.8814174  70.6689463  82.2489906
  39.3551788  69.3727510  82.8276351  42.4507374  56.8909503  94.8262792
  41.6740708  57.4503423  94.8165657  43.0897937  57.3766286  95.3477662
  50.2428155  53.6736296  88.6605769  49.6002535  53.9668829  88.0145563
  49.7383083  53.5589216  89.4658965  47.8968318  57.4199469  79.3491628
  48.8086174  57.6526856  79.1739326  47.3877965  58.0036513  78.7866707
  40.7053746  59.6994956  94.3880759  41.4468431  60.2380000  94.1115583
  39.9990732  60.3261245  94.5452311  46.1809086  61.8424097  92.9852921
  46.5892442  61.4006507  92.2407553  45.4586347  61.2676724  93.2387113
  42.5340156  56.7796703  90.3586478  43.3801351  57.2036117  90.5021127
  42.4738794  56.1230328  91.0525041  46.5037900  62.4025287  86.7405209
  45.8746763  62.5671001  86.0381277  46.1163563  62.8166897  87.5116173
  50.3827132  63.3379725  84.0949573  49.6978171  63.7178627  83.5446607
  50.4670982  63.9475052  84.8281521  45.6839601  54.4401072  92.0167651
  45.4400533  55.1943132  91.4801927  45.9599532  54.8186419  92.8514898
  47.6378064  60.9839684  90.6944917  47.8494959  61.6271444  90.0179298
  47.5907812  60.1502001  90.2266847  45.2404293  53.5957505  87.5981489
  44.3788772  53.8938758  87.8898226  45.2666728  53.8127904  86.6662522
  42.0565862  62.1399695  84.0055295  42.5204208  62.4187398  83.2159917
  41.7922660  61.2383140  83.8228385  38.9489943  61.6871177  86.9435058
  39.5191301  62.1158445  86.3052542  39.5398055  61.4053762  87.6419243
  40.9934748  58.2622848  80.8144860  41.6958792  58.7143891  81.2818786
  40.6615377  57.6206667  81.4424753  39.4415110  56.8534604  95.1896069
  38.8113771  57.5350885  95.4231466  39.3351198  56.7417686  94.2449207
  34.7360082  56.5206400  86.1161993  33.9459136  56.7763929  85.6402104
  35.2271330  57.3354738  86.2214034  48.7523892  63.8611640  88.8667274
  49.5741336  63.4591827  88.5849956  48.7486295  63.7579874  89.8183390
  36.6874828  56.8850980  83.0745470  35.8905991  56.9969674  83.5928966
  36.4600420  57.2237632  82.2086360  42.5180495  63.4095683  91.0227985
  42.5824928  63.8716090  91.8586156  41.8091419  62.7793048  91.1510294
  33.0197785  56.7736891  88.5476984  33.2705824  57.6583901  88.8134560
  33.5557334  56.5941492  87.7752076  56.8429885  60.2050388  85.2152246
  56.0893593  59.6357786  85.0596250  56.9777426  60.1713053  86.1622880
  42.2328513  65.0763790  80.8906965  42.0974188  65.9215326  81.3191813
  42.7738326  65.2783068  80.1272899  38.7195853  51.1555370  97.5521320
  38.3262798  50.6021569  98.2268964  39.5361993  51.4665949  97.9427838
  35.6857910  62.5939228  81.4634890  36.1982431  63.3882479  81.6140455
  36.3380623  61.8965519  81.3968491  37.4952795  65.7104985  83.5457643
  37.6719423  66.6322949  83.3578627  38.2909629  65.3963404  83.9752023
  41.6363814  52.5713249  95.1441577  42.3773527  53.1720402  95.0646039
  41.8681736  51.8290887  94.5859619  36.7805152  57.7569617  93.4219806
  36.6658667  56.8554874  93.7226905  35.9249669  58.0033313  93.0704623
  43.8596989  65.6987357  95.0207307  43.4160844  64.9123735  94.7028211
  44.5214203  65.8866507  94.3551198  38.6184111  67.2283159  89.5467985
  39.1691536  67.1000222  88.7744979  37.7795587  67.5278048  89.1962878
  45.9578227  65.9790157  93.0488708  45.9396703  66.7999038  92.5568977
  46.8798148  65.8544232  93.2738849  42.4151282  63.4934286  93.8912217
  42.9479618  62.7322575  93.6611525  41.8865363  63.2007938  94.6336371
  45.5820977  48.5994352  89.4205858  45.2385246  49.4895994  89.3444969
  45.9499939  48.4096010  88.5575443  33.6506827  60.9227883  82.2394461
  34.4882049  61.3324891  82.0228168  33.8285095  59.9827325  82.2094654
  45.5471259  58.5902963  77.9278293  45.0317883  59.3607568  78.1666681
  45.2748568  57.9168100  78.5511355  43.1318370  53.4352664  82.9863532
  42.2759967  53.0459515  82.8069171  43.5445322  53.5144625  82.1263317
  44.6617517  50.9699007  87.3855092  44.1582313  50.9329143  86.5722897
  44.9548124  51.8791750  87.4451748  40.9060403  51.0537737  86.3921273
  41.7713400  50.8580546  86.0327163  40.9737912  50.8248089  87.3190630
  50.5205533  61.3435318  79.8631467  49.7434976  61.0046478  79.4186629
  51.1997014  61.3487941  79.1886432  45.3357563  56.4630056  79.7538075
  45.0307698  56.7776205  80.6048218  46.2888005  56.5411475  79.7965408
  43.7803994  62.6220279  81.4031029  43.2525356  61.8873038  81.0904266
  43.2791497  63.3994955  81.1570997  48.7596840  60.8169299  86.5198075
  48.1020515  61.5068561  86.6078204  49.5637240  61.2065731  86.8632061
  38.5122722  53.2839945  83.7637640  39.0866474  53.0615127  83.0310833
  39.0993704  53.3528640  84.5166241  47.5702299  59.1713672  84.5702017
  48.0834181  59.8043664  85.0723726  48.2203523  58.5714868  84.2045377
  38.8392309  55.3144406  77.7833525  38.0029621  55.6519093  78.1042800
  38.6997079  55.1793386  76.8460662  40.8145390  50.1581194  82.4912710
  40.1609802  49.8430211  81.8669324  40.7725864  49.5356934  83.2172533
  41.9256595  60.4400489  74.4066002  41.0183656  60.2089743  74.6057151
  42.4227627  59.6438108  74.5939983  44.8324673  69.1497996  77.3262688
  44.1586372  69.4529693  77.9347646  45.2190495  69.9527077  76.9768145
  44.0483130  56.6463128  86.8160357  43.1305691  56.8678075  86.6582045
  44.4643274  56.7209438  85.9572065  44.8318178  58.0454543  81.9463037
  45.5789997  58.5575940  81.6370160  45.1009767  57.7238596  82.8067431
  43.1044828  60.5413084  78.9289992  42.1956047  60.2572117  79.0262462
  43.1339912  60.9612163  78.0693299  48.3364095  64.1519673  82.6981159
  47.8826422  63.3110583  82.7546350  47.7058062  64.7881072  83.0355939
  47.2797015  55.0811659  83.9281827  46.5419772  54.5689046  84.2592069
  47.5323788  54.6412041  83.1165104  46.7797035  65.9896170  83.6330977
  47.0720009  66.5501227  82.9143343  47.2895655  66.2824731  84.3884137
  47.3808642  47.8587911  84.5223596  47.6867519  46.9985275  84.2349511
  48.1061247  48.4505532  84.3222590  33.6732998  58.2618598  82.9105194
  33.4757398  57.6687959  82.1856261  33.1179662  57.9570808  83.6281133
  41.6529722  58.1541705  85.0299787  41.7078332  57.2015541  84.9542264
  40.8420924  58.3101144  85.5141086  42.8020916  62.0821828  76.2678070
  42.3640346  61.3657687  75.8083708  43.5431357  62.3097942  75.7063162
  39.5922082  56.7718764  82.7890166  38.7789947  57.0712935  83.1955358
  40.0881076  56.3774453  83.5064648  41.7430660  66.7676521  84.7224431
  41.7006839  66.9937368  83.7932963  42.6593359  66.5339896  84.8710232
  45.1896294  57.2360589  91.6205060  45.5445681  57.4632062  92.4799526
  45.8368425  57.5678966  90.9982315  50.9194031  60.3579025  82.3254389
  50.7811929  60.5480621  81.3975578  50.5630249  61.1198407  82.7822440
  39.0836157  54.3437120  88.4051401  39.7235536  54.2025879  87.7074364
  38.2513687  54.0571633  88.0290003  50.9463410  62.4255552  87.3365660
  51.3799917  62.3330841  88.1848714  51.6594991  62.4013052  86.6985676
  39.8596461  63.6439550  84.5186393  40.6537059  63.1489870  84.3168968
  39.1488153  63.1157413  84.1554099  44.6791305  66.0257646  88.8698761
  44.7328327  66.5948582  89.6376477  43.8106086  66.1959531  88.5052798
  36.1679224  57.7882632  80.5946146  35.2376812  57.7267087  80.8116108
  36.2636696  57.2658585  79.7982787  36.0864773  54.3137445  83.1824388
  36.3471590  55.2282778  83.0733548  36.9081945  53.8461887  83.3321001
  37.5589698  55.7275202  90.3523212  38.2312752  55.5192564  89.7035861
  36.7319485  55.5297288  89.9128445  51.8078960  62.4679252  89.8698546
  52.0014850  63.3725063  90.1157821  51.7079578  62.0086671  90.7037131
  43.4615270  52.3537143  92.3688873  42.8143185  53.0527093  92.2753350
  44.2316286  52.7873287  92.7365121  46.8694068  62.6185995  95.4439426
  46.7179575  62.3896547  94.5269510  46.8598748  63.5756596  95.4570771
  43.6379405  60.1917908  90.4285693  44.5671465  60.3429067  90.2554660
  43.2170435  60.2801929  89.5734339  42.4367737  64.2168572  88.1984230
  42.2978822  63.8487357  89.0710169  41.6482333  64.7316212  88.0268188
  43.0315889  69.3177669  79.5409767  43.2067644  68.8465712  80.3555390
  42.3448677  69.9443435  79.7691028  43.9872952  63.5950175  85.5873068
  43.6522784  63.5550945  86.4830718  43.4876897  62.9294891  85.1143478
  37.9617196  59.0017805  91.1125649  37.8236994  58.2698044  91.7137188
  38.8722119  58.9126705  90.8309837  46.9232143  60.9406209  75.8610128
  46.3061314  60.2153037  75.7643181  46.4548632  61.7015570  75.5177202
  40.5899496  58.7137764  90.6009329  41.2999115  58.0730956  90.5595948
  40.5468805  58.9650659  91.5235510  48.5786275  65.6505118  93.5215908
  48.5198821  64.9664338  92.8546491  48.9805793  66.3924108  93.0696534
  39.3028430  55.7002982  92.4204969  38.7665787  55.2493721  93.0726565
  38.7145139  55.8348891  91.6775433  37.5976974  72.4667031  86.3149627
  37.8373572  73.0985556  86.9928646  36.7546170  72.1155071  86.6014986
  38.7130689  55.1591634  74.9831432  37.8360156  55.0380434  74.6193679
  39.1888442  54.3677712  74.7310321  48.5803682  63.6144702  91.7529888
  47.6930461  63.2770623  91.8756287  49.1502233  62.8827733  91.9898653
  30.2332829  59.9468793  85.0772939  30.9203869  59.6330523  84.4893955
  30.0780958  60.8510158  84.8040191  35.0367552  54.8358990  89.5057963
  34.9525740  54.2284659  88.7708373  34.2150258  55.3268008  89.5067459
  42.1104836  68.2746154  88.7191131  42.0375007  69.0801125  89.2310436
  41.6682229  68.4738120  87.8939153  41.8994615  67.5117924  82.2293953
  41.1162137  68.0539604  82.3232177  42.5987361  68.0291904  82.6288194
  45.2091265  53.3212553  84.8728158  45.7059965  52.5682516  84.5529228
  44.4378247  53.3576870  84.3071367  53.0621023  59.0252919  86.5146450
  53.0510899  59.9077634  86.1440383  52.1938402  58.6724470  86.3200987
  44.5703519  68.1732988  90.8749290  45.2831491  68.8080453  90.8025191
  44.0793548  68.2696854  90.0589292  46.2921046  62.0784241  82.4466581
  45.3577325  62.1985703  82.2771286  46.4697715  61.1756707  82.1826591
  41.7926234  55.4629936  84.5999843  41.4224022  54.9100977  85.2880748
  42.2885327  54.8588070  84.0474843  49.6793597  57.9201560  82.9816616
  50.1454050  58.7529551  82.9076918  50.1301098  57.4546541  83.6861874
  39.6215433  65.9227431  91.6954861  40.3224892  66.5563914  91.8484255
  39.1510548  66.2642163  90.9350500  47.7469829  64.2645381  79.9802768
  48.0229672  64.1501976  80.8896642  46.8774327  63.8662866  79.9414941
  47.6510260  50.2882147  87.0207517  46.7373340  50.5186374  87.1889724
  48.0803362  50.3720591  87.8721549  47.4216719  58.4772039  89.5207411
  46.7688169  58.7247946  88.8659864  47.7997099  57.6636177  89.1869888
  44.3823893  68.5131732  83.6235581  44.5646287  67.6953388  84.0863334
  45.2056879  68.7299424  83.1860471  44.7166058  67.4399917  80.8850630
  45.2453825  66.9292372  80.2720792  44.9794278  67.1242447  81.7496163
  43.4704292  59.2191850  96.0073448  42.7944929  59.1185979  96.6775823
  44.2931926  59.0631064  96.4709445  35.2183151  65.4563786  88.6285963
  35.8036588  64.7107474  88.7613868  35.0207989  65.7667743  89.5122627
  38.0721806  68.4915034  83.6448406  37.4032181  68.9761161  83.1612446
  37.9334676  68.7384254  84.5591784  29.8100806  58.0269387  87.3490406
  29.8484905  57.4932977  88.1427525  29.3041098  57.5004592  86.7301384
  42.2127075  70.5258777  90.2431064  42.7645383  70.6890399  91.0080149
  42.5533268  71.1163215  89.5711089  37.1891568  52.8733927  90.8452949
  37.2532894  53.7348758  90.4330346  37.1258688  52.2607929  90.1125307
  36.6643840  54.9457060  94.4925983  37.2915879  54.5634137  95.1063507
  35.8071759  54.7271262  94.8581676  47.0637949  65.3520035  96.0979719
  47.6077853  65.9649993  95.6034673  46.4824794  65.9099613  96.6146732
  33.4409383  56.7533489  80.4244338  33.7362824  55.8444167  80.3711392
  32.5397419  56.7321228  80.1025340  45.3495462  68.4740753  87.2294746
  45.2246601  67.6730493  86.7205692  46.0074553  68.9686946  86.7408716
  36.9703630  54.8289485  86.4071886  36.2490216  55.4425453  86.2679360
  37.7596886  55.3647250  86.3288532  47.4130370  66.2749773  88.8574296
  46.4660706  66.1555124  88.7852623  47.7613143  65.3872271  88.9400558
  39.7729944  52.1643912  92.6812538  40.2964345  52.4106208  93.4438848
  39.5542277  52.9963947  92.2615676  35.1697225  54.4347586  80.5483663
  34.8409931  53.5544965  80.3658769  35.5236595  54.3795255  81.4360052
  44.4176804  66.0702489  85.0578649  44.2701766  65.1419197  85.2386219
  45.2430297  66.0922580  84.5735724  38.2839048  54.7220556  80.9159141
  38.6235120  55.2506478  80.1937749  38.7311168  55.0600962  81.6917707
  48.0210925  66.8931048  86.1443521  48.9457473  66.6873909  86.0067972
  47.8526229  66.6447449  87.0532863  40.9782489  53.1057607  90.3662209
  40.6379309  52.3065420  90.7682889  40.2721495  53.4059318  89.7939042
  41.6298961  50.1906919  88.8189532  42.4525030  49.7167398  88.6968422
  41.8737024  50.9697403  89.3188218  40.2707195  53.2195178  79.1152433
  40.9915558  53.5976431  78.6116150  39.6472499  53.9384055  79.2187411
  44.4138318  53.9240327  80.0510766  44.6301932  54.8064965  79.7499594
  43.9332385  53.5326540  79.3216408  39.1537539  56.8826040  86.6281510
  39.0082120  57.1966343  87.5205792  38.6762743  57.5010940  86.0752409
  41.0133922  53.8728588  86.6762400  40.9995491  52.9769681  86.3394698
  41.7306350  53.8799252  87.3100686  42.8660053  54.3065928  88.7215527
  42.6077831  55.2282999  88.7199858  42.3345093  53.9096363  89.4115992
  47.8106242  67.4116715  81.5005613  47.9843119  66.8463138  80.7479465
  48.3035133  68.2117610  81.3185103  33.6283201  59.4231384  89.5669172
  33.0836670  60.1991192  89.6989446  34.5062551  59.7702189  89.4088293
  40.4170818  52.7542968  81.9449970  40.5386729  51.8259614  82.1440858
  40.1272860  52.7681654  81.0328286  43.2862008  50.4397879  85.0816690
  43.3083705  50.5037212  84.1268669  43.7030068  49.6002387  85.2757196
  53.6645633  60.1753138  83.1195912  54.1076779  59.4260464  82.7215036
  52.7872143  60.1663275  82.7369644  48.7981414  66.7283480  78.6002511
  49.4932319  67.3490172  78.8189826  49.1404564  65.8778831  78.8754889
  34.4149223  58.5501281  92.4599328  33.6730959  58.6983916  93.0463959
  34.0941968  58.8109546  91.5966078  50.6972837  64.1783185  80.1289842
  51.2224161  64.5170458  79.4039162  50.6095190  63.2430201  79.9452976
  42.3592886  68.0917259  92.2579718  42.6680012  67.8466406  93.1302418
  43.1568368  68.2963897  91.7698589  42.3813498  70.2455169  84.4885095
  41.9418488  69.7531547  85.1817952  43.1321615  69.7028136  84.2477170
  34.8605837  66.4366709  84.4909723  35.6863857  66.1370481  84.1108367
  34.5099889  65.6674332  84.9399512  39.8287370  65.7893178  86.5607397
  39.2067379  65.1263883  86.2609625  40.4992237  65.8154310  85.8781044
  33.0614442  64.3553036  85.4498657  32.2246350  63.9275210  85.2682658
  33.0338087  64.5485479  86.3869448  39.9011898  54.2674966  96.1539903
  39.9500053  55.1437088  95.7717672  40.4434412  53.7252359  95.5811546
  50.3866743  64.8116089  95.4341040  49.5962287  64.7940228  94.8945539
  50.1500098  65.3504383  96.1890076  50.5064618  61.6608555  92.7473768
  50.5562623  61.4958563  93.6889291  50.3978542  60.7935814  92.3571649
  39.3900877  64.3397101  80.0365857  39.5388997  65.0232565  79.3832530
  40.1967321  64.3202191  80.5515313  47.7968381  57.6439483  94.0633075
  48.6978244  57.5045948  93.7717073  47.8716355  57.8093938  95.0031252
  42.1311186  55.0206338  92.9086261  41.2614495  55.3139904  92.6368850
  42.3670666  55.6046783  93.6293525  52.0082815  64.0805497  92.9915790
  51.7167624  64.4435477  93.8279251  51.3954946  63.3672505  92.8129122
  53.2078498  61.6458377  85.5118360  54.0425389  62.0848181  85.6755920
  53.3437626  61.1697030  84.6926606  50.2570003  59.2038111  91.4595848
  50.7324125  59.3965758  90.6514699  49.3335569  59.2597297  91.2139231
  37.1453510  60.3662279  81.0426926  36.8999552  59.4624609  81.2407136
  37.3149425  60.3679429  80.1006404  44.8350220  51.2385955  90.4251682
  45.3532164  51.9746982  90.0998170  44.4805353  51.5449948  91.2598441
  36.4149158  56.0990636  78.5413088  35.7218403  56.1734991  77.8853124
  36.1700909  55.3350980  79.0634604  45.0862814  47.6586238  85.9452578
  45.3664568  46.9909427  86.5713005  45.8713421  47.8515333  85.4327242
  42.8896283  66.8345231  77.5077605  42.3170250  67.4535419  77.0548076
  43.4629076  67.3844593  78.0417527  48.9571672  56.0803872  89.6924153
  49.9089095  56.1801969  89.7136377  48.7875123  55.2882140  90.2022238
  46.9786052  53.1659455  89.8783554  46.3835984  53.4464467  89.1830043
  46.6935749  53.6553356  90.6500295  46.1093542  67.1182382  78.6386187
  47.0424216  67.0527943  78.8419062  46.0216755  67.9538648  78.1800720
  48.7381559  66.4348252  75.5990134  48.6595191  66.1008116  76.4925892
  49.5591226  66.9270020  75.5981607  51.4359750  59.3009991  88.8066453
  51.4036070  58.3625992  88.9926137  52.0460374  59.3794028  88.0732278
  43.2743081  58.1706044  74.8493657  44.2202186  58.0412252  74.9182075
  42.8957326  57.4320706  75.3263085  51.5854239  56.0921035  88.8524736
  51.0693287  55.3079491  88.6654665  52.4694187  55.7639751  89.0171256
  49.2464966  49.8362050  84.8120549  49.0489787  49.5277138  85.6963881
  49.8564671  50.5623689  84.9418479  57.2536300  60.3625998  87.9472490
  57.9839689  60.1011286  88.5080193  56.6443246  59.6254720  87.9874558
  55.3351597  58.5033861  88.5446941  54.6084761  58.3689826  87.9363433
  54.9198884  58.8110689  89.3503659  43.1581774  62.2223790  96.3094314
  44.0784783  62.4002389  96.5034361  43.1231357  61.2779836  96.1574013
  41.4585998  56.0956021  74.7848542  40.5517454  55.7989133  74.8611256
  41.7361979  55.7985839  73.9182829  32.3763939  57.4162384  85.2347589
  32.0566723  56.5627692  84.9421963  31.8297367  57.6310962  85.9905556
  36.1543846  60.1324825  88.9517095  36.3729856  61.0641933  88.9705129
  36.5669620  59.7732799  89.7371899  43.0748064  50.6392910  80.9392784
  42.2648792  50.2939995  81.3148030  43.7632481  50.3300454  81.5280395
  45.0038612  49.7170957  82.5617080  45.5569651  50.1366411  83.2207103
  45.2408699  48.7906705  82.6040036  41.0271711  55.7058031  98.3419844
  40.9268438  56.6552388  98.2731935  40.8093254  55.3776270  97.4695914
  40.2284783  52.9542956  74.9260522  41.0903947  53.2797854  75.1856339
  40.4135127  52.1674452  74.4133587  32.2452199  61.0365295  87.2040710
  31.5515670  60.6219248  86.6910665  32.9925190  61.0785832  86.6074129
  48.3817419  51.8271482  82.0695745  47.8016088  52.4856286  81.6873797
  48.1153352  51.0048827  81.6583162  46.8320986  51.2276540  84.2717065
  47.3320764  51.3393075  83.4631384  47.4756594  50.9237593  84.9117873
  40.8902982  59.1355170  97.1584906  40.4070063  59.9355530  97.3648795
  40.9763921  59.1463114  96.2052350  34.1588941  60.9683549  85.0806725
  34.1359629  61.0671237  84.1288608  34.4689578  61.8148700  85.4023891
  36.8176319  63.0259704  89.1953340  37.7719573  62.9943647  89.1283271
  36.6188843  62.5650328  90.0103566  37.4075701  61.5960820  91.7624137
  38.2268590  62.0904899  91.7858975  37.6812509  60.6792788  91.7341705
  47.1642297  53.9871573  81.1252093  46.2768152  54.2721223  80.9072288
  47.5796286  53.8265336  80.2779370  50.5156834  54.0118094  84.8406432
  51.2917224  54.5014546  85.1131049  49.7904968  54.4376148  85.2978302
  52.9529392  54.7245713  85.8980373  53.5473883  54.4841449  85.1873681
  53.0255976  54.0052843  86.5253909  35.1726548  68.5679324  86.2123537
  35.0381016  67.8079725  85.6461536  34.7558610  69.2920224  85.7452326
  46.3085511  63.7516247  75.2200113  47.0121361  63.9566250  75.8357768
  45.5848160  64.3193009  75.4849196  47.1383321  59.5026109  81.3402383
  47.0818523  59.9594660  80.5010015  47.6911664  58.7416793  81.1625226
  50.9488127  55.2915840  82.1652502  50.6925061  54.8912476  82.9960710
  50.3240995  56.0059634  82.0402642  55.2600465  58.0311914  84.6723794
  54.7000023  58.1005103  85.4455356  54.6543968  57.8552898  83.9523290
  38.3295674  69.4648641  86.4241980  38.2128058  70.4094073  86.3220670
  37.5088120  69.1622202  86.8127779  48.2172208  64.1898777  77.2698573
  49.0517812  63.7579975  77.0876048  48.0556551  64.0180790  78.1975467
  47.8718100  60.6930890  78.6354912  47.8166904  60.5275161  77.6943356
  47.2464156  61.4006923  78.7917102  32.6610615  55.9298954  92.4616334
  33.3069479  55.4197908  92.9503560  32.4527767  56.6667636  93.0359760
  45.1864008  62.9979802  97.9608475  46.0555167  63.1720454  97.5995110
  44.7070759  63.8174219  97.8384204  41.1814226  50.1938999  78.2140231
  41.1692896  51.1380839  78.3708501  42.0737648  50.0109144  77.9199692
  39.3550188  70.1176903  89.6397909  40.2577435  70.1500513  89.9564404
  39.1287558  69.1877354  89.6544244  41.1103790  68.8707889  86.3007987
  40.1599421  68.8709751  86.1872359  41.4136276  68.1240624  85.7844022
  44.9966345  46.7881775  82.4686167  44.2298741  46.2340262  82.6142850
  45.4077050  46.8603644  83.3300319  37.0008106  53.0766571  96.5591349
  37.8639568  52.7203376  96.7694673  36.4273517  52.7380466  97.2466753
  56.8456483  74.7068428  87.3653750  57.4834893  74.5875175  86.6617090
  56.7277326  75.6549272  87.4241702  53.6546190  74.6595856  87.3015274
  53.3164701  74.5436920  86.4135809  54.5235958  74.2587021  87.2816280
  49.5133005  76.5131332  83.2912165  48.9497870  76.4221269  82.5228453
  49.3985400  75.6931237  83.7714658  54.1365973  75.8130707  93.2601480
  54.1254613  75.4183506  92.3881983  54.2986612  75.0796780  93.8535251
  47.0597437  78.0082524  86.1296386  47.8518729  77.6673348  85.7142685
  47.2994087  78.1177499  87.0498539  55.0932564  80.1802300  78.6026630
  54.4420544  80.7656380  78.2160644  55.8876927  80.7108495  78.6621668
  49.0188191  77.2691437  79.0013764  49.7919067  76.7220424  78.8626640
  49.3713590  78.1335686  79.2128226  50.8573234  78.5967819  92.2080664
  50.5663100  79.5013450  92.0927330  51.4930218  78.6384347  92.9224733
  51.7829441  75.9744668  88.7982023  52.3793013  75.7500690  88.0838986
  51.8404412  75.2329413  89.4007471  51.3554469  73.4284103  76.6332214
  51.6079990  72.9065624  75.8715677  50.4179028  73.2650249  76.7358898
  56.3997752  72.4319881  84.4406958  57.1860841  72.0139305  84.0897375
  56.6636456  73.3365974  84.6088606  56.5707829  77.8692732  79.1395614
  55.9353662  77.9427358  79.8516519  56.2405236  78.4586331  78.4614694
  61.8006179  72.3695115  85.3439936  62.5331351  71.7994331  85.5777766
  61.0445535  71.9816715  85.7846442  51.0750758  75.3312209  78.8356589
  50.9587016  74.6557112  79.5037674  51.1853018  74.8444583  78.0188742
  53.4182299  74.7922356  82.5403279  53.0540506  74.2652977  83.2516200
  54.2749415  74.4020825  82.3669764  59.3231599  66.0816689  89.8034545
  58.9914924  66.9512100  89.5795760  58.7277213  65.7652973  90.4828575
  53.0587786  69.8212256  77.5364627  53.2262188  70.6892492  77.9035098
  52.8684955  69.9839538  76.6125916  55.8163119  78.2829235  89.2030457
  55.5163842  79.1854274  89.0946265  55.4714178  78.0161418  90.0551610
  49.2675600  74.7343032  85.2367162  48.3426097  74.6019246  85.4444854
  49.5160014  75.5137251  85.7337104  59.2160263  70.8011775  86.8827895
  58.3077140  70.7327183  86.5886656  59.1647858  71.2783720  87.7109720
  53.0377007  72.2769913  78.5211294  52.9176632  72.7226964  79.3596774
  52.3429595  72.6255231  77.9624832  46.6284411  74.3776305  86.0710951
  46.7576793  74.6310784  86.9850363  45.9481863  74.9704013  85.7515606
  50.7983899  85.0473555  82.1701425  50.7207928  85.9981380  82.2489906
  50.1945542  84.7019428  82.8276351  53.2901128  72.2201421  94.8262792
  52.5134462  72.7795341  94.8165657  53.9291691  72.7058204  95.3477662
  61.0821909  69.0028213  88.6605769  60.4396289  69.2960747  88.0145563
  60.5776838  68.8881134  89.4658965  58.7362073  72.7491387  79.3491628
  59.6479929  72.9818773  79.1739326  58.2271720  73.3328431  78.7866707
  51.5447501  75.0286874  94.3880759  52.2862185  75.5671918  94.1115583
  50.8384486  75.6553163  94.5452311  57.0202840  77.1716014  92.9852921
  57.4286196  76.7298425  92.2407553  56.2980102  76.5968642  93.2387113
  53.3733910  72.1088621  90.3586478  54.2195106  72.5328035  90.5021127
  53.3132548  71.4522245  91.0525041  57.3431655  77.7317205  86.7405209
  56.7140517  77.8962919  86.0381277  56.9557317  78.1458815  87.5116173
  61.2220887  78.6671643  84.0949573  60.5371925  79.0470544  83.5446607
  61.3064736  79.2766970  84.8281521  56.5233356  69.7692990  92.0167651
  56.2794288  70.5235050  91.4801927  56.7993286  70.1478337  92.8514898
  58.4771818  76.3131602  90.6944917  58.6888714  76.9563362  90.0179298
  58.4301567  75.4793918  90.2266847  56.0798047  68.9249423  87.5981489
  55.2182526  69.2230676  87.8898226  56.1060482  69.1419821  86.6662522
  52.8959617  77.4691613  84.0055295  53.3597962  77.7479316  83.2159917
  52.6316415  76.5675058  83.8228385  49.7883698  77.0163095  86.9435058
  50.3585055  77.4450363  86.3052542  50.3791810  76.7345679  87.6419243
  51.8328503  73.5914765  80.8144860  52.5352546  74.0435809  81.2818786
  51.5009131  72.9498584  81.4424753  50.2808864  72.1826522  95.1896069
  49.6507525  72.8642803  95.4231466  50.1744952  72.0709604  94.2449207
  45.5753837  71.8498318  86.1161993  44.7852891  72.1055847  85.6402104
  46.0665084  72.6646656  86.2214034  59.5917646  79.1903557  88.8667274
  60.4135090  78.7883745  88.5849956  59.5880049  79.0871791  89.8183390
  47.5268582  72.2142897  83.0745470  46.7299746  72.3261592  83.5928966
  47.2994174  72.5529550  82.2086360  53.3574250  78.7387601  91.0227985
  53.4218682  79.2008008  91.8586156  52.6485174  78.1084966  91.1510294
  43.8591540  72.1028809  88.5476984  44.1099578  72.9875818  88.8134560
  44.3951088  71.9233410  87.7752076  67.6823639  75.5342306  85.2152246
  66.9287348  74.9649704  85.0596250  67.8171181  75.5004970  86.1622880
  53.0722268  80.4055708  80.8906965  52.9367942  81.2507244  81.3191813
  53.6132080  80.6074986  80.1272899  49.5589607  66.4847288  97.5521320
  49.1656553  65.9313486  98.2268964  50.3755747  66.7957866  97.9427838
  46.5251665  77.9231146  81.4634890  47.0376185  78.7174396  81.6140455
  47.1774378  77.2257437  81.3968491  48.3346550  81.0396902  83.5457643
  48.5113178  81.9614867  83.3578627  49.1303383  80.7255322  83.9752023
  52.4757568  67.9005167  95.1441577  53.2167282  68.5012320  95.0646039
  52.7075491  67.1582805  94.5859619  47.6198906  73.0861534  93.4219806
  47.5052421  72.1846792  93.7226905  46.7643424  73.3325231  93.0704623
  54.6990744  81.0279275  95.0207307  54.2554598  80.2415653  94.7028211
  55.3607957  81.2158425  94.3551198  49.4577865  82.5575076  89.5467985
  50.0085290  82.4292140  88.7744979  48.6189341  82.8569965  89.1962878
  56.7971982  81.3082075  93.0488708  56.7790457  82.1290956  92.5568977
  57.7191902  81.1836150  93.2738849  53.2545036  78.8226204  93.8912217
  53.7873373  78.0614492  93.6611525  52.7259117  78.5299856  94.6336371
  56.4214731  63.9286270  89.4205858  56.0779000  64.8187912  89.3444969
  56.7893694  63.7387928  88.5575443  44.4900582  76.2519800  82.2394461
  45.3275804  76.6616809  82.0228168  44.6678849  75.3119243  82.2094654
  56.3865014  73.9194881  77.9278293  55.8711637  74.6899486  78.1666681
  56.1142322  73.2460017  78.5511355  53.9712125  68.7644582  82.9863532
  53.1153721  68.3751432  82.8069171  54.3839077  68.8436543  82.1263317
  55.5011271  66.2990925  87.3855092  54.9976067  66.2621060  86.5722897
  55.7941878  67.2083668  87.4451748  51.7454157  66.3829655  86.3921273
  52.6107154  66.1872464  86.0327163  51.8131666  66.1540007  87.3190630
  61.3599288  76.6727236  79.8631467  60.5828731  76.3338395  79.4186629
  62.0390769  76.6779859  79.1886432  56.1751317  71.7921973  79.7538075
  55.8701453  72.1068122  80.6048218  57.1281759  71.8703393  79.7965408
  54.6197749  77.9512196  81.4031029  54.0919110  77.2164956  81.0904266
  54.1185252  78.7286873  81.1570997  59.5990595  76.1461217  86.5198075
  58.9414269  76.8360478  86.6078204  60.4030994  76.5357649  86.8632061
  49.3516476  68.6131863  83.7637640  49.9260228  68.3907044  83.0310833
  49.9387459  68.6820557  84.5166241  58.4096054  74.5005590  84.5702017
  58.9227935  75.1335582  85.0723726  59.0597278  73.9006785  84.2045377
  49.6786064  70.6436324  77.7833525  48.8423376  70.9811010  78.1042800
  49.5390833  70.5085304  76.8460662  51.6539144  65.4873112  82.4912710
  51.0003557  65.1722129  81.8669324  51.6119618  64.8648852  83.2172533
  52.7650349  75.7692407  74.4066002  51.8577411  75.5381660  74.6057151
  53.2621381  74.9730026  74.5939983  55.6718428  84.4789914  77.3262688
  54.9980127  84.7821611  77.9347646  56.0584250  85.2818994  76.9768145
  54.8876885  71.9755045  86.8160357  53.9699446  72.1969992  86.6582045
  55.3037028  72.0501356  85.9572065  55.6711932  73.3746461  81.9463037
  56.4183751  73.8867858  81.6370160  55.9403522  73.0530514  82.8067431
  53.9438582  75.8705002  78.9289992  53.0349802  75.5864034  79.0262462
  53.9733666  76.2904080  78.0693299  59.1757850  79.4811591  82.6981159
  58.7220177  78.6402501  82.7546350  58.5451817  80.1172989  83.0355939
  58.1190769  70.4103577  83.9281827  57.3813526  69.8980963  84.2592069
  58.3717543  69.9703959  83.1165104  57.6190789  81.3188088  83.6330977
  57.9113763  81.8793145  82.9143343  58.1289410  81.6116649  84.3884137
  58.2202397  63.1879829  84.5223596  58.5261274  62.3277193  84.2349511
  58.9455002  63.7797449  84.3222590  44.5126753  73.5910516  82.9105194
  44.3151153  72.9979876  82.1856261  43.9573417  73.2862726  83.6281133
  52.4923477  73.4833622  85.0299787  52.5472086  72.5307459  84.9542264
  51.6814679  73.6393061  85.5141086  53.6414670  77.4113745  76.2678070
  53.2034100  76.6949604  75.8083708  54.3825111  77.6389860  75.7063162
  50.4315836  72.1010682  82.7890166  49.6183702  72.4004853  83.1955358
  50.9274831  71.7066371  83.5064648  52.5824414  82.0968439  84.7224431
  52.5400593  82.3229285  83.7932963  53.4987113  81.8631813  84.8710232
  56.0290048  72.5652506  91.6205060  56.3839436  72.7923980  92.4799526
  56.6762179  72.8970883  90.9982315  61.7587785  75.6870942  82.3254389
  61.6205684  75.8772538  81.3975578  61.4024004  76.4490325  82.7822440
  49.9229911  69.6729037  88.4051401  50.5629291  69.5317797  87.7074364
  49.0907442  69.3863551  88.0290003  61.7857165  77.7547469  87.3365660
  62.2193671  77.6622758  88.1848714  62.4988745  77.7304970  86.6985676
  50.6990215  78.9731468  84.5186393  51.4930814  78.4781788  84.3168968
  49.9881907  78.4449331  84.1554099  55.5185060  81.3549563  88.8698761
  55.5722082  81.9240500  89.6376477  54.6499841  81.5251448  88.5052798
  47.0072979  73.1174550  80.5946146  46.0770567  73.0559005  80.8116108
  47.1030451  72.5950502  79.7982787  46.9258528  69.6429362  83.1824388
  47.1865345  70.5574696  83.0733548  47.7475700  69.1753805  83.3321001
  48.3983453  71.0567120  90.3523212  49.0706506  70.8484482  89.7035861
  47.5713239  70.8589206  89.9128445  62.6472714  77.7971170  89.8698546
  62.8408604  78.7016980  90.1157821  62.5473332  77.3378589  90.7037131
  54.3009025  67.6829061  92.3688873  53.6536940  68.3819010  92.2753350
  55.0710040  68.1165204  92.7365121  57.7087823  77.9477913  95.4439426
  57.5573329  77.7188464  94.5269510  57.6992502  78.9048514  95.4570771
  54.4773159  75.5209825  90.4285693  55.4065219  75.6720985  90.2554660
  54.0564189  75.6093846  89.5734339  53.2761491  79.5460490  88.1984230
  53.1372577  79.1779274  89.0710169  52.4876087  80.0608129  88.0268188
  53.8709643  84.6469586  79.5409767  54.0461399  84.1757630  80.3555390
  53.1842431  85.2735353  79.7691028  54.8266706  78.9242093  85.5873068
  54.4916539  78.8842863  86.4830718  54.3270652  78.2586809  85.1143478
  48.8010950  74.3309723  91.1125649  48.6630748  73.5989961  91.7137188
  49.7115874  74.2418623  90.8309837  57.7625898  76.2698127  75.8610128
  57.1455069  75.5444955  75.7643181  57.2942386  77.0307487  75.5177202
  51.4293251  74.0429682  90.6009329  52.1392869  73.4022874  90.5595948
  51.3862559  74.2942577  91.5235510  59.4180030  80.9797035  93.5215908
  59.3592576  80.2956255  92.8546491  59.8199548  81.7216025  93.0696534
  50.1422185  71.0294900  92.4204969  49.6059542  70.5785638  93.0726565
  49.5538893  71.1640809  91.6775433  48.4370728  87.7958949  86.3149627
  48.6767327  88.4277473  86.9928646  47.5939925  87.4446989  86.6014986
  49.5524444  70.4883551  74.9831432  48.6753910  70.3672352  74.6193679
  50.0282197  69.6969630  74.7310321  59.4197437  78.9436619  91.7529888
  58.5324216  78.6062541  91.8756287  59.9895988  78.2119650  91.9898653
  41.0726584  75.2760711  85.0772939  41.7597624  74.9622441  84.4893955
  40.9174713  76.1802076  84.8040191  45.8761306  70.1650908  89.5057963
  45.7919495  69.5576577  88.7708373  45.0544012  70.6559926  89.5067459
  52.9498590  83.6038072  88.7191131  52.8768762  84.4093043  89.2310436
  52.5075983  83.8030037  87.8939153  52.7388370  82.8409842  82.2293953
  51.9555892  83.3831522  82.3232177  53.4381115  83.3583821  82.6288194
  56.0485020  68.6504471  84.8728158  56.5453719  67.8974433  84.5529228
  55.2772001  68.6868788  84.3071367  63.9014777  74.3544837  86.5146450
  63.8904654  75.2369552  86.1440383  63.0332157  74.0016387  86.3200987
  55.4097274  83.5024906  90.8749290  56.1225246  84.1372370  90.8025191
  54.9187302  83.5988772  90.0589292  57.1314801  77.4076158  82.4466581
  56.1971079  77.5277621  82.2771286  57.3091469  76.5048625  82.1826591
  52.6319989  70.7921854  84.5999843  52.2617776  70.2392894  85.2880748
  53.1279081  70.1879988  84.0474843  60.5187352  73.2493478  82.9816616
  60.9847804  74.0821469  82.9076918  60.9694852  72.7838459  83.6861874
  50.4609187  81.2519349  91.6954861  51.1618647  81.8855832  91.8484255
  49.9904302  81.5934081  90.9350500  58.5863583  79.5937299  79.9802768
  58.8623427  79.4793893  80.8896642  57.7168082  79.1954784  79.9414941
  58.4904015  65.6174065  87.0207517  57.5767095  65.8478291  87.1889724
  58.9197116  65.7012509  87.8721549  58.2610473  73.8063957  89.5207411
  57.6081923  74.0539864  88.8659864  58.6390853  72.9928095  89.1869888
  55.2217647  83.8423650  83.6235581  55.4040042  83.0245306  84.0863334
  56.0450633  84.0591342  83.1860471  55.5559813  82.7691835  80.8850630
  56.0847579  82.2584289  80.2720792  55.8188032  82.4534365  81.7496163
  54.3098046  74.5483768  96.0073448  53.6338683  74.4477897  96.6775823
  55.1325680  74.3922981  96.4709445  46.0576905  80.7855704  88.6285963
  46.6430342  80.0399392  88.7613868  45.8601744  81.0959661  89.5122627
  48.9115561  83.8206952  83.6448406  48.2425936  84.3053079  83.1612446
  48.7728430  84.0676172  84.5591784  40.6494560  73.3561304  87.3490406
  40.6878660  72.8224895  88.1427525  40.1434853  72.8296510  86.7301384
  53.0520829  85.8550695  90.2431064  53.6039137  86.0182317  91.0080149
  53.3927023  86.4455133  89.5711089  48.0285322  68.2025845  90.8452949
  48.0926649  69.0640676  90.4330346  47.9652443  67.5899846  90.1125307
  47.5037595  70.2748977  94.4925983  48.1309634  69.8926055  95.1063507
  46.6465514  70.0563179  94.8581676  57.9031703  80.6811953  96.0979719
  58.4471607  81.2941911  95.6034673  57.3218548  81.2391531  96.6146732
  44.2803138  72.0825406  80.4244338  44.5756579  71.1736085  80.3711392
  43.3791173  72.0613146  80.1025340  56.1889216  83.8032671  87.2294746
  56.0640356  83.0022410  86.7205692  56.8468308  84.2978864  86.7408716
  47.8097385  70.1581403  86.4071886  47.0883970  70.7717371  86.2679360
  48.5990640  70.6939168  86.3288532  58.2524125  81.6041691  88.8574296
  57.3054460  81.4847042  88.7852623  58.6006898  80.7164189  88.9400558
  50.6123698  67.4935830  92.6812538  51.1358100  67.7398126  93.4438848
  50.3936031  68.3255864  92.2615676  46.0090979  69.7639504  80.5483663
  45.6803685  68.8836883  80.3658769  46.3630350  69.7087173  81.4360052
  55.2570558  81.3994407  85.0578649  55.1095521  80.4711114  85.2386219
  56.0824052  81.4214498  84.5735724  49.1232802  70.0512474  80.9159141
  49.4628875  70.5798395  80.1937749  49.5704923  70.3892880  81.6917707
  58.8604680  82.2222966  86.1443521  59.7851227  82.0165827  86.0067972
  58.6919983  81.9739367  87.0532863  51.8176243  68.4349525  90.3662209
  51.4773064  67.6357338  90.7682889  51.1115249  68.7351236  89.7939042
  52.4692715  65.5198837  88.8189532  53.2918784  65.0459315  88.6968422
  52.7130779  66.2989321  89.3188218  51.1100950  68.5487096  79.1152433
  51.8309312  68.9268348  78.6116150  50.4866254  69.2675972  79.2187411
  55.2532072  69.2532245  80.0510766  55.4695687  70.1356882  79.7499594
  54.7726140  68.8618458  79.3216408  49.9931294  72.2117958  86.6281510
  49.8475874  72.5258261  87.5205792  49.5156497  72.8302858  86.0752409
  51.8527677  69.2020506  86.6762400  51.8389245  68.3061599  86.3394698
  52.5700105  69.2091169  87.3100686  53.7053807  69.6357846  88.7215527
  53.4471585  70.5574917  88.7199858  53.1738848  69.2388280  89.4115992
  58.6499996  82.7408633  81.5005613  58.8236874  82.1755056  80.7479465
  59.1428887  83.5409528  81.3185103  44.4676956  74.7523302  89.5669172
  43.9230424  75.5283110  89.6989446  45.3456306  75.0994107  89.4088293
  51.2564573  68.0834886  81.9449970  51.3780484  67.1551532  82.1440858
  50.9666615  68.0973572  81.0328286  54.1255763  65.7689796  85.0816690
  54.1477460  65.8329130  84.1268669  54.5423822  64.9294305  85.2757196
  64.5039387  75.5045056  83.1195912  64.9470533  74.7552381  82.7215036
  63.6265898  75.4955192  82.7369644  59.6375169  82.0575397  78.6002511
  60.3326073  82.6782090  78.8189826  59.9798319  81.2070749  78.8754889
  45.2542978  73.8793198  92.4599328  44.5124714  74.0275834  93.0463959
  44.9335722  74.1401464  91.5966078  61.5366592  79.5075103  80.1289842
  62.0617916  79.8462376  79.4039162  61.4488944  78.5722118  79.9452976
  53.1986640  83.4209177  92.2579718  53.5073767  83.1758323  93.1302418
  53.9962122  83.6255815  91.7698589  53.2207252  85.5747086  84.4885095
  52.7812243  85.0823465  85.1817952  53.9715369  85.0320054  84.2477170
  45.6999591  81.7658627  84.4909723  46.5257611  81.4662399  84.1108367
  45.3493643  80.9966250  84.9399512  50.6681125  81.1185095  86.5607397
  50.0461134  80.4555800  86.2609625  51.3385992  81.1446227  85.8781044
  43.9008197  79.6844954  85.4498657  43.0640105  79.2567128  85.2682658
  43.8731842  79.8777397  86.3869448  50.7405652  69.5966883  96.1539903
  50.7893808  70.4729006  95.7717672  51.2828166  69.0544276  95.5811546
  61.2260498  80.1408007  95.4341040  60.4356042  80.1232145  94.8945539
  60.9893852  80.6796300  96.1890076  61.3458373  76.9900473  92.7473768
  61.3956378  76.8250480  93.6889291  61.2372296  76.1227732  92.3571649
  50.2294632  79.6689019  80.0365857  50.3782752  80.3524483  79.3832530
  51.0361075  79.6494109  80.5515313  58.6362135  72.9731401  94.0633075
  59.5371998  72.8337866  93.7717073  58.7110110  73.1385856  95.0031252
  52.9704941  70.3498256  92.9086261  52.1008250  70.6431822  92.6368850
  53.2064421  70.9338701  93.6293525  62.8476570  79.4097415  92.9915790
  62.5561378  79.7727395  93.8279251  62.2348701  78.6964423  92.8129122
  64.0472252  76.9750294  85.5118360  64.8819143  77.4140098  85.6755920
  64.1831381  76.4988947  84.6926606  61.0963758  74.5330029  91.4595848
  61.5717880  74.7257675  90.6514699  60.1729323  74.5889215  91.2139231
  47.9847265  75.6954196  81.0426926  47.7393306  74.7916526  81.2407136
  48.1543179  75.6971347  80.1006404  55.6743974  66.5677873  90.4251682
  56.1925918  67.3038900  90.0998170  55.3199107  66.8741866  91.2598441
  47.2542912  71.4282554  78.5413088  46.5612157  71.5026909  77.8853124
  47.0094664  70.6642898  79.0634604  55.9256569  62.9878155  85.9452578
  56.2058322  62.3201344  86.5713005  56.7107176  63.1807251  85.4327242
  53.7290037  82.1637149  77.5077605  53.1564004  82.7827336  77.0548076
  54.3022831  82.7136511  78.0417527  59.7965427  71.4095789  89.6924153
  60.7482850  71.5093887  89.7136377  59.6268877  70.6174058  90.2022238
  57.8179806  68.4951372  89.8783554  57.2229739  68.7756385  89.1830043
  57.5329503  68.9845273  90.6500295  56.9487297  82.4474299  78.6386187
  57.8817970  82.3819861  78.8419062  56.8610510  83.2830566  78.1800720
  59.5775314  81.7640170  75.5990134  59.4988945  81.4300033  76.4925892
  60.3984980  82.2561938  75.5981607  62.2753505  74.6301909  88.8066453
  62.2429825  73.6917910  88.9926137  62.8854128  74.7085946  88.0732278
  54.1136836  73.4997962  74.8493657  55.0595940  73.3704170  74.9182075
  53.7351081  72.7612624  75.3263085  62.4247993  71.4212952  88.8524736
  61.9087042  70.6371409  88.6654665  63.3087942  71.0931669  89.0171256
  60.0858720  65.1653968  84.8120549  59.8883541  64.8569056  85.6963881
  60.6958426  65.8915607  84.9418479  68.0930055  75.6917916  87.9472490
  68.8233443  75.4303204  88.5080193  67.4837000  74.9546638  87.9874558
  66.1745352  73.8325778  88.5446941  65.4478515  73.6981743  87.9363433
  65.7592639  74.1402607  89.3503659  53.9975528  77.5515708  96.3094314
  54.9178538  77.7294307  96.5034361  53.9625111  76.6071753  96.1574013
  52.2979753  71.4247938  74.7848542  51.3911208  71.1281051  74.8611256
  52.5755734  71.1277756  73.9182829  43.2157693  72.7454302  85.2347589
  42.8960477  71.8919610  84.9421963  42.6691121  72.9602880  85.9905556
  46.9937601  75.4616743  88.9517095  47.2123610  76.3933850  88.9705129
  47.4063374  75.1024717  89.7371899  53.9141818  65.9684828  80.9392784
  53.1042547  65.6231913  81.3148030  54.6026235  65.6592372  81.5280395
  55.8432367  65.0462875  82.5617080  56.3963405  65.4658328  83.2207103
  56.0802453  64.1198623  82.6040036  51.8665466  71.0349948  98.3419844
  51.7662193  71.9844305  98.2731935  51.6487008  70.7068187  97.4695914
  51.0678537  68.2834873  74.9260522  51.9297701  68.6089772  75.1856339
  51.2528882  67.4966369  74.4133587  43.0845953  76.3657213  87.2040710
  42.3909425  75.9511166  86.6910665  43.8318944  76.4077750  86.6074129
  59.2211174  67.1563400  82.0695745  58.6409843  67.8148204  81.6873797
  58.9547107  66.3340745  81.6583162  57.6714740  66.5568458  84.2717065
  58.1714519  66.6684992  83.4631384  58.3150348  66.2529511  84.9117873
  51.7296736  74.4647087  97.1584906  51.2463818  75.2647447  97.3648795
  51.8157675  74.4755032  96.2052350  44.9982696  76.2975467  85.0806725
  44.9753384  76.3963154  84.1288608  45.3083332  77.1440618  85.4023891
  47.6570074  78.3551622  89.1953340  48.6113327  78.3235564  89.1283271
  47.4582597  77.8942246  90.0103566  48.2469456  76.9252738  91.7624137
  49.0662345  77.4196817  91.7858975  48.5206263  76.0084706  91.7341705
  58.0036052  69.3163490  81.1252093  57.1161907  69.6013141  80.9072288
  58.4190041  69.1557254  80.2779370  61.3550588  69.3410011  84.8406432
  62.1310978  69.8306464  85.1131049  60.6298722  69.7668066  85.2978302
  63.7923147  70.0537631  85.8980373  64.3867637  69.8133366  85.1873681
  63.8649730  69.3344761  86.5253909  46.0120302  83.8971241  86.2123537
  45.8774770  83.1371642  85.6461536  45.5952365  84.6212141  85.7452326
  57.1479265  79.0808165  75.2200113  57.8515115  79.2858168  75.8357768
  56.4241914  79.6484927  75.4849196  57.9777076  74.8318026  81.3402383
  57.9212277  75.2886578  80.5010015  58.5305418  74.0708711  81.1625226
  61.7881882  70.6207758  82.1652502  61.5318816  70.2204394  82.9960710
  61.1634750  71.3351552  82.0402642  66.0994219  73.3603831  84.6723794
  65.5393777  73.4297021  85.4455356  65.4937723  73.1844816  83.9523290
  49.1689428  84.7940558  86.4241980  49.0521812  85.7385991  86.3220670
  48.3481874  84.4914120  86.8127779  59.0565963  79.5190694  77.2698573
  59.8911567  79.0871893  77.0876048  58.8950306  79.3472708  78.1975467
  58.7111855  76.0222808  78.6354912  58.6560659  75.8567079  77.6943356
  58.0857910  76.7298840  78.7917102  43.5004370  71.2590872  92.4616334
  44.1463233  70.7489826  92.9503560  43.2921521  71.9959554  93.0359760
  56.0257762  78.3271719  97.9608475  56.8948922  78.5012372  97.5995110
  55.5464514  79.1466136  97.8384204  52.0207980  65.5230917  78.2140231
  52.0086650  66.4672756  78.3708501  52.9131402  65.3401062  77.9199692
  50.1943942  85.4468820  89.6397909  51.0971189  85.4792431  89.9564404
  49.9681312  84.5169271  89.6544244  51.9497544  84.1999807  86.3007987
  50.9993175  84.2001669  86.1872359  52.2530030  83.4532541  85.7844022
  55.8360100  62.1173693  82.4686167  55.0692496  61.5632180  82.6142850
  56.2470805  62.1895562  83.3300319  47.8401861  68.4058489  96.5591349
  48.7033322  68.0495294  96.7694673  47.2667272  68.0672384  97.2466753
  67.6850238  90.0360345  87.3653750  68.3228648  89.9167093  86.6617090
  67.5671081  90.9841189  87.4241702  64.4939944  89.9887773  87.3015274
  64.1558456  89.8728838  86.4135809  65.3629712  89.5878939  87.2816280
  60.3526760  91.8423250  83.2912165  59.7891625  91.7513187  82.5228453
  60.2379155  91.0223154  83.7714658  64.9759727  91.1422625  93.2601480
  64.9648368  90.7475423  92.3881983  65.1380367  90.4088698  93.8535251
  57.8991192  93.3374441  86.1296386  58.6912484  92.9965266  85.7142685
  58.1387842  93.4469416  87.0498539  65.9326319  95.5094218  78.6026630
  65.2814298  96.0948298  78.2160644  66.7270681  96.0400412  78.6621668
  59.8581946  92.5983355  79.0013764  60.6312822  92.0512342  78.8626640
  60.2107345  93.4627604  79.2128226  61.6966988  93.9259737  92.2080664
  61.4056854  94.8305368  92.0927330  62.3323973  93.9676265  92.9224733
  62.6223195  91.3036585  88.7982023  63.2186767  91.0792608  88.0838986
  62.6798167  90.5621331  89.4007471  62.1948223  88.7576021  76.6332214
  62.4473744  88.2357542  75.8715677  61.2572783  88.5942166  76.7358898
  67.2391506  87.7611799  84.4406958  68.0254596  87.3431222  84.0897375
  67.5030211  88.6657891  84.6088606  67.4101584  93.1984649  79.1395614
  66.7747417  93.2719276  79.8516519  67.0798990  93.7878248  78.4614694
  72.6399933  87.6987032  85.3439936  73.3725105  87.1286249  85.5777766
  71.8839289  87.3108633  85.7846442  61.9144512  90.6604127  78.8356589
  61.7980770  89.9849030  79.5037674  62.0246772  90.1736501  78.0188742
  64.2576053  90.1214274  82.5403279  63.8934260  89.5944895  83.2516200
  65.1143169  89.7312743  82.3669764  70.1625354  81.4108606  89.8034545
  69.8308679  82.2804017  89.5795760  69.5670967  81.0944890  90.4828575
  63.8981540  85.1504174  77.5364627  64.0655942  86.0184410  77.9035098
  63.7078709  85.3131455  76.6125916  66.6556873  93.6121152  89.2030457
  66.3557596  94.5146191  89.0946265  66.3107933  93.3453336  90.0551610
  60.1069355  90.0634949  85.2367162  59.1819851  89.9311163  85.4444854
  60.3553768  90.8429169  85.7337104  70.0554017  86.1303693  86.8827895
  69.1470894  86.0619101  86.5886656  70.0041613  86.6075638  87.7109720
  63.8770761  87.6061831  78.5211294  63.7570386  88.0518882  79.3596774
  63.1823349  87.9547149  77.9624832  57.4678166  89.7068223  86.0710951
  57.5970547  89.9602702  86.9850363  56.7875617  90.2995931  85.7515606
  61.6377653 100.3765473  82.1701425  61.5601683 101.3273298  82.2489906
  61.0339297 100.0311345  82.8276351  64.1294883  87.5493338  94.8262792
  63.3528217  88.1087258  94.8165657  64.7685446  88.0350121  95.3477662
  71.9215664  84.3320131  88.6605769  71.2790044  84.6252664  88.0145563
  71.4170592  84.2173051  89.4658965  69.5755827  88.0783304  79.3491628
  70.4873683  88.3110691  79.1739326  69.0665474  88.6620348  78.7866707
  62.3841255  90.3578792  94.3880759  63.1255940  90.8963836  94.1115583
  61.6778241  90.9845080  94.5452311  67.8596595  92.5007932  92.9852921
  68.2679951  92.0590343  92.2407553  67.1373856  91.9260560  93.2387113
  64.2127665  87.4380539  90.3586478  65.0588860  87.8619952  90.5021127
  64.1526303  86.7814163  91.0525041  68.1825409  93.0609123  86.7405209
  67.5534272  93.2254837  86.0381277  67.7951072  93.4750732  87.5116173
  72.0614641  93.9963561  84.0949573  71.3765680  94.3762462  83.5446607
  72.1458491  94.6058887  84.8281521  67.3627110  85.0984907  92.0167651
  67.1188042  85.8526968  91.4801927  67.6387041  85.4770255  92.8514898
  69.3165573  91.6423520  90.6944917  69.5282468  92.2855279  90.0179298
  69.2695321  90.8085836  90.2266847  66.9191802  84.2541340  87.5981489
  66.0576281  84.5522594  87.8898226  66.9454237  84.4711739  86.6662522
  63.7353371  92.7983531  84.0055295  64.1991717  93.0771234  83.2159917
  63.4710169  91.8966975  83.8228385  60.6277452  92.3455012  86.9435058
  61.1978809  92.7742281  86.3052542  61.2185564  92.0637597  87.6419243
  62.6722257  88.9206683  80.8144860  63.3746301  89.3727727  81.2818786
  62.3402886  88.2790502  81.4424753  61.1202619  87.5118440  95.1896069
  60.4901280  88.1934721  95.4231466  61.0138707  87.4001521  94.2449207
  56.4147591  87.1790236  86.1161993  55.6246645  87.4347764  85.6402104
  56.9058839  87.9938574  86.2214034  70.4311401  94.5195475  88.8667274
  71.2528845  94.1175662  88.5849956  70.4273804  94.4163709  89.8183390
  58.3662337  87.5434815  83.0745470  57.5693500  87.6553509  83.5928966
  58.1387929  87.8821467  82.2086360  64.1968004  94.0679518  91.0227985
  64.2612437  94.5299926  91.8586156  63.4878928  93.4376883  91.1510294
  54.6985294  87.4320726  88.5476984  54.9493333  88.3167736  88.8134560
  55.2344843  87.2525328  87.7752076  78.5217394  90.8634223  85.2152246
  77.7681102  90.2941622  85.0596250  78.6564935  90.8296888  86.1622880
  63.9116022  95.7347626  80.8906965  63.7761697  96.5799161  81.3191813
  64.4525835  95.9366903  80.1272899  60.3983362  81.8139206  97.5521320
  60.0050307  81.2605404  98.2268964  61.2149502  82.1249784  97.9427838
  57.3645419  93.2523064  81.4634890  57.8769940  94.0466314  81.6140455
  58.0168132  92.5549354  81.3968491  59.1740304  96.3688820  83.5457643
  59.3506932  97.2906785  83.3578627  59.9697138  96.0547239  83.9752023
  63.3151323  83.2297085  95.1441577  64.0561036  83.8304238  95.0646039
  63.5469245  82.4874723  94.5859619  58.4592661  88.4153452  93.4219806
  58.3446176  87.5138709  93.7226905  57.6037178  88.6617149  93.0704623
  65.5384498  96.3571192  95.0207307  65.0948353  95.5707571  94.7028211
  66.2001712  96.5450343  94.3551198  60.2971620  97.8866994  89.5467985
  60.8479045  97.7584057  88.7744979  59.4583095  98.1861883  89.1962878
  67.6365736  96.6373992  93.0488708  67.6184212  97.4582873  92.5568977
  68.5585657  96.5128067  93.2738849  64.0938791  94.1518122  93.8912217
  64.6267127  93.3906410  93.6611525  63.5652872  93.8591774  94.6336371
  67.2608486  79.2578188  89.4205858  66.9172755  80.1479829  89.3444969
  67.6287448  79.0679845  88.5575443  55.3294336  91.5811718  82.2394461
  56.1669558  91.9908726  82.0228168  55.5072604  90.6411160  82.2094654
  67.2258768  89.2486799  77.9278293  66.7105392  90.0191403  78.1666681
  66.9536077  88.5751935  78.5511355  64.8105879  84.0936500  82.9863532
  63.9547476  83.7043350  82.8069171  65.2232831  84.1728460  82.1263317
  66.3405026  81.6282843  87.3855092  65.8369822  81.5912978  86.5722897
  66.6335633  82.5375586  87.4451748  62.5847912  81.7121573  86.3921273
  63.4500909  81.5164381  86.0327163  62.6525421  81.4831924  87.3190630
  72.1993042  92.0019153  79.8631467  71.4222485  91.6630313  79.4186629
  72.8784523  92.0071777  79.1886432  67.0145071  87.1213891  79.7538075
  66.7095207  87.4360040  80.6048218  67.9675514  87.1995311  79.7965408
  65.4591503  93.2804114  81.4031029  64.9312865  92.5456874  81.0904266
  64.9579006  94.0578791  81.1570997  70.4384349  91.4753135  86.5198075
  69.7808024  92.1652396  86.6078204  71.2424749  91.8649567  86.8632061
  60.1910231  83.9423780  83.7637640  60.7653983  83.7198962  83.0310833
  60.7781213  84.0112475  84.5166241  69.2489808  89.8297507  84.5702017
  69.7621690  90.4627499  85.0723726  69.8991032  89.2298703  84.2045377
  60.5179818  85.9728241  77.7833525  59.6817130  86.3102928  78.1042800
  60.3784588  85.8377221  76.8460662  62.4932899  80.8165029  82.4912710
  61.8397311  80.5014047  81.8669324  62.4513373  80.1940770  83.2172533
  63.6044104  91.0984324  74.4066002  62.6971165  90.8673578  74.6057151
  64.1015135  90.3021944  74.5939983  66.5112182  99.8081832  77.3262688
  65.8373881 100.1113528  77.9347646  66.8978004 100.6110912  76.9768145
  65.7270639  87.3046963  86.8160357  64.8093200  87.5261910  86.6582045
  66.1430783  87.3793273  85.9572065  66.5105687  88.7038379  81.9463037
  67.2577506  89.2159776  81.6370160  66.7797276  88.3822431  82.8067431
  64.7832337  91.1996919  78.9289992  63.8743556  90.9155952  79.0262462
  64.8127421  91.6195998  78.0693299  70.0151604  94.8103509  82.6981159
  69.5613931  93.9694419  82.7546350  69.3845571  95.4464907  83.0355939
  68.9584524  85.7395495  83.9281827  68.2207281  85.2272881  84.2592069
  69.2111297  85.2995876  83.1165104  68.4584544  96.6480005  83.6330977
  68.7507518  97.2085063  82.9143343  68.9683164  96.9408566  84.3884137
  69.0596151  78.5171747  84.5223596  69.3655028  77.6569110  84.2349511
  69.7848756  79.1089367  84.3222590  55.3520507  88.9202433  82.9105194
  55.1544907  88.3271794  82.1856261  54.7967171  88.6154644  83.6281133
  63.3317231  88.8125540  85.0299787  63.3865841  87.8599376  84.9542264
  62.5208433  88.9684979  85.5141086  64.4808425  92.7405663  76.2678070
  64.0427855  92.0241522  75.8083708  65.2218866  92.9681778  75.7063162
  61.2709591  87.4302600  82.7890166  60.4577456  87.7296770  83.1955358
  61.7668585  87.0358288  83.5064648  63.4218169  97.4260357  84.7224431
  63.3794348  97.6521203  83.7932963  64.3380868  97.1923731  84.8710232
  66.8683803  87.8944424  91.6205060  67.2233190  88.1215897  92.4799526
  67.5155934  88.2262801  90.9982315  72.5981540  91.0162860  82.3254389
  72.4599438  91.2064456  81.3975578  72.2417758  91.7782243  82.7822440
  60.7623666  85.0020955  88.4051401  61.4023045  84.8609714  87.7074364
  59.9301196  84.7155469  88.0290003  72.6250919  93.0839387  87.3365660
  73.0587426  92.9914676  88.1848714  73.3382500  93.0596887  86.6985676
  61.5383970  94.3023386  84.5186393  62.3324568  93.8073706  84.3168968
  60.8275662  93.7741249  84.1554099  66.3578814  96.6841481  88.8698761
  66.4115836  97.2532417  89.6376477  65.4893595  96.8543366  88.5052798
  57.8466733  88.4466467  80.5946146  56.9164321  88.3850923  80.8116108
  57.9424205  87.9242420  79.7982787  57.7652282  84.9721280  83.1824388
  58.0259099  85.8866613  83.0733548  58.5869454  84.5045723  83.3321001
  59.2377207  86.3859037  90.3523212  59.9100261  86.1776399  89.7035861
  58.4106994  86.1881123  89.9128445  73.4866469  93.1263088  89.8698546
  73.6802359  94.0308898  90.1157821  73.3867087  92.6670507  90.7037131
  65.1402779  83.0120978  92.3688873  64.4930694  83.7110928  92.2753350
  65.9103795  83.4457122  92.7365121  68.5481577  93.2769830  95.4439426
  68.3967084  93.0480382  94.5269510  68.5386257  94.2340432  95.4570771
  65.3166914  90.8501743  90.4285693  66.2458974  91.0012903  90.2554660
  64.8957944  90.9385764  89.5734339  64.1155246  94.8752408  88.1984230
  63.9766331  94.5071192  89.0710169  63.3269842  95.3900047  88.0268188
  64.7103398  99.9761504  79.5409767  64.8855153  99.5049547  80.3555390
  64.0236186 100.6027270  79.7691028  65.6660461  94.2534010  85.5873068
  65.3310293  94.2134780  86.4830718  65.1664406  93.5878726  85.1143478
  59.6404705  89.6601640  91.1125649  59.5024503  88.9281879  91.7137188
  60.5509628  89.5710540  90.8309837  68.6019652  91.5990045  75.8610128
  67.9848823  90.8736873  75.7643181  68.1336141  92.3599405  75.5177202
  62.2687005  89.3721600  90.6009329  62.9786624  88.7314792  90.5595948
  62.2256314  89.6234494  91.5235510  70.2573784  96.3088953  93.5215908
  70.1986330  95.6248173  92.8546491  70.6593302  97.0507943  93.0696534
  60.9815939  86.3586818  92.4204969  60.4453296  85.9077556  93.0726565
  60.3932648  86.4932726  91.6775433  59.2764483 103.1250867  86.3149627
  59.5161081 103.7569391  86.9928646  58.4333679 102.7738907  86.6014986
  60.3918198  85.8175469  74.9831432  59.5147665  85.6964270  74.6193679
  60.8675951  85.0261547  74.7310321  70.2591191  94.2728537  91.7529888
  69.3717970  93.9354459  91.8756287  70.8289742  93.5411568  91.9898653
  51.9120338  90.6052629  85.0772939  52.5991378  90.2914359  84.4893955
  51.7568467  91.5093993  84.8040191  56.7155061  85.4942825  89.5057963
  56.6313249  84.8868495  88.7708373  55.8937767  85.9851844  89.5067459
  63.7892345  98.9329989  88.7191131  63.7162516  99.7384961  89.2310436
  63.3469738  99.1321955  87.8939153  63.5782124  98.1701759  82.2293953
  62.7949646  98.7123439  82.3232177  64.2774869  98.6875739  82.6288194
  66.8878774  83.9796389  84.8728158  67.3847474  83.2266351  84.5529228
  66.1165756  84.0160705  84.3071367  74.7408532  89.6836754  86.5146450
  74.7298408  90.5661470  86.1440383  73.8725911  89.3308305  86.3200987
  66.2491028  98.8316823  90.8749290  66.9619000  99.4664288  90.8025191
  65.7581057  98.9280689  90.0589292  67.9708555  92.7368076  82.4466581
  67.0364834  92.8569538  82.2771286  68.1485224  91.8340543  82.1826591
  63.4713743  86.1213772  84.5999843  63.1011531  85.5684812  85.2880748
  63.9672836  85.5171905  84.0474843  71.3581106  88.5785395  82.9816616
  71.8241559  89.4113387  82.9076918  71.8088607  88.1130377  83.6861874
  61.3002942  96.5811267  91.6954861  62.0012401  97.2147750  91.8484255
  60.8298057  96.9225998  90.9350500  69.4257338  94.9229217  79.9802768
  69.7017181  94.8085811  80.8896642  68.5561836  94.5246701  79.9414941
  69.3297769  80.9465982  87.0207517  68.4160849  81.1770209  87.1889724
  69.7590871  81.0304426  87.8721549  69.1004228  89.1355874  89.5207411
  68.4475678  89.3831782  88.8659864  69.4784608  88.3220012  89.1869888
  66.0611402  99.1715567  83.6235581  66.2433796  98.3537223  84.0863334
  66.8844388  99.3883260  83.1860471  66.3953567  98.0983753  80.8850630
  66.9241334  97.5876207  80.2720792  66.6581787  97.7826283  81.7496163
  65.1491801  89.8775685  96.0073448  64.4732438  89.7769815  96.6775823
  65.9719435  89.7214899  96.4709445  56.8970660  96.1147622  88.6285963
  57.4824097  95.3691310  88.7613868  56.6995498  96.4251579  89.5122627
  59.7509315  99.1498869  83.6448406  59.0819690  99.6344997  83.1612446
  59.6122185  99.3968090  84.5591784  51.4888315  88.6853222  87.3490406
  51.5272414  88.1516813  88.1427525  50.9828607  88.1588428  86.7301384
  63.8914584 101.1842613  90.2431064  64.4432892 101.3474234  91.0080149
  64.2320777 101.7747051  89.5711089  58.8679077  83.5317763  90.8452949
  58.9320403  84.3932593  90.4330346  58.8046197  82.9191764  90.1125307
  58.3431349  85.6040895  94.4925983  58.9703388  85.2217972  95.1063507
  57.4859268  85.3855097  94.8581676  68.7425458  96.0103870  96.0979719
  69.2865362  96.6233828  95.6034673  68.1612303  96.5683449  96.6146732
  55.1196892  87.4117324  80.4244338  55.4150333  86.5028003  80.3711392
  54.2184928  87.3905064  80.1025340  67.0282971  99.1324588  87.2294746
  66.9034110  98.3314328  86.7205692  67.6862062  99.6270782  86.7408716
  58.6491139  85.4873321  86.4071886  57.9277725  86.1009288  86.2679360
  59.4384395  86.0231086  86.3288532  69.0917879  96.9333608  88.8574296
  68.1448215  96.8138960  88.7852623  69.4400652  96.0456106  88.9400558
  61.4517453  82.8227747  92.6812538  61.9751854  83.0690044  93.4438848
  61.2329786  83.6547782  92.2615676  56.8484734  85.0931422  80.5483663
  56.5197440  84.2128801  80.3658769  57.2024104  85.0379091  81.4360052
  66.0964313  96.7286325  85.0578649  65.9489275  95.8003032  85.2386219
  66.9217806  96.7506415  84.5735724  59.9626557  85.3804392  80.9159141
  60.3022629  85.9090313  80.1937749  60.4098677  85.7184798  81.6917707
  69.6998434  97.5514883  86.1443521  70.6244982  97.3457745  86.0067972
  69.5313738  97.3031284  87.0532863  62.6569998  83.7641442  90.3662209
  62.3166818  82.9649255  90.7682889  61.9509004  84.0643153  89.7939042
  63.3086470  80.8490755  88.8189532  64.1312539  80.3751233  88.6968422
  63.5524533  81.6281239  89.3188218  61.9494704  83.8779013  79.1152433
  62.6703067  84.2560266  78.6116150  61.3260008  84.5967890  79.2187411
  66.0925827  84.5824162  80.0510766  66.3089441  85.4648800  79.7499594
  65.6119894  84.1910376  79.3216408  60.8325048  87.5409875  86.6281510
  60.6869629  87.8550178  87.5205792  60.3550252  88.1594776  86.0752409
  62.6921431  84.5312423  86.6762400  62.6783000  83.6353517  86.3394698
  63.4093859  84.5383087  87.3100686  64.5447562  84.9649764  88.7215527
  64.2865340  85.8866834  88.7199858  64.0132602  84.5680198  89.4115992
  69.4893751  98.0700551  81.5005613  69.6630628  97.5046973  80.7479465
  69.9822642  98.8701446  81.3185103  55.3070710  90.0815220  89.5669172
  54.7624179  90.8575028  89.6989446  56.1850060  90.4286024  89.4088293
  62.0958327  83.4126804  81.9449970  62.2174238  82.4843450  82.1440858
  61.8060369  83.4265490  81.0328286  64.9649517  81.0981714  85.0816690
  64.9871214  81.1621047  84.1268669  65.3817576  80.2586223  85.2757196
  75.3433142  90.8336974  83.1195912  75.7864288  90.0844299  82.7215036
  74.4659652  90.8247110  82.7369644  70.4768923  97.3867315  78.6002511
  71.1719828  98.0074008  78.8189826  70.8192073  96.5362666  78.8754889
  56.0936732  89.2085116  92.4599328  55.3518468  89.3567751  93.0463959
  55.7729477  89.4693382  91.5966078  72.3760346  94.8367021  80.1289842
  72.9011670  95.1754293  79.4039162  72.2882699  93.9014036  79.9452976
  64.0380395  98.7501094  92.2579718  64.3467521  98.5050241  93.1302418
  64.8355877  98.9547733  91.7698589  64.0601007 100.9039004  84.4885095
  63.6205997 100.4115383  85.1817952  64.8109124 100.3611972  84.2477170
  56.5393346  97.0950545  84.4909723  57.3651366  96.7954317  84.1108367
  56.1887398  96.3258167  84.9399512  61.5074879  96.4477013  86.5607397
  60.8854888  95.7847718  86.2609625  62.1779746  96.4738145  85.8781044
  54.7401951  95.0136871  85.4498657  53.9033859  94.5859046  85.2682658
  54.7125596  95.2069315  86.3869448  61.5799407  84.9258801  96.1539903
  61.6287562  85.8020924  95.7717672  62.1221921  84.3836194  95.5811546
  72.0654252  95.4699924  95.4341040  71.2749796  95.4524063  94.8945539
  71.8287607  96.0088218  96.1890076  72.1852127  92.3192391  92.7473768
  72.2350132  92.1542398  93.6889291  72.0766051  91.4519650  92.3571649
  61.0688386  94.9980936  80.0365857  61.2176506  95.6816401  79.3832530
  61.8754829  94.9786026  80.5515313  69.4755890  88.3023319  94.0633075
  70.3765752  88.1629784  93.7717073  69.5503864  88.4677774  95.0031252
  63.8098695  85.6790173  92.9086261  62.9402004  85.9723740  92.6368850
  64.0458175  86.2630618  93.6293525  73.6870324  94.7389332  92.9915790
  73.3955132  95.1019313  93.8279251  73.0742455  94.0256340  92.8129122
  74.8866006  92.3042212  85.5118360  75.7212898  92.7432016  85.6755920
  75.0225135  91.8280865  84.6926606  71.9357512  89.8621947  91.4595848
  72.4111634  90.0549593  90.6514699  71.0123078  89.9181133  91.2139231
  58.8241019  91.0246114  81.0426926  58.5787061  90.1208444  81.2407136
  58.9936934  91.0263264  80.1006404  66.5137729  81.8969790  90.4251682
  67.0319673  82.6330817  90.0998170  66.1592862  82.2033784  91.2598441
  58.0936667  86.7574472  78.5413088  57.4005911  86.8318827  77.8853124
  57.8488418  85.9934815  79.0634604  66.7650323  78.3170073  85.9452578
  67.0452077  77.6493262  86.5713005  67.5500930  78.5099169  85.4327242
  64.5683792  97.4929067  77.5077605  63.9957759  98.1119254  77.0548076
  65.1416585  98.0428428  78.0417527  70.6359181  86.7387707  89.6924153
  71.5876604  86.8385805  89.7136377  70.4662632  85.9465975  90.2022238
  68.6573561  83.8243290  89.8783554  68.0623493  84.1048303  89.1830043
  68.3723258  84.3137191  90.6500295  67.7881051  97.7766217  78.6386187
  68.7211725  97.7111779  78.8419062  67.7004264  98.6122484  78.1800720
  70.4169068  97.0932087  75.5990134  70.3382700  96.7591951  76.4925892
  71.2378735  97.5853855  75.5981607  73.1147259  89.9593827  88.8066453
  73.0823579  89.0209827  88.9926137  73.7247883  90.0377863  88.0732278
  64.9530590  88.8289880  74.8493657  65.8989695  88.6996088  74.9182075
  64.5744835  88.0904541  75.3263085  73.2641748  86.7504870  88.8524736
  72.7480796  85.9663327  88.6654665  74.1481696  86.4223587  89.0171256
  70.9252475  80.4945886  84.8120549  70.7277296  80.1860974  85.6963881
  71.5352180  81.2207524  84.9418479  78.9323809  91.0209833  87.9472490
  79.6627198  90.7595122  88.5080193  78.3230755  90.2838555  87.9874558
  77.0139106  89.1617696  88.5446941  76.2872270  89.0273661  87.9363433
  76.5986393  89.4694525  89.3503659  64.8369283  92.8807626  96.3094314
  65.7572292  93.0586225  96.5034361  64.8018866  91.9363671  96.1574013
  63.1373507  86.7539856  74.7848542  62.2304963  86.4572969  74.8611256
  63.4149488  86.4569674  73.9182829  54.0551448  88.0746219  85.2347589
  53.7354232  87.2211528  84.9421963  53.5084876  88.2894798  85.9905556
  57.8331355  90.7908660  88.9517095  58.0517365  91.7225768  88.9705129
  58.2457129  90.4316635  89.7371899  64.7535573  81.2976746  80.9392784
  63.9436301  80.9523831  81.3148030  65.4419990  80.9884289  81.5280395
  66.6826121  80.3754792  82.5617080  67.2357160  80.7950246  83.2207103
  66.9196208  79.4490541  82.6040036  62.7059220  86.3641866  98.3419844
  62.6055947  87.3136223  98.2731935  62.4880763  86.0360105  97.4695914
  61.9072292  83.6126791  74.9260522  62.7691456  83.9381689  75.1856339
  62.0922636  82.8258287  74.4133587  53.9239708  91.6949131  87.2040710
  53.2303179  91.2803084  86.6910665  54.6712699  91.7369667  86.6074129
  70.0604928  82.4855318  82.0695745  69.4803597  83.1440122  81.6873797
  69.7940861  81.6632662  81.6583162  68.5108495  81.8860375  84.2717065
  69.0108273  81.9976910  83.4631384  69.1544103  81.5821428  84.9117873
  62.5690491  89.7939005  97.1584906  62.0857572  90.5939365  97.3648795
  62.6551430  89.8046950  96.2052350  55.8376450  91.6267385  85.0806725
  55.8147138  91.7255072  84.1288608  56.1477087  92.4732535  85.4023891
  58.4963828  93.6843540  89.1953340  59.4507082  93.6527482  89.1283271
  58.2976352  93.2234163  90.0103566  59.0863210  92.2544656  91.7624137
  59.9056099  92.7488734  91.7858975  59.3600018  91.3376624  91.7341705
  68.8429806  84.6455408  81.1252093  67.9555661  84.9305059  80.9072288
  69.2583795  84.4849171  80.2779370  72.1944342  84.6701929  84.8406432
  72.9704733  85.1598381  85.1131049  71.4692477  85.0959983  85.2978302
  74.6316901  85.3829548  85.8980373  75.2261392  85.1425284  85.1873681
  74.7043485  84.6636679  86.5253909  56.8514057  99.2263159  86.2123537
  56.7168525  98.4663560  85.6461536  56.4346119  99.9504059  85.7452326
  67.9873020  94.4100083  75.2200113  68.6908870  94.6150085  75.8357768
  67.2635669  94.9776845  75.4849196  68.8170830  90.1609944  81.3402383
  68.7606031  90.6178495  80.5010015  69.3699173  89.4000629  81.1625226
  72.6275636  85.9499676  82.1652502  72.3712570  85.5496311  82.9960710
  72.0028504  86.6643470  82.0402642  76.9387974  88.6895749  84.6723794
  76.3787532  88.7588938  85.4455356  76.3331477  88.5136734  83.9523290
  60.0083183 100.1232476  86.4241980  59.8915567 101.0677909  86.3220670
  59.1875629  99.8206038  86.8127779  69.8959717  94.8482612  77.2698573
  70.7305321  94.4163810  77.0876048  69.7344060  94.6764626  78.1975467
  69.5505609  91.3514725  78.6354912  69.4954413  91.1858997  77.6943356
  68.9251665  92.0590758  78.7917102  54.3398124  86.5882790  92.4616334
  54.9856988  86.0781744  92.9503560  54.1315275  87.3251471  93.0359760
  66.8651517  93.6563637  97.9608475  67.7342676  93.8304289  97.5995110
  66.3858268  94.4758054  97.8384204  62.8601735  80.8522834  78.2140231
  62.8480405  81.7964674  78.3708501  63.7525157  80.6692980  77.9199692
  61.0337697 100.7760738  89.6397909  61.9364944 100.8084348  89.9564404
  60.8075067  99.8461189  89.6544244  62.7891299  99.5291725  86.3007987
  61.8386930  99.5293586  86.1872359  63.0923785  98.7824459  85.7844022
  66.6753854  77.4465611  82.4686167  65.9086250  76.8924098  82.6142850
  67.0864559  77.5187480  83.3300319  58.6795615  83.7350407  96.5591349
  59.5427077  83.3787211  96.7694673  58.1061026  83.3964301  97.2466753
  78.5243992 105.3652263  87.3653750  79.1622402 105.2459010  86.6617090
  78.4064835 106.3133107  87.4241702  75.3333699 105.3179691  87.3015274
  74.9952210 105.2020756  86.4135809  76.2023467 104.9170856  87.2816280
  71.1920514 107.1715168  83.2912165  70.6285379 107.0805104  82.5228453
  71.0772909 106.3515072  83.7714658  75.8153482 106.4714543  93.2601480
  75.8042122 106.0767341  92.3881983  75.9774121 105.7380615  93.8535251
  68.7384946 108.6666359  86.1296386  69.5306238 108.3257184  85.7142685
  68.9781596 108.7761334  87.0498539  76.7720073 110.8386135  78.6026630
  76.1208053 111.4240216  78.2160644  77.5664436 111.3692330  78.6621668
  70.6975700 107.9275272  79.0013764  71.4706576 107.3804259  78.8626640
  71.0501099 108.7919522  79.2128226  72.5360743 109.2551655  92.2080664
  72.2450609 110.1597285  92.0927330  73.1717727 109.2968182  92.9224733
  73.4616950 106.6328503  88.7982023  74.0580522 106.4084526  88.0838986
  73.5191921 105.8913249  89.4007471  73.0341978 104.0867938  76.6332214
  73.2867499 103.5649460  75.8715677  72.0966537 103.9234084  76.7358898
  78.0785261 103.0903717  84.4406958  78.8648350 102.6723140  84.0897375
  78.3423965 103.9949809  84.6088606  78.2495338 108.5276567  79.1395614
  77.6141171 108.6011194  79.8516519  77.9192745 109.1170166  78.4614694
  83.4793688 103.0278950  85.3439936  84.2118860 102.4578167  85.5777766
  82.7233044 102.6400550  85.7846442  72.7538267 105.9896044  78.8356589
  72.6374525 105.3140948  79.5037674  72.8640527 105.5028418  78.0188742
  75.0969808 105.4506192  82.5403279  74.7328015 104.9236813  83.2516200
  75.9536924 105.0604661  82.3669764  81.0019108  96.7400524  89.8034545
  80.6702433  97.6095935  89.5795760  80.4064722  96.4236808  90.4828575
  74.7375295 100.4796091  77.5364627  74.9049697 101.3476328  77.9035098
  74.5472464 100.6423373  76.6125916  77.4950628 108.9413070  89.2030457
  77.1951351 109.8438109  89.0946265  77.1501687 108.6745253  90.0551610
  70.9463109 105.3926867  85.2367162  70.0213606 105.2603081  85.4444854
  71.1947522 106.1721086  85.7337104  80.8947772 101.4595610  86.8827895
  79.9864649 101.3911019  86.5886656  80.8435367 101.9367555  87.7109720
  74.7164515 102.9353749  78.5211294  74.5964141 103.3810800  79.3596774
  74.0217104 103.2839066  77.9624832  68.3071920 105.0360141  86.0710951
  68.4364301 105.2894619  86.9850363  67.6269372 105.6287849  85.7515606
  72.4771408 115.7057390  82.1701425  72.3995437 116.6565216  82.2489906
  71.8733051 115.3603263  82.8276351  74.9688637 102.8785256  94.8262792
  74.1921971 103.4379176  94.8165657  75.6079200 103.3642039  95.3477662
  82.7609418  99.6612049  88.6605769  82.1183798  99.9544582  88.0145563
  82.2564347  99.5464969  89.4658965  80.4149582 103.4075222  79.3491628
  81.3267438 103.6402609  79.1739326  79.9059229 103.9912266  78.7866707
  73.2235010 105.6870709  94.3880759  73.9649694 106.2255753  94.1115583
  72.5171995 106.3136998  94.5452311  78.6990349 107.8299850  92.9852921
  79.1073705 107.3882260  92.2407553  77.9767611 107.2552477  93.2387113
  75.0521419 102.7672457  90.3586478  75.8982615 103.1911870  90.5021127
  74.9920057 102.1106081  91.0525041  79.0219164 108.3901040  86.7405209
  78.3928026 108.5546754  86.0381277  78.6344826 108.8042650  87.5116173
  82.9008396 109.3255478  84.0949573  82.2159434 109.7054380  83.5446607
  82.9852245 109.9350805  84.8281521  78.2020865 100.4276825  92.0167651
  77.9581797 101.1818885  91.4801927  78.4780795 100.8062172  92.8514898
  80.1559327 106.9715437  90.6944917  80.3676223 107.6147197  90.0179298
  80.1089076 106.1377754  90.2266847  77.7585556  99.5833258  87.5981489
  76.8970035  99.8814511  87.8898226  77.7847991  99.8003657  86.6662522
  74.5747126 108.1275448  84.0055295  75.0385471 108.4063151  83.2159917
  74.3103924 107.2258893  83.8228385  71.4671207 107.6746930  86.9435058
  72.0372564 108.1034198  86.3052542  72.0579319 107.3929515  87.6419243
  73.5116012 104.2498601  80.8144860  74.2140055 104.7019644  81.2818786
  73.1796640 103.6082420  81.4424753  71.9596373 102.8410357  95.1896069
  71.3295034 103.5226638  95.4231466  71.8532461 102.7293439  94.2449207
  67.2541346 102.5082153  86.1161993  66.4640400 102.7639682  85.6402104
  67.7452593 103.3230491  86.2214034  81.2705155 109.8487393  88.8667274
  82.0922599 109.4467580  88.5849956  81.2667558 109.7455627  89.8183390
  69.2056091 102.8726733  83.0745470  68.4087255 102.9845427  83.5928966
  68.9781683 103.2113385  82.2086360  75.0361759 109.3971436  91.0227985
  75.1006191 109.8591843  91.8586156  74.3272683 108.7668801  91.1510294
  65.5379049 102.7612644  88.5476984  65.7887087 103.6459654  88.8134560
  66.0738597 102.5817245  87.7752076  89.3611148 106.1926141  85.2152246
  88.6074857 105.6233539  85.0596250  89.4958690 106.1588806  86.1622880
  74.7509777 111.0639543  80.8906965  74.6155451 111.9091079  81.3191813
  75.2919589 111.2658821  80.1272899  71.2377116  97.1431123  97.5521320
  70.8444062  96.5897322  98.2268964  72.0543256  97.4541702  97.9427838
  68.2039174 108.5814981  81.4634890  68.7163694 109.3758232  81.6140455
  68.8561887 107.8841272  81.3968491  70.0134059 111.6980738  83.5457643
  70.1900687 112.6198702  83.3578627  70.8090892 111.3839157  83.9752023
  74.1545077  98.5589002  95.1441577  74.8954791  99.1596156  95.0646039
  74.3863000  97.8166640  94.5859619  69.2986415 103.7445370  93.4219806
  69.1839930 102.8430627  93.7226905  68.4430933 103.9909066  93.0704623
  71.1365374 113.2158912  89.5467985  71.6872799 113.0875975  88.7744979
  70.2976850 113.5153801  89.1962878  78.4759491 111.9665910  93.0488708
  78.4577966 112.7874791  92.5568977  79.3979411 111.8419985  93.2738849
  74.9332545 109.4810039  93.8912217  75.4660882 108.7198328  93.6611525
  74.4046626 109.1883691  94.6336371  78.1002240  94.5870105  89.4205858
  77.7566509  95.4771747  89.3444969  78.4681203  94.3971763  88.5575443
  66.1688091 106.9103636  82.2394461  67.0063313 107.3200644  82.0228168
  66.3466358 105.9703078  82.2094654  78.0652523 104.5778716  77.9278293
  77.5499146 105.3483321  78.1666681  77.7929831 103.9043853  78.5511355
  75.6499634  99.4228417  82.9863532  74.7941230  99.0335268  82.8069171
  76.0626586  99.5020378  82.1263317  77.1798780  96.9574760  87.3855092
  76.6763576  96.9204896  86.5722897  77.4729387  97.8667503  87.4451748
  73.4241666  97.0413490  86.3921273  74.2894663  96.8456299  86.0327163
  73.4919175  96.8123842  87.3190630  83.0386797 107.3311071  79.8631467
  82.2616240 106.9922231  79.4186629  83.7178278 107.3363694  79.1886432
  77.8538826 102.4505809  79.7538075  77.5488962 102.7651958  80.6048218
  78.8069268 102.5287228  79.7965408  76.2985258 108.6096032  81.4031029
  75.7706619 107.8748791  81.0904266  75.7972761 109.3870708  81.1570997
  81.2778104 106.8045052  86.5198075  80.6201778 107.4944314  86.6078204
  82.0818503 107.1941484  86.8632061  71.0303985  99.2715698  83.7637640
  71.6047737  99.0490880  83.0310833  71.6174968  99.3404393  84.5166241
  80.0883563 105.1589425  84.5702017  80.6015444 105.7919417  85.0723726
  80.7384787 104.5590621  84.2045377  71.3573573 101.3020159  77.7833525
  70.5210885 101.6394846  78.1042800  71.2178342 101.1669139  76.8460662
  73.3326653  96.1456947  82.4912710  72.6791065  95.8305964  81.8669324
  73.2907127  95.5232687  83.2172533  74.4437858 106.4276242  74.4066002
  73.5364920 106.1965496  74.6057151  74.9408890 105.6313861  74.5939983
  77.3505937 115.1373749  77.3262688  76.6767636 115.4405446  77.9347646
  77.7371759 115.9402830  76.9768145  76.5664394 102.6338881  86.8160357
  75.6486955 102.8553828  86.6582045  76.9824537 102.7085191  85.9572065
  77.3499441 104.0330296  81.9463037  78.0971260 104.5451693  81.6370160
  77.6191031 103.7114349  82.8067431  75.6226091 106.5288837  78.9289992
  74.7137311 106.2447870  79.0262462  75.6521175 106.9487916  78.0693299
  80.8545359 110.1395426  82.6981159  80.4007686 109.2986336  82.7546350
  80.2239326 110.7756825  83.0355939  79.7978278 101.0687413  83.9281827
  79.0601035 100.5564799  84.2592069  80.0505052 100.6287794  83.1165104
  79.2978298 111.9771923  83.6330977  79.5901272 112.5376980  82.9143343
  79.8076919 112.2700484  84.3884137  79.8989906  93.8463665  84.5223596
  80.2048783  92.9861028  84.2349511  80.6242511  94.4381285  84.3222590
  66.1914262 104.2494351  82.9105194  65.9938662 103.6563712  82.1856261
  65.6360926 103.9446561  83.6281133  74.1710985 104.1417458  85.0299787
  74.2259595 103.1891294  84.9542264  73.3602188 104.2976897  85.5141086
  75.3202179 108.0697581  76.2678070  74.8821609 107.3533440  75.8083708
  76.0612620 108.2973695  75.7063162  72.1103345 102.7594517  82.7890166
  71.2971211 103.0588688  83.1955358  72.6062340 102.3650206  83.5064648
  74.2611923 112.7552274  84.7224431  74.2188102 112.9813121  83.7932963
  75.1774622 112.5215649  84.8710232  77.7077557 103.2236342  91.6205060
  78.0626945 103.4507815  92.4799526  78.3549688 103.5554719  90.9982315
  83.4375294 106.3454778  82.3254389  83.2993193 106.5356374  81.3975578
  83.0811513 107.1074161  82.7822440  71.6017420 100.3312873  88.4051401
  72.2416799 100.1901632  87.7074364  70.7694951 100.0447386  88.0290003
  83.4644674 108.4131305  87.3365660  83.8981180 108.3206594  88.1848714
  84.1776254 108.3888805  86.6985676  72.3777724 109.6315303  84.5186393
  73.1718323 109.1365623  84.3168968  71.6669416 109.1033166  84.1554099
  77.1972569 112.0133399  88.8698761  77.2509591 112.5824335  89.6376477
  76.3287350 112.1835284  88.5052798  68.6860488 103.7758385  80.5946146
  67.7558076 103.7142840  80.8116108  68.7817960 103.2534338  79.7982787
  68.6046037 100.3013198  83.1824388  68.8652854 101.2158531  83.0733548
  69.4263209  99.8337640  83.3321001  70.0770962 101.7150955  90.3523212
  70.7494015 101.5068317  89.7035861  69.2500748 101.5173041  89.9128445
  84.3260223 108.4555005  89.8698546  84.5196113 109.3600816  90.1157821
  84.2260841 107.9962424  90.7037131  75.9796534  98.3412896  92.3688873
  75.3324449  99.0402846  92.2753350  76.7497549  98.7749040  92.7365121
  76.1560668 106.1793661  90.4285693  77.0852728 106.3304820  90.2554660
  75.7351698 106.2677682  89.5734339  74.9549000 110.2044325  88.1984230
  74.8160086 109.8363110  89.0710169  74.1663596 110.7191965  88.0268188
  75.5497152 115.3053422  79.5409767  75.7248908 114.8341465  80.3555390
  74.8629940 115.9319188  79.7691028  76.5054215 109.5825928  85.5873068
  76.1704048 109.5426698  86.4830718  76.0058161 108.9170644  85.1143478
  70.4798459 104.9893558  91.1125649  70.3418257 104.2573797  91.7137188
  71.3903383 104.9002458  90.8309837  79.4413407 106.9281962  75.8610128
  78.8242577 106.2028790  75.7643181  78.9729895 107.6891323  75.5177202
  73.1080760 104.7013517  90.6009329  73.8180378 104.0606710  90.5595948
  73.0650068 104.9526412  91.5235510  71.8209694 101.6878735  92.4204969
  71.2847051 101.2369474  93.0726565  71.2326402 101.8224644  91.6775433
  70.1158237 118.4542784  86.3149627  70.3554836 119.0861309  86.9928646
  69.2727434 118.1030825  86.6014986  71.2311953 101.1467387  74.9831432
  70.3541419 101.0256187  74.6193679  71.7069706 100.3553465  74.7310321
  81.0984946 109.6020455  91.7529888  80.2111725 109.2646376  91.8756287
  81.6683497 108.8703486  91.9898653  62.7514093 105.9344546  85.0772939
  63.4385133 105.6206276  84.4893955  62.5962222 106.8385911  84.8040191
  67.5548815 100.8234743  89.5057963  67.4707004 100.2160412  88.7708373
  66.7331521 101.3143761  89.5067459  74.6286099 114.2621907  88.7191131
  74.5556271 115.0676878  89.2310436  74.1863492 114.4613873  87.8939153
  74.4175879 113.4993677  82.2293953  73.6343401 114.0415357  82.3232177
  75.1168624 114.0167657  82.6288194  77.7272529  99.3088306  84.8728158
  78.2241228  98.5558269  84.5529228  76.9559510  99.3452623  84.3071367
  85.5802286 105.0128672  86.5146450  85.5692163 105.8953387  86.1440383
  84.7119666 104.6600223  86.3200987  77.0884783 114.1608741  90.8749290
  77.8012755 114.7956206  90.8025191  76.5974811 114.2572607  90.0589292
  78.8102310 108.0659994  82.4466581  77.8758588 108.1861456  82.2771286
  78.9878978 107.1632460  82.1826591  74.3107498 101.4505689  84.5999843
  73.9405285 100.8976730  85.2880748  74.8066590 100.8463823  84.0474843
  82.1974861 103.9077313  82.9816616  82.6635313 104.7405305  82.9076918
  82.6482361 103.4422294  83.6861874  72.1396696 111.9103184  91.6954861
  72.8406156 112.5439667  91.8484255  71.6691811 112.2517916  90.9350500
  80.2651092 110.2521134  79.9802768  80.5410936 110.1377729  80.8896642
  79.3955591 109.8538619  79.9414941  80.1691524  96.2757900  87.0207517
  79.2554603  96.5062127  87.1889724  80.5984625  96.3596344  87.8721549
  79.9397982 104.4647792  89.5207411  79.2869432 104.7123699  88.8659864
  80.3178362 103.6511930  89.1869888  76.9005156 114.5007485  83.6235581
  77.0827551 113.6829141  84.0863334  77.7238142 114.7175177  83.1860471
  77.2347322 113.4275670  80.8850630  77.7635088 112.9168125  80.2720792
  77.4975541 113.1118200  81.7496163  75.9885555 105.2067603  96.0073448
  75.3126192 105.1061732  96.6775823  76.8113189 105.0506817  96.4709445
  67.7364414 111.4439539  88.6285963  68.3217851 110.6983227  88.7613868
  67.5389253 111.7543496  89.5122627  70.5903070 114.4790787  83.6448406
  69.9213445 114.9636914  83.1612446  70.4515939 114.7260007  84.5591784
  62.3282069 104.0145140  87.3490406  62.3666169 103.4808730  88.1427525
  61.8222362 103.4880345  86.7301384  74.7308338 116.5134530  90.2431064
  75.2826646 116.6766152  91.0080149  75.0714532 117.1038968  89.5711089
  69.7072831  98.8609680  90.8452949  69.7714158  99.7224511  90.4330346
  69.6439952  98.2483682  90.1125307  69.1825104 100.9332813  94.4925983
  69.8097143 100.5509890  95.1063507  68.3253023 100.7147015  94.8581676
  65.9590647 102.7409242  80.4244338  66.2544088 101.8319920  80.3711392
  65.0578682 102.7196981  80.1025340  77.8676725 114.4616506  87.2294746
  77.7427865 113.6606246  86.7205692  78.5255816 114.9562699  86.7408716
  69.4884894 100.8165238  86.4071886  68.7671479 101.4301206  86.2679360
  70.2778149 101.3523003  86.3288532  79.9311634 112.2625526  88.8574296
  78.9841969 112.1430877  88.7852623  80.2794407 111.3748024  88.9400558
  72.2911207  98.1519665  92.6812538  72.8145609  98.3981961  93.4438848
  72.0723540  98.9839700  92.2615676  67.6878488 100.4223339  80.5483663
  67.3591194  99.5420718  80.3658769  68.0417859 100.3671008  81.4360052
  76.9358067 112.0578242  85.0578649  76.7883029 111.1294950  85.2386219
  77.7611561 112.0798333  84.5735724  70.8020311 100.7096309  80.9159141
  71.1416384 101.2382231  80.1937749  71.2492432 101.0476715  81.6917707
  80.5392189 112.8806801  86.1443521  81.4638736 112.6749662  86.0067972
  80.3707492 112.6323202  87.0532863  73.4963752  99.0933360  90.3662209
  73.1560573  98.2941173  90.7682889  72.7902758  99.3935071  89.7939042
  74.1480224  96.1782672  88.8189532  74.9706293  95.7043151  88.6968422
  74.3918288  96.9573156  89.3188218  72.7888458  99.2070931  79.1152433
  73.5096821  99.5852184  78.6116150  72.1653763  99.9259808  79.2187411
  76.9319581  99.9116080  80.0510766  77.1483196 100.7940718  79.7499594
  76.4513649  99.5202293  79.3216408  71.6718803 102.8701793  86.6281510
  71.5263383 103.1842096  87.5205792  71.1944006 103.4886693  86.0752409
  73.5315186  99.8604341  86.6762400  73.5176754  98.9645434  86.3394698
  74.2487614  99.8675005  87.3100686  75.3841316 100.2941681  88.7215527
  75.1259094 101.2158752  88.7199858  74.8526357  99.8972116  89.4115992
  80.3287505 113.3992468  81.5005613  80.5024383 112.8338891  80.7479465
  80.8216396 114.1993363  81.3185103  66.1464465 105.4107137  89.5669172
  65.6017933 106.1866945  89.6989446  67.0243815 105.7577942  89.4088293
  72.9352082  98.7418721  81.9449970  73.0567993  97.8135368  82.1440858
  72.6454124  98.7557407  81.0328286  75.8043272  96.4273632  85.0816690
  75.8264969  96.4912965  84.1268669  76.2211331  95.5878140  85.2757196
  86.1826896 106.1628891  83.1195912  86.6258042 105.4136217  82.7215036
  85.3053407 106.1539028  82.7369644  81.3162678 112.7159233  78.6002511
  82.0113582 113.3365925  78.8189826  81.6585828 111.8654584  78.8754889
  66.9330487 104.5377034  92.4599328  66.1912223 104.6859669  93.0463959
  66.6123231 104.7985299  91.5966078  83.2154101 110.1658938  80.1289842
  83.7405425 110.5046211  79.4039162  83.1276453 109.2305954  79.9452976
  74.8774149 114.0793012  92.2579718  75.1861276 113.8342159  93.1302418
  75.6749631 114.2839650  91.7698589  74.8994761 116.2330922  84.4885095
  74.4599752 115.7407300  85.1817952  75.6502878 115.6903889  84.2477170
  67.3787100 112.4242462  84.4909723  68.2045120 112.1246234  84.1108367
  67.0281152 111.6550085  84.9399512  72.3468634 111.7768931  86.5607397
  71.7248643 111.1139636  86.2609625  73.0173501 111.8030063  85.8781044
  65.5795706 110.3428789  85.4498657  64.7427614 109.9150963  85.2682658
  65.5519351 110.5361232  86.3869448  72.4193161 100.2550719  96.1539903
  72.4681317 101.1312842  95.7717672  72.9615675  99.7128112  95.5811546
  83.0245882 107.6484308  92.7473768  83.0743887 107.4834316  93.6889291
  82.9159805 106.7811567  92.3571649  71.9082141 110.3272854  80.0365857
  72.0570261 111.0108318  79.3832530  72.7148584 110.3077944  80.5515313
  80.3149644 103.6315236  94.0633075  81.2159507 103.4921701  93.7717073
  80.3897619 103.7969691  95.0031252  74.6492450 101.0082091  92.9086261
  73.7795759 101.3015657  92.6368850  74.8851930 101.5922536  93.6293525
  85.7259761 107.6334130  85.5118360  86.5606652 108.0723934  85.6755920
  85.8618890 107.1572783  84.6926606  82.7751267 105.1913864  91.4595848
  83.2505389 105.3841511  90.6514699  81.8516832 105.2473050  91.2139231
  69.6634774 106.3538032  81.0426926  69.4180815 105.4500362  81.2407136
  69.8330688 106.3555182  80.1006404  77.3531483  97.2261708  90.4251682
  77.8713427  97.9622735  90.0998170  76.9986616  97.5325701  91.2598441
  68.9330421 102.0866389  78.5413088  68.2399666 102.1610744  77.8853124
  68.6882173 101.3226733  79.0634604  77.6044078  93.6461991  85.9452578
  77.8845831  92.9785180  86.5713005  78.3894684  93.8391086  85.4327242
  75.4077546 112.8220984  77.5077605  74.8351513 113.4411172  77.0548076
  75.9810340 113.3720346  78.0417527  81.4752936 102.0679625  89.6924153
  82.4270359 102.1677722  89.7136377  81.3056386 101.2757893  90.2022238
  79.4967315  99.1535208  89.8783554  78.9017247  99.4340221  89.1830043
  79.2117012  99.6429109  90.6500295  78.6274806 113.1058135  78.6386187
  79.5605479 113.0403696  78.8419062  78.5398019 113.9414401  78.1800720
  81.2562823 112.4224005  75.5990134  81.1776454 112.0883869  76.4925892
  82.0772489 112.9145773  75.5981607  83.9541014 105.2885744  88.8066453
  83.9217334 104.3501745  88.9926137  84.5641637 105.3669781  88.0732278
  75.7924345 104.1581797  74.8493657  76.7383449 104.0288005  74.9182075
  75.4138590 103.4196459  75.3263085  84.1035502 102.0796788  88.8524736
  83.5874551 101.2955244  88.6654665  84.9875451 101.7515504  89.0171256
  81.7646229  95.8237803  84.8120549  81.5671050  95.5152891  85.6963881
  82.3745935  96.5499442  84.9418479  89.7717564 106.3501751  87.9472490
  90.5020952 106.0887039  88.5080193  89.1624509 105.6130473  87.9874558
  87.8532861 104.4909614  88.5446941  87.1266024 104.3565579  87.9363433
  87.4380148 104.7986442  89.3503659  73.9767262 102.0831774  74.7848542
  73.0698717 101.7864886  74.8611256  74.2543243 101.7861592  73.9182829
  64.8945202 103.4038137  85.2347589  64.5747986 102.5503445  84.9421963
  64.3478630 103.6186715  85.9905556  68.6725110 106.1200578  88.9517095
  68.8911119 107.0517686  88.9705129  69.0850883 105.7608552  89.7371899
  75.5929327  96.6268663  80.9392784  74.7830056  96.2815748  81.3148030
  76.2813744  96.3176207  81.5280395  77.5219876  95.7046710  82.5617080
  78.0750914  96.1242164  83.2207103  77.7589962  94.7782458  82.6040036
  73.5452975 101.6933784  98.3419844  73.4449702 102.6428141  98.2731935
  73.3274517 101.3652023  97.4695914  72.7466046  98.9418709  74.9260522
  73.6085210  99.2673607  75.1856339  72.9316390  98.1550205  74.4133587
  64.7633462 107.0241049  87.2040710  64.0696934 106.6095001  86.6910665
  65.5106453 107.0661585  86.6074129  80.8998683  97.8147235  82.0695745
  80.3197352  98.4732039  81.6873797  80.6334615  96.9924580  81.6583162
  79.3502249  97.2152293  84.2717065  79.8502028  97.3268828  83.4631384
  79.9937857  96.9113346  84.9117873  73.4084245 105.1230923  97.1584906
  72.9251327 105.9231283  97.3648795  73.4945184 105.1338867  96.2052350
  66.6770205 106.9559302  85.0806725  66.6540893 107.0546990  84.1288608
  66.9870841 107.8024453  85.4023891  69.3357582 109.0135457  89.1953340
  70.2900836 108.9819400  89.1283271  69.1370106 108.5526081  90.0103566
  69.9256965 107.5836573  91.7624137  70.7449854 108.0780652  91.7858975
  70.1993772 106.6668542  91.7341705  79.6823561  99.9747326  81.1252093
  78.7949416 100.2596976  80.9072288  80.0977550  99.8141089  80.2779370
  83.0338097  99.9993847  84.8406432  83.8098487 100.4890299  85.1131049
  82.3086231 100.4251901  85.2978302  85.4710656 100.7121466  85.8980373
  86.0655146 100.4717202  85.1873681  85.5437239  99.9928596  86.5253909
  67.6907811 114.5555077  86.2123537  67.5562279 113.7955478  85.6461536
  67.2739874 115.2795977  85.7452326  78.8266774 109.7392000  75.2200113
  79.5302624 109.9442003  75.8357768  78.1029423 110.3068762  75.4849196
  79.6564585 105.4901862  81.3402383  79.5999786 105.9470413  80.5010015
  80.2092927 104.7292546  81.1625226  83.4669390 101.2791593  82.1652502
  83.2106325 100.8788229  82.9960710  82.8422259 101.9935387  82.0402642
  87.7781728 104.0187667  84.6723794  87.2181286 104.0880856  85.4455356
  87.1725232 103.8428651  83.9523290  70.8476937 115.4524394  86.4241980
  70.7309321 116.3969826  86.3220670  70.0269383 115.1497955  86.8127779
  80.7353472 110.1774530  77.2698573  81.5699076 109.7455728  77.0876048
  80.5737815 110.0056543  78.1975467  80.3899364 106.6806643  78.6354912
  80.3348168 106.5150914  77.6943356  79.7645419 107.3882676  78.7917102
  65.1791879 101.9174707  92.4616334  65.8250742 101.4073661  92.9503560
  64.9709030 102.6543389  93.0359760  73.6995489  96.1814752  78.2140231
  73.6874159  97.1256592  78.3708501  74.5918911  95.9984897  77.9199692
  71.8731451 116.1052656  89.6397909  72.7758698 116.1376266  89.9564404
  71.6468821 115.1753107  89.6544244  73.6285053 114.8583642  86.3007987
  72.6780684 114.8585504  86.1872359  73.9317539 114.1116377  85.7844022
  77.5147609  92.7757529  82.4686167  76.7480005  92.2216015  82.6142850
  77.9258314  92.8479397  83.3300319  69.5189370  99.0642324  96.5591349
  70.3820831  98.7079129  96.7694673  68.9454781  98.7256219  97.2466753
  82.0314269 122.5007085  83.2912165  81.4679134 122.4097022  82.5228453
  81.9166664 121.6806990  83.7714658  81.5369455 123.2567190  79.0013764
  82.3100331 122.7096177  78.8626640  81.8894854 124.1211439  79.2128226
  83.8735732 119.4159856  76.6332214  84.1261253 118.8941377  75.8715677
  82.9360292 119.2526002  76.7358898  88.9179015 118.4195635  84.4406958
  89.7042105 118.0015058  84.0897375  89.1817720 119.3241727  84.6088606
  83.5932021 121.3187962  78.8356589  83.4768279 120.6432865  79.5037674
  83.7034281 120.8320336  78.0188742  85.9363562 120.7798109  82.5403279
  85.5721769 120.2528730  83.2516200  86.7930678 120.3896578  82.3669764
  85.5769049 115.8088009  77.5364627  85.7443451 116.6768245  77.9035098
  85.3866218 115.9715291  76.6125916  81.7856864 120.7218785  85.2367162
  80.8607360 120.5894999  85.4444854  82.0341277 121.5013004  85.7337104
  85.5558270 118.2645666  78.5211294  85.4357895 118.7102717  79.3596774
  84.8610858 118.6130984  77.9624832  79.1465675 120.3652058  86.0710951
  79.2758056 120.6186537  86.9850363  78.4663126 120.9579766  85.7515606
  91.2543336 118.7367140  79.3491628  92.1661192 118.9694526  79.1739326
  90.7452983 119.3204184  78.7866707  88.5979311 114.9125176  87.5981489
  87.7363790 115.2106429  87.8898226  88.6241746 115.1295574  86.6662522
  85.4140880 123.4567366  84.0055295  85.8779226 123.7355069  83.2159917
  85.1497678 122.5550811  83.8228385  84.3509766 119.5790519  80.8144860
  85.0533810 120.0311562  81.2818786  84.0190395 118.9374337  81.4424753
  78.0935100 117.8374071  86.1161993  77.3034154 118.0931600  85.6402104
  78.5846348 118.6522409  86.2214034  80.0449846 118.2018650  83.0745470
  79.2481009 118.3137345  83.5928966  79.8175438 118.5405303  82.2086360
  76.3772803 118.0904562  88.5476984  76.6280842 118.9751572  88.8134560
  76.9132352 117.9109163  87.7752076  79.0432928 123.9106899  81.4634890
  79.5557449 124.7050149  81.6140455  79.6955641 123.2133190  81.3968491
  88.9395995 109.9162023  89.4205858  88.5960264 110.8063665  89.3444969
  89.3074957 109.7263681  88.5575443  77.0081845 122.2395553  82.2394461
  77.8457067 122.6492562  82.0228168  77.1860113 121.2994996  82.2094654
  88.9046277 119.9070634  77.9278293  88.3892901 120.6775239  78.1666681
  88.6323586 119.2335770  78.5511355  86.4893388 114.7520335  82.9863532
  85.6334985 114.3627185  82.8069171  86.9020340 114.8312296  82.1263317
  88.0192535 112.2866678  87.3855092  87.5157331 112.2496813  86.5722897
  88.3123142 113.1959421  87.4451748  84.2635421 112.3705408  86.3921273
  85.1288418 112.1748217  86.0327163  84.3312930 112.1415760  87.3190630
  88.6932580 117.7797726  79.7538075  88.3882716 118.0943875  80.6048218
  89.6463023 117.8579146  79.7965408  81.8697740 114.6007616  83.7637640
  82.4441492 114.3782797  83.0310833  82.4568722 114.6696310  84.5166241
  82.1967327 116.6312077  77.7833525  81.3604639 116.9686763  78.1042800
  82.0572097 116.4961057  76.8460662  84.1720408 111.4748865  82.4912710
  83.5184820 111.1597882  81.8669324  84.1300882 110.8524605  83.2172533
  85.2831612 121.7568160  74.4066002  84.3758674 121.5257413  74.6057151
  85.7802644 120.9605779  74.5939983  88.1893196 119.3622214  81.9463037
  88.9365015 119.8743611  81.6370160  88.4584785 119.0406267  82.8067431
  86.4619846 121.8580755  78.9289992  85.5531065 121.5739787  79.0262462
  86.4914930 122.2779833  78.0693299  90.6372033 116.3979330  83.9281827
  89.8994790 115.8856716  84.2592069  90.8898806 115.9579712  83.1165104
  90.7383660 109.1755582  84.5223596  91.0442537 108.3152946  84.2349511
  91.4636265 109.7673202  84.3222590  77.0308016 119.5786269  82.9105194
  76.8332416 118.9855629  82.1856261  76.4754680 119.2738479  83.6281133
  85.0104740 119.4709375  85.0299787  85.0653350 118.5183212  84.9542264
  84.1995942 119.6268814  85.5141086  82.9497100 118.0886435  82.7890166
  82.1364965 118.3880606  83.1955358  83.4456094 117.6942124  83.5064648
  82.4411175 115.6604791  88.4051401  83.0810554 115.5193550  87.7074364
  81.6088705 115.3739304  88.0290003  79.5254242 119.1050303  80.5946146
  78.5951830 119.0434758  80.8116108  79.6211714 118.5826255  79.7982787
  79.4439791 115.6305116  83.1824388  79.7046608 116.5450449  83.0733548
  80.2656963 115.1629558  83.3321001  82.0705707 116.4759304  74.9831432
  81.1935174 116.3548105  74.6193679  82.5463460 115.6845383  74.7310321
  73.5907847 121.2636464  85.0772939  74.2778887 120.9498194  84.4893955
  73.4355976 122.1677829  84.8040191  78.3942570 116.1526661  89.5057963
  78.3100758 115.5452330  88.7708373  77.5725276 116.6435679  89.5067459
  88.5666283 114.6380224  84.8728158  89.0634983 113.8850186  84.5529228
  87.7953265 114.6744541  84.3071367  85.1501252 116.7797607  84.5999843
  84.7799040 116.2268647  85.2880748  85.6460345 116.1755741  84.0474843
  91.0085278 111.6049818  87.0207517  90.0948358 111.8354044  87.1889724
  91.4378380 111.6888262  87.8721549  73.1675824 119.3437057  87.3490406
  73.2059923 118.8100648  88.1427525  72.6616116 118.8172263  86.7301384
  80.5466586 114.1901598  90.8452949  80.6107912 115.0516429  90.4330346
  80.4833706 113.5775600  90.1125307  76.7984401 118.0701160  80.4244338
  77.0937842 117.1611838  80.3711392  75.8972437 118.0488899  80.1025340
  80.3278648 116.1457156  86.4071886  79.6065234 116.7593124  86.2679360
  81.1171904 116.6814921  86.3288532  78.5272243 115.7515257  80.5483663
  78.1984949 114.8712636  80.3658769  78.8811613 115.6962926  81.4360052
  81.6414066 116.0388227  80.9159141  81.9810138 116.5674148  80.1937749
  82.0886186 116.3768633  81.6917707  84.9873978 111.5074590  88.8189532
  85.8100048 111.0335068  88.6968422  85.2312042 112.2865074  89.3188218
  83.6282213 114.5362849  79.1152433  84.3490575 114.9144101  78.6116150
  83.0047517 115.2551725  79.2187411  87.7713336 115.2407998  80.0510766
  87.9876950 116.1232635  79.7499594  87.2907403 114.8494211  79.3216408
  82.5112557 118.1993711  86.6281510  82.3657138 118.5134014  87.5205792
  82.0337761 118.8178611  86.0752409  84.3708940 115.1896259  86.6762400
  84.3570509 114.2937352  86.3394698  85.0881368 115.1966922  87.3100686
  83.7745836 114.0710639  81.9449970  83.8961747 113.1427285  82.1440858
  83.4847878 114.0849325  81.0328286  86.6437026 111.7565549  85.0816690
  86.6658723 111.8204883  84.1268669  87.0605085 110.9170058  85.2757196
  78.2180855 127.7534380  84.4909723  79.0438875 127.4538152  84.1108367
  77.8674907 126.9842003  84.9399512  76.4189460 125.6720707  85.4498657
  75.5821368 125.2442881  85.2682658  76.3913105 125.8653150  86.3869448
  80.5028528 121.6829949  81.0426926  80.2574570 120.7792279  81.2407136
  80.6724443 121.6847100  80.1006404  79.7724176 117.4158307  78.5413088
  79.0793420 117.4902662  77.8853124  79.5275927 116.6518651  79.0634604
  88.4437832 108.9753908  85.9452578  88.7239586 108.3077097  86.5713005
  89.2288439 109.1683004  85.4327242  86.6318099 119.4873715  74.8493657
  87.5777204 119.3579923  74.9182075  86.2532344 118.7488377  75.3263085
  92.6039984 111.1529721  84.8120549  92.4064805 110.8444809  85.6963881
  93.2139689 111.8791360  84.9418479  84.8161016 117.4123691  74.7848542
  83.9092472 117.1156804  74.8611256  85.0936997 117.1153509  73.9182829
  75.7338957 118.7330055  85.2347589  75.4141741 117.8795363  84.9421963
  75.1872385 118.9478633  85.9905556  86.4323082 111.9560581  80.9392784
  85.6223810 111.6107666  81.3148030  87.1207499 111.6468125  81.5280395
  88.3613630 111.0338628  82.5617080  88.9144669 111.4534081  83.2207103
  88.5983717 110.1074376  82.6040036  83.5859801 114.2710627  74.9260522
  84.4478965 114.5965525  75.1856339  83.7710145 113.4842122  74.4133587
  75.6027217 122.3532966  87.2040710  74.9090688 121.9386919  86.6910665
  76.3500208 122.3953503  86.6074129  91.7392437 113.1439153  82.0695745
  91.1591106 113.8023957  81.6873797  91.4728370 112.3216498  81.6583162
  90.1896004 112.5444211  84.2717065  90.6895782 112.6560745  83.4631384
  90.8331612 112.2405264  84.9117873  77.5163959 122.2851220  85.0806725
  77.4934647 122.3838907  84.1288608  77.8264596 123.1316371  85.4023891
  90.5217315 115.3039243  81.1252093  89.6343170 115.5888894  80.9072288
  90.9371304 115.1433007  80.2779370  94.3063145 116.6083511  82.1652502
  94.0500079 116.2080147  82.9960710  93.6816013 117.3227305  82.0402642
  84.5389244 111.5106670  78.2140231  84.5267914 112.4548509  78.3708501
  85.4312666 111.3276815  77.9199692  88.3541363 108.1049446  82.4686167
  87.5873759 107.5507933  82.6142850  88.7652068 108.1771315  83.3300319
  24.3275221   5.7254797  74.0899056  24.9653631   5.6061545  73.3862396
  24.2096064   6.6735641  74.1487008  21.1364927   5.6782225  74.0260581
  20.7983439   5.5623290  73.1381116  22.0054696   5.2773390  74.0061587
  16.9951743   7.5317702  70.0157472  16.4316608   7.4407639  69.2473760
  16.8804138   6.7117606  70.4959964  21.6184710   6.8317077  79.9846786
  21.6073351   6.4369875  79.1127290  21.7805350   6.0983150  80.5780558
  14.5416175   9.0268893  72.8541692  15.3337467   8.6859718  72.4387992
  14.7812825   9.1363868  73.7743846  22.5751302  11.1988669  65.3271937
  21.9239282  11.7842750  64.9405951  23.3695665  11.7294864  65.3866974
  16.5006929   8.2877807  65.7259071  17.2737805   7.7406794  65.5871947
  16.8532328   9.1522056  65.9373533  18.3391972   9.6154189  78.9325970
  18.0481838  10.5199820  78.8172637  18.9748956   9.6570716  79.6470040
  19.2648178   6.9931037  75.5227330  19.8611751   6.7687060  74.8084293
  19.3223150   6.2515783  76.1252778  23.8816490   3.4506251  71.1652264
  24.6679579   3.0325674  70.8142681  24.1455194   4.3552343  71.3333913
  24.0526567   8.8879101  65.8640921  23.4172400   8.9613728  66.5761826
  23.7223973   9.4772700  65.1860000  29.2824917   3.3881484  72.0685243
  30.0150089   2.8180701  72.3023072  28.5264272   3.0003085  72.5091748
  18.5569496   6.3498579  65.5601896  18.4405754   5.6743482  66.2282980
  18.6671755   5.8630953  64.7434049  20.9001036   5.8108726  69.2648585
  20.5359244   5.2839347  69.9761507  21.7568152   5.4207195  69.0915071
  23.2981857   9.3015604  75.9275764  22.9982580  10.2040643  75.8191571
  22.9532916   9.0347788  76.7796917  26.6979000   1.8198145  73.6073201
  25.7895878   1.7513553  73.3131962  26.6466596   2.2970089  74.4355027
  18.2802636  16.0659925  68.8946732  18.2026666  17.0167750  68.9735212
  17.6764280  15.7205797  69.5521658  28.5640647   0.0214583  75.3851075
  27.9215027   0.3147116  74.7390870  28.0595575  -0.0932497  76.1904272
  26.2180810   3.7677756  66.0736935  27.1298667   4.0005143  65.8984632
  25.7090458   4.3514800  65.5112013  19.0266238   6.0473243  81.1126066
  19.7680923   6.5858287  80.8360889  18.3203224   6.6739532  81.2697617
  24.5021578   8.1902384  79.7098227  24.9104934   7.7484794  78.9652860
  23.7798840   7.6155011  79.9632420  24.8250393   8.7503575  73.4650516
  24.1959255   8.9149289  72.7626584  24.4376055   9.1645184  74.2361480
  28.7039625   9.6858012  70.8194880  28.0190663  10.0656914  70.2691913
  28.7883474  10.2953339  71.5526828  25.9590556   7.3317971  77.4190223
  26.1707452   7.9749731  76.7424604  25.9120305   6.4980288  76.9512153
  20.3778355   8.4877983  70.7300601  20.8416700   8.7665686  69.9405224
  20.1135153   7.5861427  70.5473692  17.2702436   8.0349464  73.6680364
  17.8403793   8.4636733  73.0297849  17.8610548   7.7532049  74.3664550
  27.0736384  10.2089927  75.5912581  27.8953828   9.8070114  75.3095262
  27.0698787  10.1058161  76.5428697  20.8392988   9.7573970  77.7473291
  20.9037420  10.2194377  78.5831463  20.1303912   9.1271335  77.8755601
  35.1642377   6.5528675  71.9397552  34.4106086   5.9836073  71.7841557
  35.2989918   6.5191340  72.8868187  20.5541005  11.4242078  67.6152272
  20.4186680  12.2693613  68.0437119  21.0950818  11.6261355  66.8518205
  14.0070403   8.9417516  68.1880197  14.5194923   9.7360766  68.3385761
  14.6593116   8.2443806  68.1213798  15.8165287  12.0583272  70.2702950
  15.9931916  12.9801237  70.0823934  16.6122121  11.7441691  70.6997330
  22.1809482  12.0465644  81.7452614  21.7373336  11.2602023  81.4273518
  22.8426695  12.2344795  81.0796504  16.9396603  13.5761446  76.2713292
  17.4904028  13.4478509  75.4990286  16.1008079  13.8756335  75.9208185
  24.2790720  12.3268444  79.7734015  24.2609195  13.1477325  79.2814284
  25.2010640  12.2022519  79.9984156  20.7363774   9.8412574  80.6157523
  21.2692111   9.0800862  80.3856831  20.2077855   9.5486225  81.3581678
  23.8683752   4.9381251  64.6523600  23.3530375   5.7085855  64.8911988
  23.5961060   4.2646387  65.2756662  28.8418026   7.6913605  66.5876774
  28.0647469   7.3524765  66.1431936  29.5209507   7.6966228  65.9131739
  23.6570055   2.8108343  66.4783381  23.3520190   3.1254492  67.3293524
  24.6100497   2.8889763  66.5210714  22.1016487   8.9698566  68.1276335
  21.5737848   8.2351326  67.8149573  21.6003989   9.7473242  67.8816304
  27.0809333   7.1647587  73.2443382  26.4233007   7.8546848  73.3323510
  27.8849732   7.5544018  73.5877368  25.8914791   5.5191959  71.2947323
  26.4046673   6.1521951  71.7969033  26.5416015   4.9193155  70.9290683
  20.2469087   6.7878776  61.1311308  19.3396149   6.5568030  61.3302457
  20.7440119   5.9916396  61.3185290  23.1537166  15.4976284  64.0507994
  22.4798864  15.8007980  64.6592952  23.5402988  16.3005364  63.7013452
  22.3695622   2.9941415  73.5405664  21.4518184   3.2156362  73.3827352
  22.7855766   3.0687725  72.6817371  23.1530670   4.3932830  68.6708344
  23.9002489   4.9054228  68.3615466  23.4222260   4.0716883  69.5312738
  21.4257320   6.8891371  65.6535298  20.5168540   6.6050404  65.7507768
  21.4552404   7.3090450  64.7938605  26.6576588  10.4997961  69.4226466
  26.2038915   9.6588871  69.4791656  26.0270554  11.1359359  69.7601246
  25.6009507   1.4289947  70.6527133  24.8632264   0.9167333  70.9837376
  25.8536281   0.9890328  69.8410410  25.1009527  12.3374457  70.3576284
  25.3932501  12.8979514  69.6388650  25.6108147  12.6303018  71.1129443
  21.1233408   8.4300115  62.9923377  20.6852838   7.7135974  62.5329014
  21.8643849   8.6576230  62.4308468  20.0643152  13.1154808  71.4469737
  20.0219331  13.3415655  70.5178269  20.9805851  12.8818183  71.5955538
  23.5108786   3.5838876  78.3450367  23.8658174   3.8110349  79.2044832
  24.1580917   3.9157253  77.7227622  29.2406523   6.7057312  69.0499696
  29.1024421   6.8958908  68.1220885  28.8842742   7.4676695  69.5067747
  29.2675902   8.7733839  74.0610967  29.7012409   8.6809128  74.9094021
  29.9807483   8.7491339  73.4230983  18.1808953   9.9917837  71.2431700
  18.9749551   9.4968158  71.0414275  17.4700645   9.4635701  70.8799406
  23.0003797  12.3735933  75.5944068  23.0540820  12.9426869  76.3621784
  22.1318579  12.5437818  75.2298105  30.1291452   8.8157540  76.5943852
  30.3227342   9.7203350  76.8403127  30.0292070   8.3564959  77.4282437
  25.1906561   8.9664282  82.1684733  25.0392067   8.7374834  81.2514817
  25.1811240   9.9234884  82.1816078  21.9591897   6.5396195  77.1530999
  22.8883957   6.6907355  76.9799967  21.5382927   6.6280216  76.2979646
  20.7580229  10.5646859  74.9229537  20.6191315  10.1965644  75.7955475
  19.9694825  11.0794499  74.7513495  21.3528381  15.6655956  66.2655074
  21.5280137  15.1943999  67.0800696  20.6661169  16.2921722  66.4936334
  22.3085444   9.9428462  72.3118375  21.9735277   9.9029232  73.2076025
  21.8089390   9.2773178  71.8388785  25.2444636   7.2884497  62.5855435
  24.6273806   6.5631325  62.4888487  24.7761124   8.0493857  62.2422509
  18.9111989   5.0616052  77.3254636  19.6211607   4.4209244  77.2841254
  18.8681297   5.3128946  78.2480816  26.8998767  11.9983405  80.2461215
  26.8411313  11.3142625  79.5791798  27.3018286  12.7402395  79.7941841
  15.9189466  18.8145319  73.0394934  16.1586064  19.4463843  73.7173952
  15.0758663  18.4633359  73.3260293  26.9016175   9.9622989  78.4775195
  26.0142953   9.6248911  78.6001593  27.4714726   9.2306020  78.7143960
  20.4317328  14.6224441  75.4436438  20.3587499  15.4279413  75.9555742
  19.9894721  14.8216407  74.6184459  20.2207108  13.8596211  68.9539259
  19.4374630  14.4017891  69.0477484  20.9199853  14.3770191  69.3533501
  31.3833515   5.3731206  73.2391756  31.3723391   6.2555922  72.8685689
  30.5150895   5.0202757  73.0446293  22.8916012  14.5211275  77.5994596
  23.6043984  15.1558740  77.5270498  22.4006040  14.6175141  76.7834598
  24.6133538   8.4262528  69.1711888  23.6789817   8.5463990  69.0016592
  24.7910207   7.5234995  68.9071898  28.0006090   4.2679847  69.7061922
  28.4666542   5.1007839  69.6322225  28.4513590   3.8024829  70.4107181
  17.9427925  12.2705719  78.4200167  18.6437385  12.9042202  78.5729561
  17.4723040  12.6120450  77.6595807  26.0682321  10.6123668  66.7048074
  26.3442165  10.4980263  67.6141948  25.1986820  10.2141153  66.6660247
  25.7429211   4.8250326  76.2452718  25.0900661   5.0726234  75.5905170
  26.1209591   4.0114464  75.9115195  22.7036385  14.8610019  70.3480888
  22.8858779  14.0431675  70.8108640  23.5269371  15.0777712  69.9105778
  23.0378550  13.7878204  67.6095936  23.5666317  13.2770659  66.9966099
  23.3006770  13.4720735  68.4741469  21.7916784   5.5670137  82.7318755
  21.1157421   5.4664266  83.4021130  22.6144418   5.4109351  83.1954752
  13.5395643  11.8042074  75.3531270  14.1249080  11.0585762  75.4859174
  13.3420482  12.1146030  76.2367934  16.3934298  14.8393321  70.3693712
  15.7244674  15.3239449  69.8857752  16.2547168  15.0862542  71.2837091
  20.5339567  16.8737065  76.9676371  21.0857875  17.0368686  77.7325456
  20.8745760  17.4641502  76.2956396  25.3850441  11.6998322  82.8225025
  25.9290345  12.3128280  82.3279980  24.8037286  12.2577901  83.3392038
  23.6707954  14.8219040  73.9540053  23.5459094  14.0208780  73.4450998
  24.3287045  15.3165233  73.4654023  25.7342863  12.6228060  75.5819603
  24.7873198  12.5033411  75.5097930  26.0825636  11.7350558  75.6645864
  22.7389296  12.4180776  71.7823955  22.5914258  11.4897484  71.9631525
  23.5642789  12.4400867  71.2981030  26.3423418  13.2409335  72.8688828
  27.2669965  13.0352196  72.7313279  26.1738721  12.9925736  73.7778169
  26.1318734  13.7595003  68.2250919  26.3055611  13.1941425  67.4724772
  26.6247625  14.5595897  68.0430409  31.9858125   6.5231426  69.8441219
  32.4289271   5.7738751  69.4460342  31.1084635   6.5141562  69.4614951
  27.1193906  13.0761767  65.3247818  27.8144811  13.6968460  65.5435132
  27.4617057  12.2257118  65.6000196  29.0185330  10.5261473  66.8535148
  29.5436654  10.8648745  66.1284468  28.9307682   9.5908488  66.6698283
  20.6805378  14.4395546  78.9825025  20.9892505  14.1944693  79.8547725
  21.4780860  14.6442185  78.4943895  20.7025990  16.5933456  71.2130402
  20.2630981  16.1009835  71.9063258  21.4534107  16.0506423  70.9722477
  13.1818329  12.7844997  71.2155030  14.0076349  12.4848769  70.8353673
  12.8312381  12.0152619  71.6644818  18.1499862  12.1371465  73.2852703
  17.5279872  11.4742170  72.9854931  18.8204729  12.1632597  72.6026351
  28.7079236  11.1594376  82.1586346  27.9174779  11.1418515  81.6190846
  28.4712590  11.6982670  82.9135383  28.8277111   8.0086843  79.4719075
  28.8775116   7.8436850  80.4134598  28.7191034   7.1414102  79.0816956
  17.7113369  10.6875388  66.7611164  17.8601490  11.3710853  66.1077837
  18.5179813  10.6680478  67.2760620  26.1180873   3.9917771  80.7878382
  27.0190736   3.8524235  80.4962379  26.1928848   4.1572225  81.7276559
  30.3295307  10.4283784  79.7161096  30.0380116  10.7913765  80.5524557
  29.7167439   9.7150792  79.5374429  31.5290990   7.9936664  72.2363667
  32.3637881   8.4326468  72.4001227  31.6650119   7.5175317  71.4171912
  28.5782496   5.5516399  78.1841154  29.0536617   5.7444045  77.3760006
  27.6548061   5.6075585  77.9384538  21.2108775  13.1823519  64.2322911
  20.6382742  13.8013706  63.7793383  21.7841569  13.7322880  64.7662833
  27.2784165   2.4282159  76.4169460  28.2301588   2.5280256  76.4381684
  27.1087615   1.6360427  76.9267544  24.4306035  13.4660669  65.3631494
  25.3636708  13.4006231  65.5664369  24.3429247  14.3016936  64.9046026
  27.0594051  12.7826539  62.3235441  26.9807683  12.4486403  63.2171199
  27.8803718  13.2748307  62.3226913  29.7572243   5.6488278  75.5311760
  29.7248563   4.7104279  75.7171444  30.3672866   5.7272315  74.7977585
  21.5955573   4.5184331  61.5738964  22.5414678   4.3890540  61.6427382
  21.2169818   3.7798993  62.0508392  29.9066731   2.4399322  75.5770043
  29.3905780   1.6557779  75.3899972  30.7906680   2.1118039  75.7416562
  35.5748792   6.7104285  74.6717797  36.3052181   6.4489573  75.2325500
  34.9655738   5.9733007  74.7119864  33.6564089   4.8512148  75.2692248
  32.9297253   4.7168113  74.6608739  33.2411376   5.1588977  76.0748966
  21.4794266   8.5702078  83.0339621  22.3997275   8.7480677  83.2279667
  21.4443849   7.6258123  82.8819320  19.2115474   5.4833457  83.8830212
  18.7282556   6.2833817  84.0894102  19.2976413   5.4941402  82.9297656
  15.1388811   9.3737992  75.9198646  16.0932065   9.3421934  75.8528578
  14.9401335   8.9128615  76.7348872  15.7288193   7.9439108  78.4869444
  16.5481082   8.4383186  78.5104281  16.0025001   7.0271076  78.4587011
  25.4854790   0.3349860  67.8497399  24.5980645   0.6199511  67.6317594
  25.9008779   0.1743623  67.0024676  28.8369326   0.3596381  71.5651739
  29.6129716   0.8492833  71.8376356  28.1117460   0.7854435  72.0223608
  31.2741884   1.0724000  72.6225679  31.8686375   0.8319736  71.9118988
  31.3468468   0.3531131  73.2499216  13.4939040  14.9157611  72.9368844
  13.3593508  14.1558012  72.3706842  13.0771102  15.6398511  72.4697633
  24.6298003  10.0994535  61.9445419  25.3333853  10.3044537  62.5603075
  23.9060652  10.6671296  62.2094503  25.4595813   5.8504396  68.0647690
  25.4031015   6.3072947  67.2255322  26.0124156   5.0895080  67.8870532
  29.2700619   1.6394128  68.8897809  29.0137554   1.2390763  69.7206017
  28.6453487   2.3537922  68.7647948  33.5812957   4.3790201  71.3969100
  33.0212515   4.4483390  72.1700663  32.9756461   4.2031186  70.6768597
  16.6508166  15.8126928  73.1487287  16.5340550  16.7572361  73.0465977
  15.8300612  15.5100490  73.5373086  26.5384701  10.5377064  63.9943879
  27.3730304  10.1058262  63.8121354  26.3769043  10.3659077  64.9220774
  26.1930593   7.0409177  65.3600219  26.1379396   6.8753449  64.4188663
  25.5676648   7.7485210  65.5162408  23.5076500   9.3458089  84.6853782
  24.3767660   9.5198741  84.3240416  23.0283251  10.1652506  84.5629511
  17.6762680  16.4655190  76.3643215  18.5789927  16.4978800  76.6809710
  17.4500050  15.5355641  76.3789551  19.4316282  15.2186176  73.0253294
  18.4811913  15.2188038  72.9117666  19.7348768  14.4718911  72.5089328
  35.1668976  21.0546715  74.0899056  35.8047386  20.9353462  73.3862396
  35.0489818  22.0027559  74.1487008  31.9758682  21.0074143  74.0260581
  31.6377193  20.8915208  73.1381116  32.8448450  20.6065308  74.0061587
  27.8345498  22.8609619  70.0157472  27.2710363  22.7699556  69.2473760
  27.7197893  22.0409524  70.4959964  32.4578465  22.1608995  79.9846786
  32.4467106  21.7661793  79.1127290  32.6199104  21.4275067  80.5780558
  25.3809930  24.3560811  72.8541692  26.1731221  24.0151636  72.4387992
  25.6206580  24.4655786  73.7743846  33.4145056  26.5280587  65.3271937
  32.7633036  27.1134668  64.9405951  34.2089419  27.0586782  65.3866974
  27.3400683  23.6169724  65.7259071  28.1131559  23.0698711  65.5871947
  27.6926082  24.4813974  65.9373533  29.1785726  24.9446107  78.9325970
  28.8875592  25.8491737  78.8172637  29.8142710  24.9862634  79.6470040
  30.1041933  22.3222955  75.5227330  30.7005505  22.0978977  74.8084293
  30.1616904  21.5807701  76.1252778  29.6766961  19.7762390  63.3577521
  29.9292482  19.2543912  62.5960984  28.7391520  19.6128536  63.4604205
  34.7210244  18.7798169  71.1652264  35.5073333  18.3617592  70.8142681
  34.9848948  19.6844261  71.3333913  34.8920321  24.2171019  65.8640921
  34.2566154  24.2905646  66.5761826  34.5617728  24.8064618  65.1860000
  40.1218671  18.7173402  72.0685243  40.8543843  18.1472619  72.3023072
  39.3658027  18.3295002  72.5091748  29.3963250  21.6790496  65.5601896
  29.2799508  21.0035400  66.2282980  29.5065510  21.1922870  64.7434049
  31.7394791  21.1400643  69.2648585  31.3752998  20.6131264  69.9761507
  32.5961907  20.7499112  69.0915071  37.6444092  12.4294976  76.5279851
  37.3127416  13.2990387  76.3041066  37.0489705  12.1131260  77.2073882
  31.3800278  16.1690543  64.2609934  31.5474680  17.0370780  64.6280405
  31.1897447  16.3317825  63.3371223  34.1375611  24.6307522  75.9275764
  33.8376334  25.5332561  75.8191571  33.7926671  24.3639705  76.7796917
  27.5888093  21.0821319  71.9612469  26.6638589  20.9497533  72.1690160
  27.8372506  21.8615538  72.4582411  37.5372755  17.1490062  73.6073201
  36.6289632  17.0805471  73.3131962  37.4860351  17.6262007  74.4355027
  31.3589499  18.6248201  65.2456601  31.2389124  19.0705251  66.0842081
  30.6642087  18.9733518  64.6870139  24.9496904  20.7254592  72.7956258
  25.0789285  20.9789071  73.7095669  24.2694355  21.3182300  72.4760913
  29.1196391  31.3951842  68.8946732  29.0420421  32.3459667  68.9735212
  28.5158034  31.0497715  69.5521658  31.6113621  18.5679708  81.5508099
  30.8346955  19.1273628  81.5410963  32.2504184  19.0536491  82.0722969
  39.4034401  15.3506501  75.3851075  38.7608782  15.6439034  74.7390870
  38.8989330  15.2359421  76.1904272  37.0574565  19.0969674  66.0736935
  37.9692421  19.3297061  65.8984632  36.5484212  19.6806718  65.5112013
  29.8659993  21.3765161  81.1126066  30.6074677  21.9150205  80.8360889
  29.1596978  22.0031450  81.2697617  35.3415333  23.5194302  79.7098227
  35.7498689  23.0776712  78.9652860  34.6192594  22.9446929  79.9632420
  31.6946403  18.4566908  77.0831784  32.5407598  18.8806322  77.2266433
  31.6345040  17.8000533  77.7770347  35.6644147  24.0795492  73.4650516
  35.0353010  24.2441206  72.7626584  35.2769809  24.4937102  74.2361480
  39.5433379  25.0149930  70.8194880  38.8584417  25.3948831  70.2691913
  39.6277228  25.6245257  71.5526828  34.8445848  16.1171277  78.7412958
  34.6006780  16.8713337  78.2047233  35.1205779  16.4956624  79.5760205
  36.7984311  22.6609889  77.4190223  37.0101206  23.3041649  76.7424604
  36.7514059  21.8272206  76.9512153  34.4010540  15.2727710  74.3226796
  33.5395019  15.5708963  74.6143533  34.4272974  15.4898109  73.3907828
  31.2172109  23.8169900  70.7300601  31.6810455  24.0957603  69.9405224
  30.9528907  22.9153345  70.5473692  28.1096190  23.3641382  73.6680364
  28.6797547  23.7928650  73.0297849  28.7004302  23.0823967  74.3664550
  30.1540995  19.9393053  67.5390166  30.8565039  20.3914096  68.0064093
  29.8221624  19.2976872  68.1670059  28.6021357  18.5304809  81.9141376
  27.9720017  19.2121090  82.1476773  28.4957445  18.4187891  80.9694514
  23.8966329  18.1976605  72.8407300  23.1065383  18.4534134  72.3647410
  24.3877577  19.0124943  72.9459340  37.9130139  25.5381845  75.5912581
  38.7347582  25.1362032  75.3095262  37.9092542  25.4350079  76.5428697
  25.8481075  18.5621185  69.7990777  25.0512238  18.6739879  70.3174272
  25.6206667  18.9007837  68.9331667  31.6786742  25.0865888  77.7473291
  31.7431175  25.5486295  78.5831463  30.9697666  24.4563253  77.8755601
  22.1804032  18.4507096  75.2722291  22.4312071  19.3354106  75.5379867
  22.7163581  18.2711697  74.4997383  46.0036132  21.8820593  71.9397552
  45.2499840  21.3127991  71.7841557  46.1383673  21.8483258  72.8868187
  31.3934760  26.7533995  67.6152272  31.2580435  27.5985531  68.0437119
  31.9344572  26.9553273  66.8518205  27.8802099  12.8325575  84.2766627
  27.4869045  12.2791774  84.9514271  28.6968240  13.1436154  84.6673144
  24.8464157  24.2709433  68.1880197  25.3588678  25.0652684  68.3385761
  25.4986870  23.5735724  68.1213798  26.6559042  27.3875190  70.2702950
  26.8325670  28.3093154  70.0823934  27.4515875  27.0733609  70.6997330
  30.7970060  14.2483454  81.8686883  31.5379774  14.8490607  81.7891346
  31.0287983  13.5061092  81.3104926  25.9411398  19.4339822  80.1465113
  25.8264914  18.5325079  80.4472212  25.0855916  19.6803518  79.7949930
  33.0203236  27.3757562  81.7452614  32.5767090  26.5893940  81.4273518
  33.6820450  27.5636712  81.0796504  27.7790357  28.9053363  76.2713292
  28.3297782  28.7770427  75.4990286  26.9401833  29.2048252  75.9208185
  35.1184474  27.6560362  79.7734015  35.1002950  28.4769243  79.2814284
  36.0404394  27.5314437  79.9984156  31.5757528  25.1704491  80.6157523
  32.1085865  24.4092779  80.3856831  31.0471610  24.8778143  81.3581678
  34.7427223  10.2764557  76.1451165  34.3991493  11.1666199  76.0690276
  35.1106186  10.0866215  75.2820750  22.8113074  22.5998088  68.9639767
  23.6488296  23.0095096  68.7473475  22.9891342  21.6597530  68.9339961
  34.7077506  20.2673168  64.6523600  34.1924130  21.0377773  64.8911988
  34.4354815  19.5938304  65.2756662  32.2924617  15.1122869  69.7108838
  31.4366213  14.7229719  69.5314477  32.7051569  15.1914830  68.8508624
  33.8223764  12.6469212  74.1100398  33.3188559  12.6099348  73.2968204
  34.1154371  13.5561955  74.1697055  30.0666650  12.7307942  73.1166580
  30.9319646  12.5350751  72.7572469  30.1344159  12.5018294  74.0435937
  39.6811780  23.0205523  66.5876774  38.9041223  22.6816682  66.1431936
  40.3603261  23.0258146  65.9131739  34.4963809  18.1400260  66.4783381
  34.1913945  18.4546410  67.3293524  35.4494251  18.2181680  66.5210714
  32.9410241  24.2990484  68.1276335  32.4131603  23.5643243  67.8149573
  32.4397744  25.0765160  67.8816304  37.9203087  22.4939504  73.2443382
  37.2626762  23.1838766  73.3323510  38.7243486  22.8835936  73.5877368
  27.6728969  14.9610150  70.4882947  28.2472721  14.7385332  69.7556140
  28.2599951  15.0298845  71.2411548  36.7308546  20.8483877  71.2947323
  37.2440428  21.4813869  71.7969033  37.3809770  20.2485072  70.9290683
  27.9998556  16.9914611  64.5078832  27.1635868  17.3289298  64.8288107
  27.8603325  16.8563591  63.5705969  29.9751636  11.8351399  69.2158016
  29.3216049  11.5200416  68.5914631  29.9332111  11.2127139  69.9417839
  31.0862841  22.1170694  61.1311308  30.1789903  21.8859947  61.3302457
  31.5833873  21.3208313  61.3185290  33.9930920  30.8268201  64.0507994
  33.3192619  31.1299898  64.6592952  34.3796742  31.6297282  63.7013452
  33.2089377  18.3233332  73.5405664  32.2911938  18.5448279  73.3827352
  33.6249520  18.3979643  72.6817371  33.9924425  19.7224748  68.6708344
  34.7396244  20.2346145  68.3615466  34.2616014  19.4008801  69.5312738
  32.2651075  22.2183289  65.6535298  31.3562294  21.9342322  65.7507768
  32.2946159  22.6382367  64.7938605  37.4970342  25.8289878  69.4226466
  37.0432669  24.9880788  69.4791656  36.8664309  26.4651277  69.7601246
  36.4403262  16.7581864  70.6527133  35.7026019  16.2459251  70.9837376
  36.6930035  16.3182246  69.8410410  35.9403281  27.6666375  70.3576284
  36.2326256  28.2271432  69.6388650  36.4501902  27.9594936  71.1129443
  36.5414889   9.5358116  71.2468903  36.8473766   8.6755480  70.9594818
  37.2667494  10.1275737  71.0467897  22.8339245  19.9388803  69.6350501
  22.6363645  19.3458164  68.9101567  22.2785909  19.6341013  70.3526439
  30.8135969  19.8311909  71.7545094  30.8684579  18.8785746  71.6787570
  30.0027171  19.9871349  72.2386392  31.9627163  23.7592033  62.9923377
  31.5246592  23.0427891  62.5329014  32.7037603  23.9868147  62.4308468
  28.7528329  18.4488969  69.5135473  27.9396194  18.7483140  69.9200665
  29.2487323  18.0544658  70.2309955  30.9036907  28.4446726  71.4469737
  30.8613085  28.6707572  70.5178269  31.8199605  28.2110101  71.5955538
  34.3502540  18.9130794  78.3450367  34.7051928  19.1402267  79.2044832
  34.9974672  19.2449170  77.7227622  40.0800277  22.0349230  69.0499696
  39.9418176  22.2250826  68.1220885  39.7236496  22.7968612  69.5067747
  28.2442403  16.0207325  75.1296708  28.8841783  15.8796084  74.4319671
  27.4119934  15.7341838  74.7535310  40.1069657  24.1025757  74.0610967
  40.5406164  24.0101046  74.9094021  40.8201238  24.0783257  73.4230983
  29.0202707  25.3209755  71.2431700  29.8143306  24.8260075  71.0414275
  28.3094400  24.7927618  70.8799406  33.8397552  27.7027851  75.5944068
  33.8934574  28.2718787  76.3621784  32.9712333  27.8729736  75.2298105
  25.3285471  19.4652837  67.3191453  24.3983059  19.4037292  67.5361415
  25.4242943  18.9428790  66.5228094  25.2471020  15.9907650  69.9069694
  25.5077837  16.9052983  69.7978855  26.0688192  15.5232092  70.0566307
  26.7195945  17.4045407  77.0768519  27.3918999  17.1962769  76.4281168
  25.8925732  17.2067493  76.6373751  40.9685207  24.1449457  76.5943852
  41.1621097  25.0495268  76.8403127  40.8685825  23.6856876  77.4282437
  32.6221517  14.0307348  79.0934180  31.9749432  14.7297297  78.9998656
  33.3922533  14.4643492  79.4610428  36.0300315  24.2956200  82.1684733
  35.8785822  24.0666752  81.2514817  36.0204995  25.2526801  82.1816078
  32.7985652  21.8688113  77.1530999  33.7277712  22.0199272  76.9799967
  32.3776682  21.9572134  76.2979646  31.5973983  25.8938777  74.9229537
  31.4585069  25.5257562  75.7955475  30.8088580  26.4086417  74.7513495
  32.1922135  30.9947874  66.2655074  32.3673891  30.5235917  67.0800696
  31.5054923  31.6213640  66.4936334  33.1479199  25.2720380  72.3118375
  32.8129031  25.2321150  73.2076025  32.6483144  24.6065096  71.8388785
  27.1223442  20.6788010  77.8370956  26.9843240  19.9468249  78.4382495
  28.0328366  20.5896910  77.5555144  36.0838390  22.6176414  62.5855435
  35.4667561  21.8923242  62.4888487  35.6154879  23.3785774  62.2422509
  29.7505743  20.3907969  77.3254636  30.4605362  19.7501161  77.2841254
  29.7075051  20.6420864  78.2480816  37.7392522  27.3275323  80.2461215
  37.6805068  26.6434543  79.5791798  38.1412040  28.0694313  79.7941841
  28.4634677  17.3773187  79.1450275  27.9272034  16.9263926  79.7971872
  27.8751386  17.5119096  78.4020740  26.7583221  34.1437236  73.0394934
  26.9979819  34.7755761  73.7173952  25.9152417  33.7925276  73.3260293
  27.8736936  16.8361838  61.7076739  26.9966402  16.7150639  61.3438986
  28.3494689  16.0447917  61.4555627  37.7409929  25.2914906  78.4775195
  36.8536708  24.9540828  78.6001593  38.3108480  24.5597938  78.7143960
  19.3939076  21.6238998  71.8018246  20.0810116  21.3100728  71.2139261
  19.2387205  22.5280363  71.5285497  24.1973798  16.5129195  76.2303270
  24.1131987  15.9054864  75.4953680  23.3756505  17.0038213  76.2312766
  31.2711082  29.9516359  75.4436438  31.1981254  30.7571330  75.9555742
  30.8288476  30.1508325  74.6184459  31.0600862  29.1888129  68.9539259
  30.2768384  29.7309809  69.0477484  31.7593607  29.7062108  69.3533501
  34.3697512  14.9982758  71.5973465  34.8666212  14.2452721  71.2774535
  33.5984494  15.0347075  71.0316674  42.2227270  20.7023124  73.2391756
  42.2117146  21.5847839  72.8685689  41.3544649  20.3494675  73.0446293
  33.7309766  29.8503193  77.5994596  34.4437738  30.4850658  77.5270498
  33.2399795  29.9467059  76.7834598  35.4527293  23.7554446  69.1711888
  34.5183572  23.8755908  69.0016592  35.6303961  22.8526912  68.9071898
  30.9532481  17.1400141  71.3245149  30.5830268  16.5871182  72.0126055
  31.4491573  16.5358275  70.7720149  38.8399844  19.5971765  69.7061922
  39.3060296  20.4299756  69.6322225  39.2907345  19.1316746  70.4107181
  28.7821680  27.5997636  78.4200167  29.4831139  28.2334119  78.5729561
  28.3116795  27.9412368  77.6595807  36.9076075  25.9415586  66.7048074
  37.1835919  25.8272181  67.6141948  36.0380574  25.5433071  66.6660247
  36.8116507  11.9652352  73.7452824  35.8979587  12.1956579  73.9135031
  37.2409608  12.0490796  74.5966856  36.5822966  20.1542244  76.2452718
  35.9294416  20.4018151  75.5905170  36.9603345  19.3406382  75.9115195
  33.5430139  30.1901937  70.3480888  33.7252534  29.3723593  70.8108640
  34.3663125  30.4069629  69.9105778  33.8772305  29.1170122  67.6095936
  34.4060071  28.6062577  66.9966099  34.1400524  28.8012652  68.4741469
  32.6310539  20.8962055  82.7318755  31.9551176  20.7956184  83.4021130
  33.4538172  20.7401269  83.1954752  24.3789398  27.1333991  75.3531270
  24.9642834  26.3877679  75.4859174  24.1814236  27.4437948  76.2367934
  27.2328053  30.1685239  70.3693712  26.5638428  30.6531366  69.8857752
  27.0940923  30.4154459  71.2837091  18.9707052  19.7039592  74.0735713
  19.0091152  19.1703182  74.8672831  18.4647345  19.1774797  73.4546690
  31.3733321  32.2028982  76.9676371  31.9251629  32.3660604  77.7325456
  31.7139515  32.7933420  76.2956396  26.3497815  14.5504132  77.5698255
  26.4139141  15.4118963  77.1575653  26.2864935  13.9378134  76.8370614
  25.8250087  16.6227265  81.2171290  26.4522126  16.2404342  81.8308814
  24.9678006  16.4041467  81.5826982  36.2244196  27.0290240  82.8225025
  36.7684100  27.6420198  82.3279980  35.6431041  27.5869818  83.3392038
  22.6015630  18.4303694  67.1489644  22.8969071  17.5214372  67.0956698
  21.7003666  18.4091433  66.8270647  34.5101709  30.1510958  73.9540053
  34.3852848  29.3500698  73.4450998  35.1680800  30.6457151  73.4654023
  26.1309877  16.5059690  73.1317193  25.4096463  17.1195658  72.9924666
  26.9203133  17.0417455  73.0533839  36.5736617  27.9519978  75.5819603
  35.6266953  27.8325329  75.5097930  36.9219390  27.0642476  75.6645864
  28.9336190  13.8414117  79.4057845  29.4570592  14.0876413  80.1684154
  28.7148524  14.6734152  78.9860982  24.3303472  16.1117791  67.2728970
  24.0016178  15.2315170  67.0904076  24.6842842  16.0565460  68.1605359
  33.5783050  27.7472694  71.7823955  33.4308013  26.8189402  71.9631525
  34.4036544  27.7692785  71.2981030  27.4445295  16.3990761  67.6404447
  27.7841367  16.9276682  66.9183056  27.8917415  16.7371167  68.4163014
  37.1817172  28.5701253  72.8688828  38.1063720  28.3644114  72.7313279
  37.0132476  28.3217654  73.7778169  30.1388735  14.7827812  77.0907515
  29.7985556  13.9835625  77.4928195  29.4327742  15.0829523  76.5184349
  30.7905207  11.8677124  75.5434838  31.6131277  11.3937603  75.4213729
  31.0343271  12.6467608  76.0433525  29.4313442  14.8965383  65.8397740
  30.1521804  15.2746636  65.3361457  28.8078746  15.6154260  65.9432718
  33.5744565  15.6010532  66.7756072  33.7908179  16.4835170  66.4744901
  33.0938632  15.2096745  66.0461714  28.3143786  18.5596245  73.3526817
  28.1688367  18.8736548  74.2451099  27.8368990  19.1781145  72.7997716
  30.1740169  15.5498793  73.4007707  30.1601738  14.6539886  73.0640005
  30.8912597  15.5569457  74.0345993  32.0266300  15.9836133  75.4460834
  31.7684077  16.9053204  75.4445164  31.4951340  15.5866568  76.1361298
  36.9712488  29.0886920  68.2250919  37.1449366  28.5233343  67.4724772
  37.4641380  29.8887815  68.0430409  22.7889448  21.1001589  76.2914478
  22.2442916  21.8761397  76.4234753  23.6668798  21.4472394  76.1333600
  29.5777065  14.4313173  68.6695277  29.6992976  13.5029819  68.8686164
  29.2879107  14.4451859  67.7573592  32.4468255  12.1168084  71.8061997
  32.4689952  12.1807417  70.8513976  32.8636314  11.2772592  72.0002503
  42.8251880  21.8523343  69.8441219  43.2683026  21.1030668  69.4460342
  41.9478390  21.8433480  69.4614951  37.9587661  28.4053685  65.3247818
  38.6538566  29.0260377  65.5435132  38.3010811  27.5549036  65.6000196
  23.5755470  20.2271486  79.1844635  22.8337206  20.3754121  79.7709265
  23.2548214  20.4879751  78.3211384  39.8579084  25.8553390  66.8535148
  40.3830408  26.1940663  66.1284468  39.7701437  24.9200406  66.6698283
  31.5199133  29.7687464  78.9825025  31.8286259  29.5236611  79.8547725
  32.3174615  29.9734102  78.4943895  31.5419745  31.9225373  71.2130402
  31.1024735  31.4301752  71.9063258  32.2927862  31.3798341  70.9722477
  24.0212084  28.1136914  71.2155030  24.8470104  27.8140686  70.8353673
  23.6706136  27.3444537  71.6644818  28.9893617  27.4663383  73.2852703
  28.3673626  26.8034088  72.9854931  29.6598484  27.4924514  72.6026351
  22.2220689  26.0323241  72.1743963  21.3852597  25.6045415  71.9927965
  22.1944334  26.2255684  73.1114754  29.0618144  15.9445171  82.8785209
  29.1106300  16.8207293  82.4962979  29.6040659  15.4022564  82.3056853
  39.5472990  26.4886294  82.1586346  38.7568534  26.4710433  81.6190846
  39.3106345  27.0274588  82.9135383  39.6670865  23.3378760  79.4719075
  39.7168870  23.1728768  80.4134598  39.5584788  22.4706019  79.0816956
  28.5507124  26.0167306  66.7611164  28.6995244  26.7002770  66.1077837
  29.3573567  25.9972396  67.2760620  36.9574628  19.3209688  80.7878382
  37.8584490  19.1816153  80.4962379  37.0322602  19.4864143  81.7276559
  31.2917433  16.6976543  79.6331568  30.4220742  16.9910109  79.3614157
  31.5276913  17.2816988  80.3538832  41.1689062  25.7575702  79.7161096
  40.8773870  26.1205682  80.5524557  40.5561193  25.0442710  79.5374429
  42.3684744  23.3228582  72.2363667  43.2031636  23.7618386  72.4001227
  42.5043873  22.8467235  71.4171912  39.4176250  20.8808316  78.1841154
  39.8930372  21.0735963  77.3760006  38.4941816  20.9367502  77.9384538
  26.3059757  22.0432484  67.7672233  26.0605799  21.1394814  67.9652443
  26.4755671  22.0449634  66.8251711  33.9956467  12.9156160  77.1496988
  34.5138411  13.6517187  76.8243477  33.6411599  13.2220153  77.9843747
  25.5755404  17.7760841  65.2658394  24.8824649  17.8505196  64.6098430
  25.3307156  17.0121185  65.7879911  34.2469061   9.3356442  72.6697885
  34.5270815   8.6679632  73.2958311  35.0319668   9.5285538  72.1572549
  32.0502529  28.5115436  64.2322911  31.4776496  29.1305624  63.7793383
  32.6235323  29.0614798  64.7662833  38.1177919  17.7574076  76.4169460
  39.0695342  17.8572174  76.4381684  37.9481370  16.9652345  76.9267544
  36.1392299  14.8429660  76.6028861  35.5442231  15.1234672  75.9075350
  35.8541995  15.3323561  77.3745602  35.2699789  28.7952587  65.3631494
  36.2030462  28.7298148  65.5664369  35.1823002  29.6308853  64.9046026
  37.8987806  28.1118457  62.3235441  37.8201437  27.7778320  63.2171199
  38.7197473  28.6040225  62.3226913  40.5965997  20.9780196  75.5311760
  40.5642317  20.0396197  75.7171444  41.2066621  21.0564233  74.7977585
  32.4349328  19.8476249  61.5738964  33.3808433  19.7182457  61.6427382
  32.0563573  19.1090911  62.0508392  40.7460485  17.7691240  75.5770043
  40.2299534  16.9849696  75.3899972  41.6300434  17.4409956  75.7416562
  38.4071212  11.5132255  71.5365856  38.2096034  11.2047343  72.4209188
  39.0170918  12.2393894  71.6663785  46.4142547  22.0396203  74.6717797
  47.1445935  21.7781491  75.2325500  45.8049492  21.3024925  74.7119864
  44.4957844  20.1804066  75.2692248  43.7691008  20.0460031  74.6608739
  44.0805131  20.4880894  76.0748966  32.3188020  23.8993995  83.0339621
  33.2391030  24.0772594  83.2279667  32.2837603  22.9550041  82.8819320
  30.6192245  17.7726226  61.5093849  29.7123700  17.4759338  61.5856563
  30.8968226  17.4756044  60.6428135  21.5370185  19.0932589  71.9592895
  21.2172970  18.2397897  71.6667269  20.9903614  19.3081167  72.7150863
  25.3150093  21.8095030  75.6762402  25.5336103  22.7412138  75.6950436
  25.7275867  21.4503004  76.4617206  32.2354311  12.3163115  67.6638090
  31.4255039  11.9710200  68.0393336  32.9238728  12.0070659  68.2525702
  34.1644859  11.3941162  69.2862387  34.7175898  11.8136615  69.9452410
  34.4014945  10.4676910  69.3285343  30.1877958  17.3828236  85.0665151
  30.0874685  18.3322593  84.9977242  29.9699500  17.0546475  84.1941221
  29.3891030  14.6313161  61.6505828  30.2510194  14.9568059  61.9101646
  29.5741374  13.8444657  61.1378894  21.4058445  22.7135500  73.9286017
  20.7121917  22.2989453  73.4155971  22.1531436  22.7556037  73.3319436
  37.5423666  13.5041687  68.7941051  36.9622335  14.1626491  68.4119104
  37.2759599  12.6819032  68.3828469  35.9927232  12.9046745  70.9962372
  36.4927011  13.0163279  70.1876690  36.6362840  12.6007798  71.6363180
  30.0509228  20.8125375  83.8830212  29.5676310  21.6125735  84.0894102
  30.1370167  20.8233319  82.9297656  23.3195188  22.6453754  71.8052032
  23.2965876  22.7441441  70.8533915  23.6295824  23.4918905  72.1269198
  25.9782566  24.7029909  75.9198646  26.9325819  24.6713852  75.8528578
  25.7795089  24.2420533  76.7348872  26.5681948  23.2731025  78.4869444
  27.3874837  23.7675104  78.5104281  26.8418756  22.3562993  78.4587011
  36.3248544  15.6641778  67.8497399  35.4374399  15.9491428  67.6317594
  36.7402533  15.5035541  67.0024676  39.6763080  15.6888299  71.5651739
  40.4523470  16.1784751  71.8376356  38.9511214  16.1146353  72.0223608
  42.1135639  16.4015918  72.6225679  42.7080130  16.1611654  71.9118988
  42.1862223  15.6823048  73.2499216  24.3332795  30.2449529  72.9368844
  24.1987263  29.4849930  72.3706842  23.9164857  30.9690429  72.4697633
  35.4691758  25.4286452  61.9445419  36.1727608  25.6336455  62.5603075
  34.7454406  25.9963214  62.2094503  36.2989568  21.1796314  68.0647690
  36.2424769  21.6364865  67.2255322  36.8517910  20.4186998  67.8870532
  40.1094374  16.9686045  68.8897809  39.8531308  16.5682681  69.7206017
  39.4847242  17.6829839  68.7647948  44.4206712  19.7082119  71.3969100
  43.8606270  19.7775308  72.1700663  43.8150215  19.5323103  70.6768597
  27.4901920  31.1418846  73.1487287  27.3734305  32.0864278  73.0465977
  26.6694367  30.8392407  73.5373086  37.3778455  25.8668981  63.9943879
  38.2124059  25.4350180  63.8121354  37.2162798  25.6950995  64.9220774
  37.0324347  22.3701095  65.3600219  36.9773151  22.2045366  64.4188663
  36.4070402  23.0777128  65.5162408  21.8216862  17.6069159  79.1861641
  22.4675726  17.0968113  79.6748866  21.6134013  18.3437841  79.7605066
  34.3470254  24.6750007  84.6853782  35.2161414  24.8490659  84.3240416
  33.8677006  25.4944423  84.5629511  30.3420473  11.8709204  64.9385537
  30.3299142  12.8151044  65.0953808  31.2343895  11.6879349  64.6444998
  28.5156435  31.7947108  76.3643215  29.4183681  31.8270718  76.6809710
  28.2893805  30.8647559  76.3789551  30.2710037  30.5478094  73.0253294
  29.3205668  30.5479956  72.9117666  30.5742523  29.8010829  72.5089328
  34.1572592   8.4651980  69.1931474  33.3904988   7.9110467  69.3388156
  34.5683297   8.5373849  70.0545626  26.1614353  14.7536776  83.2836655
  27.0245815  14.3973581  83.4939980  25.5879764  14.4150671  83.9712059
  46.0062730  36.3838633  74.0899056  46.6441140  36.2645380  73.3862396
  45.8883573  37.3319477  74.1487008  42.8152436  36.3366061  74.0260581
  42.4770948  36.2207125  73.1381116  43.6842205  35.9357226  74.0061587
  38.6739252  38.1901537  70.0157472  38.1104117  38.0991474  69.2473760
  38.5591647  37.3701442  70.4959964  43.2972219  37.4900912  79.9846786
  43.2860860  37.0953711  79.1127290  43.4592859  36.7566985  80.5780558
  36.2203684  39.6852729  72.8541692  37.0124976  39.3443553  72.4387992
  36.4600334  39.7947704  73.7743846  38.1794438  38.9461642  65.7259071
  38.9525314  38.3990629  65.5871947  38.5319837  39.8105891  65.9373533
  40.0179481  40.2738024  78.9325970  39.7269346  41.1783655  78.8172637
  40.6536465  40.3154552  79.6470040  40.9435687  37.6514873  75.5227330
  41.5399260  37.4270895  74.8084293  41.0010659  36.9099618  76.1252778
  40.5160716  35.1054308  63.3577521  40.7686236  34.5835829  62.5960984
  39.5785275  34.9420453  63.4604205  45.5603999  34.1090086  71.1652264
  46.3467088  33.6909510  70.8142681  45.8242703  35.0136179  71.3333913
  50.9612426  34.0465320  72.0685243  51.6937598  33.4764536  72.3023072
  50.2051781  33.6586920  72.5091748  40.2357005  37.0082414  65.5601896
  40.1193263  36.3327317  66.2282980  40.3459264  36.5214788  64.7434049
  42.5788545  36.4692561  69.2648585  42.2146753  35.9423182  69.9761507
  43.4355661  36.0791030  69.0915071  48.4837846  27.7586894  76.5279851
  48.1521171  28.6282305  76.3041066  47.8883459  27.4423178  77.2073882
  42.2194032  31.4982461  64.2609934  42.3868435  32.3662697  64.6280405
  42.0291201  31.6609743  63.3371223  44.9769366  39.9599440  75.9275764
  44.6770089  40.8624479  75.8191571  44.6320425  39.6931623  76.7796917
  38.4281847  36.4113237  71.9612469  37.5032344  36.2789451  72.1690160
  38.6766260  37.1907456  72.4582411  48.3766509  32.4781980  73.6073201
  47.4683387  32.4097388  73.3131962  48.3254105  32.9553925  74.4355027
  42.1983253  33.9540118  65.2456601  42.0782878  34.3997169  66.0842081
  41.5035842  34.3025436  64.6870139  35.7890658  36.0546510  72.7956258
  35.9183039  36.3080989  73.7095669  35.1088109  36.6474218  72.4760913
  39.9590145  46.7243760  68.8946732  39.8814175  47.6751585  68.9735212
  39.3551789  46.3789633  69.5521658  42.4507375  33.8971625  81.5508099
  41.6740709  34.4565546  81.5410963  43.0897938  34.3828408  82.0722969
  50.2428156  30.6798418  75.3851075  49.6002536  30.9730951  74.7390870
  49.7383084  30.5651339  76.1904272  47.8968319  34.4261591  66.0736935
  48.8086176  34.6588978  65.8984632  47.3877967  35.0098636  65.5112013
  40.7053747  36.7057079  81.1126066  41.4468432  37.2442123  80.8360889
  39.9990733  37.3323368  81.2697617  46.1809087  38.8486219  79.7098227
  46.5892443  38.4068630  78.9652860  45.4586349  38.2738847  79.9632420
  42.5340157  33.7858826  77.0831784  43.3801352  34.2098240  77.2266433
  42.4738795  33.1292450  77.7770347  46.5037902  39.4087410  73.4650516
  45.8746764  39.5733124  72.7626584  46.1163564  39.8229019  74.2361480
  50.3827134  40.3441848  70.8194880  49.6978172  40.7240749  70.2691913
  50.4670983  40.9537174  71.5526828  45.6839602  31.4463194  78.7412958
  45.4400534  32.2005255  78.2047233  45.9599533  31.8248542  79.5760205
  47.6378065  37.9901807  77.4190223  47.8494960  38.6333567  76.7424604
  47.5907814  37.1564123  76.9512153  45.2404294  30.6019627  74.3226796
  44.3788773  30.9000881  74.6143533  45.2666729  30.8190026  73.3907828
  42.0565864  39.1461818  70.7300601  42.5204209  39.4249521  69.9405224
  41.7922662  38.2445263  70.5473692  38.9489945  38.6933300  73.6680364
  39.5191302  39.1220568  73.0297849  39.5398057  38.4115884  74.3664550
  40.9934750  35.2684970  67.5390166  41.6958793  35.7206014  68.0064093
  40.6615378  34.6268789  68.1670059  39.4415111  33.8596727  81.9141376
  38.8113772  34.5413008  82.1476773  39.3351199  33.7479809  80.9694514
  34.7360084  33.5268523  72.8407300  33.9459138  33.7826052  72.3647410
  35.2271331  34.3416861  72.9459340  48.7523893  40.8673762  75.5912581
  49.5741337  40.4653950  75.3095262  48.7486296  40.7641996  76.5428697
  36.6874829  33.8913102  69.7990777  35.8905992  34.0031797  70.3174272
  36.4600421  34.2299755  68.9331667  42.5180497  40.4157806  77.7473291
  42.5824929  40.8778213  78.5831463  41.8091421  39.7855170  77.8755601
  33.0197787  33.7799013  75.2722291  33.2705825  34.6646023  75.5379867
  33.5557335  33.6003615  74.4997383  56.8429886  37.2112511  71.9397552
  56.0893595  36.6419909  71.7841557  56.9777427  37.1775175  72.8868187
  38.7195854  28.1617493  84.2766627  38.3262800  27.6083691  84.9514271
  39.5361994  28.4728071  84.6673144  35.6857912  39.6001351  68.1880197
  36.1982432  40.3944601  68.3385761  36.3380625  38.9027641  68.1213798
  37.4952796  42.7167107  70.2702950  37.6719425  43.6385072  70.0823934
  38.2909630  42.4025527  70.6997330  41.6363815  29.5775372  81.8686883
  42.3773528  30.1782525  81.7891346  41.8681738  28.8353010  81.3104926
  36.7805153  34.7631739  80.1465113  36.6658668  33.8616996  80.4472212
  35.9249671  35.0095436  79.7949930  43.8596991  42.7049480  81.7452614
  43.4160845  41.9185858  81.4273518  44.5214204  42.8928630  81.0796504
  38.6184112  44.2345281  76.2713292  39.1691537  44.1062344  75.4990286
  37.7795588  44.5340170  75.9208185  45.9578229  42.9852279  79.7734015
  45.9396704  43.8061160  79.2814284  46.8798149  42.8606355  79.9984156
  42.4151283  40.4996409  80.6157523  42.9479620  39.7384697  80.3856831
  41.8865364  40.2070061  81.3581678  45.5820978  25.6056475  76.1451165
  45.2385247  26.4958117  76.0690276  45.9499940  25.4158133  75.2820750
  33.6506828  37.9290005  68.9639767  34.4882050  38.3387014  68.7473475
  33.8285096  36.9889448  68.9339961  45.5471261  35.5965086  64.6523600
  45.0317884  36.3669691  64.8911988  45.2748569  34.9230222  65.2756662
  43.1318372  30.4414787  69.7108838  42.2759968  30.0521637  69.5314477
  43.5445323  30.5206748  68.8508624  44.6617518  27.9761130  74.1100398
  44.1582314  27.9391265  73.2968204  44.9548125  28.8853873  74.1697055
  40.9060404  28.0599860  73.1166580  41.7713401  27.8642668  72.7572469
  40.9737913  27.8310212  74.0435937  50.5205535  38.3497441  66.5876774
  49.7434977  38.0108600  66.1431936  51.1997016  38.3550064  65.9131739
  45.3357564  33.4692178  66.4783381  45.0307699  33.7838327  67.3293524
  46.2888006  33.5473598  66.5210714  43.7803996  39.6282401  68.1276335
  43.2525357  38.8935161  67.8149573  43.2791498  40.4057078  67.8816304
  48.7596842  37.8231422  73.2443382  48.1020516  38.5130683  73.3323510
  49.5637241  38.2127854  73.5877368  38.5122723  30.2902068  70.4882947
  39.0866475  30.0677249  69.7556140  39.0993706  30.3590762  71.2411548
  47.5702300  36.1775795  71.2947323  48.0834182  36.8105786  71.7969033
  48.2203524  35.5776990  70.9290683  38.8392310  32.3206529  64.5078832
  38.0029623  32.6581215  64.8288107  38.6997080  32.1855509  63.5705969
  40.8145391  27.1643317  69.2158016  40.1609803  26.8492334  68.5914631
  40.7725865  26.5419057  69.9417839  44.0483131  33.6525250  73.5405664
  43.1305693  33.8740197  73.3827352  44.4643275  33.7271561  72.6817371
  44.8318179  35.0516666  68.6708344  45.5789998  35.5638063  68.3615466
  45.1009769  34.7300719  69.5312738  43.1044829  37.5475207  65.6535298
  42.1956048  37.2634239  65.7507768  43.1339913  37.9674285  64.7938605
  48.3364097  41.1581796  69.4226466  47.8826424  40.3172706  69.4791656
  47.7058063  41.7943194  69.7601246  47.2797016  32.0873782  70.6527133
  46.5419773  31.5751168  70.9837376  47.5323790  31.6474164  69.8410410
  47.3808644  24.8650034  71.2468903  47.6867520  24.0047398  70.9594818
  48.1061248  25.4567654  71.0467897  33.6733000  35.2680721  69.6350501
  33.4757399  34.6750081  68.9101567  33.1179664  34.9632931  70.3526439
  41.6529723  35.1603827  71.7545094  41.7078333  34.2077664  71.6787570
  40.8420925  35.3163266  72.2386392  39.5922083  33.7780887  69.5135473
  38.7789949  34.0775057  69.9200665  40.0881077  33.3836576  70.2309955
  41.7430661  43.7738644  71.4469737  41.7006840  43.9999490  70.5178269
  42.6593360  43.5402018  71.5955538  45.1896295  34.2422711  78.3450367
  45.5445683  34.4694185  79.2044832  45.8368426  34.5741088  77.7227622
  50.9194032  37.3641147  69.0499696  50.7811930  37.5542743  68.1220885
  50.5630251  38.1260530  69.5067747  39.0836158  31.3499242  75.1296708
  39.7235537  31.2088002  74.4319671  38.2513688  31.0633756  74.7535310
  50.9463411  39.4317674  74.0610967  51.3799918  39.3392963  74.9094021
  51.6594992  39.4075175  73.4230983  39.8596462  40.6501673  71.2431700
  40.6537060  40.1551993  71.0414275  39.1488154  40.1219536  70.8799406
  44.6791306  43.0319768  75.5944068  44.7328329  43.6010705  76.3621784
  43.8106088  43.2021653  75.2298105  36.1679225  34.7944755  67.3191453
  35.2376813  34.7329210  67.5361415  36.2636697  34.2720707  66.5228094
  36.0864774  31.3199567  69.9069694  36.3471592  32.2344901  69.7978855
  36.9081947  30.8524010  70.0566307  37.5589700  32.7337325  77.0768519
  38.2312753  32.5254687  76.4281168  36.7319486  32.5359411  76.6373751
  51.8078961  39.4741375  76.5943852  52.0014851  40.3787185  76.8403127
  51.7079579  39.0148794  77.4282437  43.4615272  29.3599265  79.0934180
  42.8143187  30.0589215  78.9998656  44.2316287  29.7935409  79.4610428
  46.8694070  39.6248118  82.1684733  46.7179576  39.3958669  81.2514817
  46.8598749  40.5818719  82.1816078  43.6379406  37.1980030  77.1530999
  44.5671466  37.3491190  76.9799967  43.2170436  37.2864051  76.2979646
  42.4367738  41.2230695  74.9229537  42.2978824  40.8549479  75.7955475
  41.6482334  41.7378334  74.7513495  43.9872953  40.6012298  72.3118375
  43.6522786  40.5613067  73.2076025  43.4876899  39.9357013  71.8388785
  37.9617197  36.0079928  77.8370956  37.8236995  35.2760166  78.4382495
  38.8722120  35.9188828  77.5555144  40.5899498  35.7199887  77.3254636
  41.2999116  35.0793079  77.2841254  40.5468806  35.9712782  78.2480816
  48.5786276  42.6567240  80.2461215  48.5198822  41.9726460  79.5791798
  48.9805795  43.3986230  79.7941841  39.3028432  32.7065105  79.1450275
  38.7665789  32.2555843  79.7971872  38.7145140  32.8411014  78.4020740
  37.5976975  49.4729154  73.0394934  37.8373573  50.1047678  73.7173952
  36.7546172  49.1217194  73.3260293  38.7130691  32.1653756  61.7076739
  37.8360157  32.0442557  61.3438986  39.1888444  31.3739834  61.4555627
  48.5803684  40.6206824  78.4775195  47.6930462  40.2832746  78.6001593
  49.1502235  39.8889855  78.7143960  30.2332831  36.9530916  71.8018246
  30.9203871  36.6392646  71.2139261  30.0780959  37.8572281  71.5285497
  35.0367553  31.8421112  76.2303270  34.9525742  31.2346782  75.4953680
  34.2150259  32.3330131  76.2312766  42.1104837  45.2808276  75.4436438
  42.0375008  46.0863248  75.9555742  41.6682230  45.4800242  74.6184459
  41.8994617  44.5180047  68.9539259  41.1162138  45.0601727  69.0477484
  42.5987362  45.0354026  69.3533501  45.2091267  30.3274676  71.5973465
  45.7059966  29.5744638  71.2774535  44.4378248  30.3638993  71.0316674
  53.0621024  36.0315042  73.2391756  53.0510900  36.9139757  72.8685689
  52.1938404  35.6786592  73.0446293  44.5703520  45.1795111  77.5994596
  45.2831493  45.8142575  77.5270498  44.0793549  45.2758977  76.7834598
  46.2921047  39.0846363  69.1711888  45.3577326  39.2047826  69.0016592
  46.4697716  38.1818830  68.9071898  41.7926235  32.4692059  71.3245149
  41.4224023  31.9163099  72.0126055  42.2885328  31.8650192  70.7720149
  49.6793599  34.9263682  69.7061922  50.1454051  35.7591674  69.6322225
  50.1301099  34.4608664  70.4107181  39.6215434  42.9289554  78.4200167
  40.3224894  43.5626037  78.5729561  39.1510549  43.2704286  77.6595807
  47.6510261  27.2944269  73.7452824  46.7373341  27.5248496  73.9135031
  48.0803363  27.3782714  74.5966856  47.4216720  35.4834161  76.2452718
  46.7688170  35.7310069  75.5905170  47.7997100  34.6698300  75.9115195
  43.4704293  36.2253972  82.7318755  42.7944930  36.1248102  83.4021130
  44.2931927  36.0693186  83.1954752  35.2183152  42.4625909  75.3531270
  35.8036589  41.7169597  75.4859174  35.0207991  42.7729866  76.2367934
  38.0721807  45.4977156  70.3693712  37.4032183  45.9823284  69.8857752
  37.9334677  45.7446377  71.2837091  29.8100807  35.0331509  74.0735713
  29.8484906  34.4995100  74.8672831  29.3041100  34.5066715  73.4546690
  42.2127076  47.5320900  76.9676371  42.7645384  47.6952521  77.7325456
  42.5533269  48.1225338  76.2956396  37.1891569  29.8796050  77.5698255
  37.2532896  30.7410881  77.1575653  37.1258689  29.2670051  76.8370614
  36.6643842  31.9519182  81.2171290  37.2915880  31.5696260  81.8308814
  35.8071761  31.7333384  81.5826982  47.0637950  42.3582157  82.8225025
  47.6077854  42.9712116  82.3279980  46.4824795  42.9161736  83.3392038
  33.4409384  33.7595611  67.1489644  33.7362825  32.8506290  67.0956698
  32.5397420  33.7383351  66.8270647  45.3495463  45.4802875  73.9540053
  45.2246603  44.6792615  73.4450998  46.0074554  45.9749069  73.4654023
  36.9703631  31.8351608  73.1317193  36.2490217  32.4487576  72.9924666
  37.7596887  32.3709373  73.0533839  47.4130372  43.2811896  75.5819603
  46.4660707  43.1617247  75.5097930  47.7613145  42.3934394  75.6645864
  39.7729945  29.1706034  79.4057845  40.2964347  29.4168331  80.1684154
  39.5542278  30.0026069  78.9860982  35.1697226  31.4409709  67.2728970
  34.8409932  30.5607088  67.0904076  35.5236597  31.3857378  68.1605359
  44.4176805  43.0764612  71.7823955  44.2701767  42.1481319  71.9631525
  45.2430298  43.0984702  71.2981030  38.2839049  31.7282679  67.6404447
  38.6235122  32.2568600  66.9183056  38.7311170  32.0663085  68.4163014
  48.0210927  43.8993170  72.8688828  48.9457474  43.6936032  72.7313279
  47.8526230  43.6509572  73.7778169  40.9782490  30.1119730  77.0907515
  40.6379310  29.3127543  77.4928195  40.2721496  30.4121440  76.5184349
  41.6298962  27.1969042  75.5434838  42.4525031  26.7229520  75.4213729
  41.8737025  27.9759526  76.0433525  40.2707196  30.2257300  65.8397740
  40.9915559  30.6038553  65.3361457  39.6472500  30.9446177  65.9432718
  44.4138319  30.9302449  66.7756072  44.6301934  31.8127087  66.4744901
  43.9332386  30.5388663  66.0461714  39.1537541  33.8888163  73.3526817
  39.0082121  34.2028466  74.2451099  38.6762744  34.5073063  72.7997716
  41.0133923  30.8790711  73.4007707  40.9995492  29.9831804  73.0640005
  41.7306352  30.8861374  74.0345993  42.8660054  31.3128051  75.4460834
  42.6077832  32.2345121  75.4445164  42.3345095  30.9158485  76.1361298
  33.6283203  36.4293507  76.2914478  33.0836671  37.2053315  76.4234753
  34.5062553  36.7764312  76.1333600  40.4170819  29.7605091  68.6695277
  40.5386731  28.8321737  68.8686164  40.1272862  29.7743777  67.7573592
  43.2862010  27.4460001  71.8061997  43.3083707  27.5099334  70.8513976
  43.7030069  26.6064510  72.0002503  53.6645634  37.1815261  69.8441219
  54.1076780  36.4322586  69.4460342  52.7872144  37.1725397  69.4614951
  34.4149225  35.5563403  79.1844635  33.6730961  35.7046039  79.7709265
  34.0941969  35.8171669  78.3211384  42.3592887  45.0979382  78.9825025
  42.6680014  44.8528528  79.8547725  43.1568369  45.3026020  78.4943895
  42.3813499  47.2517291  71.2130402  41.9418490  46.7593670  71.9063258
  43.1321616  46.7090259  70.9722477  34.8605838  43.4428832  71.2155030
  35.6863858  43.1432604  70.8353673  34.5099890  42.6736454  71.6644818
  39.8287371  42.7955300  73.2852703  39.2067381  42.1326005  72.9854931
  40.4992238  42.8216432  72.6026351  33.0614443  41.3615158  72.1743963
  32.2246352  40.9337333  71.9927965  33.0338089  41.5547602  73.1114754
  39.9011899  31.2737088  82.8785209  39.9500054  32.1499211  82.4962979
  40.4434413  30.7314481  82.3056853  50.3866745  41.8178212  82.1586346
  49.5962288  41.8002350  81.6190846  50.1500099  42.3566505  82.9135383
  50.5064620  38.6670678  79.4719075  50.5562625  38.5020685  80.4134598
  50.3978543  37.7997937  79.0816956  39.3900878  41.3459224  66.7611164
  39.5388999  42.0294688  66.1077837  40.1967322  41.3264314  67.2760620
  47.7968382  34.6501606  80.7878382  48.6978245  34.5108071  80.4962379
  47.8716357  34.8156061  81.7276559  42.1311187  32.0268461  79.6331568
  41.2614497  32.3202027  79.3614157  42.3670668  32.6108906  80.3538832
  52.0082816  41.0867619  79.7161096  51.7167625  41.4497600  80.5524557
  51.3954948  40.3734628  79.5374429  53.2078499  38.6520499  72.2363667
  54.0425390  39.0910303  72.4001227  53.3437628  38.1759152  71.4171912
  50.2570005  36.2100234  78.1841154  50.7324126  36.4027880  77.3760006
  49.3335570  36.2659420  77.9384538  37.1453511  37.3724401  67.7672233
  36.8999553  36.4686731  67.9652443  37.3149426  37.3741552  66.8251711
  44.8350221  28.2448078  77.1496988  45.3532165  28.9809105  76.8243477
  44.4805354  28.5512071  77.9843747  36.4149159  33.1052759  65.2658394
  35.7218404  33.1797114  64.6098430  36.1700911  32.3413102  65.7879911
  45.0862815  24.6648360  72.6697885  45.3664569  23.9971549  73.2958311
  45.8713422  24.8577456  72.1572549  48.9571674  33.0865994  76.4169460
  49.9089097  33.1864092  76.4381684  48.7875124  32.2944263  76.9267544
  46.9786053  30.1721577  76.6028861  46.3835985  30.4526590  75.9075350
  46.6935750  30.6615478  77.3745602  51.4359751  36.3072114  75.5311760
  51.4036072  35.3688115  75.7171444  52.0460375  36.3856151  74.7977585
  43.2743082  35.1768167  61.5738964  44.2202187  35.0474375  61.6427382
  42.8957327  34.4382829  62.0508392  51.5854240  33.0983157  75.5770043
  51.0693289  32.3141614  75.3899972  52.4694188  32.7701874  75.7416562
  49.2464967  26.8424173  71.5365856  49.0489788  26.5339261  72.4209188
  49.8564672  27.5685812  71.6663785  57.2536301  37.3688121  74.6717797
  57.9839690  37.1073409  75.2325500  56.6443247  36.6316843  74.7119864
  55.3351598  35.5095983  75.2692248  54.6084762  35.3751948  74.6608739
  54.9198885  35.8172812  76.0748966  43.1581775  39.2285913  83.0339621
  44.0784784  39.4064512  83.2279667  43.1231358  38.2841958  82.8819320
  41.4586000  33.1018143  61.5093849  40.5517455  32.8051256  61.5856563
  41.7361981  32.8047961  60.6428135  32.3763940  34.4224507  71.9592895
  32.0566724  33.5689815  71.6667269  31.8297368  34.6373085  72.7150863
  36.1543847  37.1386948  75.6762402  36.3729857  38.0704055  75.6950436
  36.5669621  36.7794922  76.4617206  43.0748065  27.6455033  67.6638090
  42.2648794  27.3002118  68.0393336  43.7632482  27.3362577  68.2525702
  45.0038614  26.7233080  69.2862387  45.5569652  27.1428533  69.9452410
  45.2408700  25.7968828  69.3285343  41.0271713  32.7120153  85.0665151
  40.9268440  33.6614510  84.9977242  40.8093255  32.3838392  84.1941221
  40.2284784  29.9605078  61.6505828  41.0903948  30.2859977  61.9101646
  40.4135128  29.1736574  61.1378894  32.2452200  38.0427418  73.9286017
  31.5515671  37.6281371  73.4155971  32.9925191  38.0847955  73.3319436
  48.3817421  28.8333605  68.7941051  47.8016090  29.4918409  68.4119104
  48.1153353  28.0110949  68.3828469  46.8320987  28.2338663  70.9962372
  47.3320765  28.3455197  70.1876690  47.4756595  27.9299715  71.6363180
  40.8902983  36.1417292  83.8830212  40.4070065  36.9417652  84.0894102
  40.9763922  36.1525237  82.9297656  34.1588942  37.9745672  71.8052032
  34.1359631  38.0733359  70.8533915  34.4689579  38.8210823  72.1269198
  36.8176320  40.0321827  75.9198646  37.7719574  40.0005769  75.8528578
  36.6188844  39.5712451  76.7348872  37.4075702  38.6022943  78.4869444
  38.2268591  39.0967022  78.5104281  37.6812510  37.6854911  78.4587011
  47.1642299  30.9933695  67.8497399  46.2768154  31.2783346  67.6317594
  47.5796288  30.8327459  67.0024676  50.5156835  31.0180216  71.5651739
  51.2917225  31.5076669  71.8376356  49.7904969  31.4438270  72.0223608
  52.9529393  31.7307835  72.6225679  53.5473884  31.4903571  71.9118988
  53.0255977  31.0114966  73.2499216  35.1726549  45.5741446  72.9368844
  35.0381017  44.8141847  72.3706842  34.7558611  46.2982346  72.4697633
  47.1383322  36.5088231  68.0647690  47.0818524  36.9656783  67.2255322
  47.6911665  35.7478916  67.8870532  50.9488128  32.2977963  68.8897809
  50.6925063  31.8974599  69.7206017  50.3240996  33.0121757  68.7647948
  55.2600466  35.0374036  71.3969100  54.7000024  35.1067226  72.1700663
  54.6543969  34.8615021  70.6768597  38.3295675  46.4710763  73.1487287
  38.2128059  47.4156196  73.0465977  37.5088121  46.1684325  73.5373086
  32.6610617  32.9361077  79.1861641  33.3069480  32.4260031  79.6748866
  32.4527768  33.6729758  79.7605066  45.1864009  40.0041924  84.6853782
  46.0555168  40.1782577  84.3240416  44.7070760  40.8236341  84.5629511
  41.1814227  27.2001121  64.9385537  41.1692897  28.1442961  65.0953808
  42.0737649  27.0171267  64.6444998  39.3550189  47.1239025  76.3643215
  40.2577436  47.1562636  76.6809710  39.1287559  46.1939476  76.3789551
  41.1103791  45.8770012  73.0253294  40.1599422  45.8771873  72.9117666
  41.4136277  45.1302746  72.5089328  44.9966347  23.7943898  69.1931474
  44.2298742  23.2402385  69.3388156  45.4077052  23.8665767  70.0545626
  37.0008108  30.0828694  83.2836655  37.8639569  29.7265499  83.4939980
  36.4273518  29.7442589  83.9712059  56.8456485  51.7130550  74.0899056
  57.4834895  51.5937298  73.3862396  56.7277327  52.6611394  74.1487008
  53.6546191  51.6657978  74.0260581  53.3164702  51.5499043  73.1381116
  54.5235959  51.2649143  74.0061587  54.1365974  52.8192830  79.9846786
  54.1254615  52.4245628  79.1127290  54.2986613  52.0858903  80.5780558
  47.0597438  55.0144646  72.8541692  47.8518730  54.6735471  72.4387992
  47.2994089  55.1239621  73.7743846  50.8573235  55.6029942  78.9325970
  50.5663101  56.5075573  78.8172637  51.4930219  55.6446469  79.6470040
  51.7829442  52.9806790  75.5227330  52.3793014  52.7562813  74.8084293
  51.8404413  52.2391536  76.1252778  56.3997753  49.4382004  71.1652264
  57.1860842  49.0201427  70.8142681  56.6636457  50.3428096  71.3333913
  59.3231601  43.0878811  76.5279851  58.9914925  43.9574222  76.3041066
  58.7277214  42.7715095  77.2073882  55.8163120  55.2891357  75.9275764
  55.5163843  56.1916396  75.8191571  55.4714180  55.0223541  76.7796917
  59.2160264  47.8073898  73.6073201  58.3077141  47.7389306  73.3131962
  59.1647860  48.2845842  74.4355027  46.6284413  51.3838428  72.7956258
  46.7576794  51.6372907  73.7095669  45.9481864  51.9766136  72.4760913
  50.7983900  62.0535678  68.8946732  50.7207930  63.0043503  68.9735212
  50.1945543  61.7081550  69.5521658  53.2901130  49.2263543  81.5508099
  52.5134464  49.7857463  81.5410963  53.9291693  49.7120326  82.0722969
  61.0821910  46.0090336  75.3851075  60.4396291  46.3022869  74.7390870
  60.5776839  45.8943256  76.1904272  51.5447502  52.0348997  81.1126066
  52.2862186  52.5734040  80.8360889  50.8384487  52.6615285  81.2697617
  57.0202842  54.1778137  79.7098227  57.4286198  53.7360548  78.9652860
  56.2980103  53.6030764  79.9632420  53.3733912  49.1150744  77.0831784
  54.2195107  49.5390157  77.2266433  53.3132549  48.4584368  77.7770347
  57.3431656  54.7379328  73.4650516  56.7140519  54.9025042  72.7626584
  56.9557318  55.1520937  74.2361480  61.2220888  55.6733765  70.8194880
  60.5371926  56.0532667  70.2691913  61.3064737  56.2829092  71.5526828
  56.5233357  46.7755112  78.7412958  56.2794289  47.5297173  78.2047233
  56.7993287  47.1540460  79.5760205  58.4771820  53.3193724  77.4190223
  58.6888715  53.9625484  76.7424604  58.4301568  52.4856041  76.9512153
  56.0798049  45.9311545  74.3226796  55.2182528  46.2292799  74.6143533
  56.1060483  46.1481944  73.3907828  49.7883699  54.0225217  73.6680364
  50.3585056  54.4512486  73.0297849  50.3791811  53.7407802  74.3664550
  50.2808866  49.1888645  81.9141376  49.6507526  49.8704926  82.1476773
  50.1744954  49.0771726  80.9694514  45.5753838  48.8560441  72.8407300
  44.7852892  49.1117969  72.3647410  46.0665086  49.6708779  72.9459340
  59.5917648  56.1965680  75.5912581  60.4135091  55.7945867  75.3095262
  59.5880051  56.0933914  76.5428697  53.3574251  55.7449723  77.7473291
  53.4218684  56.2070130  78.5831463  52.6485175  55.1147088  77.8755601
  43.8591541  49.1090931  75.2722291  44.1099580  49.9937941  75.5379867
  44.3951090  48.9295533  74.4997383  49.5589608  43.4909411  84.2766627
  49.1656554  42.9375609  84.9514271  50.3755749  43.8019989  84.6673144
  48.3346551  58.0459025  70.2702950  48.5113179  58.9676990  70.0823934
  49.1303384  57.7317444  70.6997330  52.4757569  44.9067290  81.8686883
  53.2167283  45.5074443  81.7891346  52.7075492  44.1644927  81.3104926
  47.6198907  50.0923657  80.1465113  47.5052423  49.1908914  80.4472212
  46.7643425  50.3387354  79.7949930  54.6990745  58.0341397  81.7452614
  54.2554599  57.2477776  81.4273518  55.3607959  58.2220548  81.0796504
  49.4577866  59.5637199  76.2713292  50.0085291  59.4354262  75.4990286
  48.6189342  59.8632088  75.9208185  56.7971983  58.3144197  79.7734015
  56.7790459  59.1353078  79.2814284  57.7191903  58.1898272  79.9984156
  53.2545037  55.8288327  80.6157523  53.7873374  55.0676615  80.3856831
  52.7259118  55.5361978  81.3581678  56.4214732  40.9348393  76.1451165
  56.0779002  41.8250034  76.0690276  56.7893695  40.7450050  75.2820750
  55.5011273  43.3053048  74.1100398  54.9976068  43.2683183  73.2968204
  55.7941880  44.2145790  74.1697055  51.7454159  43.3891777  73.1166580
  52.6107155  43.1934586  72.7572469  51.8131668  43.1602129  74.0435937
  58.4096055  51.5067712  71.2947323  58.9227937  52.1397704  71.7969033
  59.0597279  50.9068908  70.9290683  54.8876886  48.9817168  73.5405664
  53.9699447  49.2032115  73.3827352  55.3037029  49.0563478  72.6817371
  58.1190771  47.4165700  70.6527133  57.3813527  46.9043086  70.9837376
  58.3717544  46.9766081  69.8410410  57.6190790  58.3250210  70.3576284
  57.9113765  58.8855268  69.6388650  58.1289411  58.6178771  71.1129443
  58.2202398  40.1941952  71.2468903  58.5261275  39.3339315  70.9594818
  58.9455003  40.7859572  71.0467897  52.5824416  59.1030561  71.4469737
  52.5400594  59.3291408  70.5178269  53.4987114  58.8693936  71.5955538
  56.0290049  49.5714629  78.3450367  56.3839437  49.7986102  79.2044832
  56.6762181  49.9033006  77.7227622  49.9229912  46.6791160  75.1296708
  50.5629292  46.5379919  74.4319671  49.0907443  46.3925673  74.7535310
  61.7857166  54.7609592  74.0610967  62.2193673  54.6684881  74.9094021
  62.4988747  54.7367092  73.4230983  55.5185061  58.3611686  75.5944068
  55.5722083  58.9302622  76.3621784  54.6499842  58.5313571  75.2298105
  48.3983454  48.0629242  77.0768519  49.0706508  47.8546604  76.4281168
  47.5713241  47.8651328  76.6373751  62.6472715  54.8033293  76.5943852
  62.8408606  55.7079103  76.8403127  62.5473334  54.3440712  77.4282437
  54.3009026  44.6891183  79.0934180  53.6536941  45.3881133  78.9998656
  55.0710042  45.1227327  79.4610428  57.7087824  54.9540035  82.1684733
  57.5573331  54.7250587  81.2514817  57.6992504  55.9110637  82.1816078
  54.4773161  52.5271948  77.1530999  55.4065221  52.6783108  76.9799967
  54.0564191  52.6155969  76.2979646  53.2761492  56.5522612  74.9229537
  53.1372578  56.1841397  75.7955475  52.4876089  57.0670252  74.7513495
  48.8010951  51.3371845  77.8370956  48.6630749  50.6052084  78.4382495
  49.7115875  51.2480745  77.5555144  51.4293252  51.0491805  77.3254636
  52.1392871  50.4084997  77.2841254  51.3862560  51.3004699  78.2480816
  59.4180031  57.9859158  80.2461215  59.3592577  57.3018378  79.5791798
  59.8199549  58.7278148  79.7941841  50.1422186  48.0357022  79.1450275
  49.6059543  47.5847761  79.7971872  49.5538895  48.1702931  78.4020740
  48.4370730  64.8021072  73.0394934  48.6767328  65.4339596  73.7173952
  47.5939926  64.4509112  73.3260293  59.4197438  55.9498742  78.4775195
  58.5324217  55.6124664  78.6001593  59.9895989  55.2181773  78.7143960
  41.0726585  52.2822834  71.8018246  41.7597625  51.9684564  71.2139261
  40.9174714  53.1864198  71.5285497  45.8761307  47.1713030  76.2303270
  45.7919496  46.5638700  75.4953680  45.0544014  47.6622048  76.2312766
  52.9498591  60.6100194  75.4436438  52.8768763  61.4155166  75.9555742
  52.5075985  60.8092160  74.6184459  56.0485021  45.6566594  71.5973465
  56.5453721  44.9036556  71.2774535  55.2772003  45.6930910  71.0316674
  55.4097275  60.5087028  77.5994596  56.1225247  61.1434493  77.5270498
  54.9187304  60.6050894  76.7834598  50.4609189  58.2581472  78.4200167
  51.1618648  58.8917955  78.5729561  49.9904304  58.5996203  77.6595807
  58.4904016  42.6236187  73.7452824  57.5767096  42.8540414  73.9135031
  58.9197117  42.7074631  74.5966856  58.2610474  50.8126079  76.2452718
  57.6081925  51.0601987  75.5905170  58.6390854  49.9990217  75.9115195
  55.2217648  60.8485772  70.3480888  55.4040043  60.0307428  70.8108640
  56.0450634  61.0653465  69.9105778  54.3098048  51.5545890  82.7318755
  53.6338685  51.4540020  83.4021130  55.1325681  51.3985104  83.1954752
  46.0576907  57.7917827  75.3531270  46.6430343  57.0461515  75.4859174
  45.8601745  58.1021783  76.2367934  48.9115562  60.8269074  70.3693712
  48.2425937  61.3115202  69.8857752  48.7728431  61.0738295  71.2837091
  40.6494561  50.3623427  74.0735713  40.6878661  49.8287018  74.8672831
  40.1434854  49.8358632  73.4546690  53.0520830  62.8612818  76.9676371
  53.6039138  63.0244439  77.7325456  53.3927024  63.4517255  76.2956396
  48.0285324  45.2087967  77.5698255  48.0926650  46.0702798  77.1575653
  47.9652444  44.5961969  76.8370614  47.5037596  47.2811100  81.2171290
  48.1309635  46.8988177  81.8308814  46.6465515  47.0625302  81.5826982
  57.9031705  57.6874075  82.8225025  58.4471609  58.3004033  82.3279980
  57.3218550  58.2453654  83.3392038  56.1889218  60.8094793  73.9540053
  56.0640357  60.0084533  73.4450998  56.8468309  61.3040987  73.4654023
  47.8097386  47.1643526  73.1317193  47.0883972  47.7779493  72.9924666
  48.5990642  47.7001290  73.0533839  58.2524126  58.6103813  75.5819603
  57.3054462  58.4909164  75.5097930  58.6006899  57.7226311  75.6645864
  50.6123699  44.4997952  79.4057845  51.1358101  44.7460249  80.1684154
  50.3936033  45.3317987  78.9860982  55.2570559  58.4056529  71.7823955
  55.1095522  57.4773237  71.9631525  56.0824053  58.4276620  71.2981030
  58.8604681  59.2285088  72.8688828  59.7851229  59.0227950  72.7313279
  58.6919985  58.9801489  73.7778169  51.8176244  45.4411647  77.0907515
  51.4773065  44.6419460  77.4928195  51.1115251  45.7413358  76.5184349
  52.4692716  42.5260960  75.5434838  53.2918786  42.0521438  75.4213729
  52.7130780  43.3051443  76.0433525  49.9931295  49.2180080  73.3526817
  49.8475876  49.5320383  74.2451099  49.5156499  49.8364981  72.7997716
  51.8527678  46.2082628  73.4007707  51.8389247  45.3123722  73.0640005
  52.5700106  46.2153292  74.0345993  53.7053809  46.6419969  75.4460834
  53.4471586  47.5637039  75.4445164  53.1738849  46.2450403  76.1361298
  58.6499997  59.7470756  68.2250919  58.8236875  59.1817178  67.4724772
  59.1428889  60.5471651  68.0430409  44.4676957  51.7585425  76.2914478
  43.9230425  52.5345233  76.4234753  45.3456307  52.1056229  76.1333600
  54.1255764  42.7751919  71.8061997  54.1477461  42.8391252  70.8513976
  54.5423823  41.9356428  72.0002503  45.2542979  50.8855321  79.1844635
  44.5124715  51.0337956  79.7709265  44.9335723  51.1463587  78.3211384
  53.1986642  60.4271299  78.9825025  53.5073768  60.1820446  79.8547725
  53.9962124  60.6317938  78.4943895  53.2207254  62.5809209  71.2130402
  52.7812244  62.0885588  71.9063258  53.9715371  62.0382177  70.9722477
  45.6999593  58.7720750  71.2155030  46.5257613  58.4724522  70.8353673
  45.3493645  58.0028372  71.6644818  50.6681126  58.1247218  73.2852703
  50.0461135  57.4617923  72.9854931  51.3385993  58.1508350  72.6026351
  43.9008198  56.6907076  72.1743963  43.0640106  56.2629251  71.9927965
  43.8731843  56.8839520  73.1114754  50.7405653  46.6029006  82.8785209
  50.7893809  47.4791129  82.4962979  51.2828168  46.0606399  82.3056853
  61.2260499  57.1470129  82.1586346  60.4356043  57.1294268  81.6190846
  60.9893854  57.6858423  82.9135383  61.3458374  53.9962596  79.4719075
  61.3956379  53.8312603  80.4134598  61.2372297  53.1289855  79.0816956
  50.2294633  56.6751141  66.7611164  50.3782753  57.3586606  66.1077837
  51.0361076  56.6556231  67.2760620  58.6362137  49.9793524  80.7878382
  59.5371999  49.8399988  80.4962379  58.7110111  50.1447978  81.7276559
  52.9704942  47.3560378  79.6331568  52.1008251  47.6493944  79.3614157
  53.2064422  47.9400823  80.3538832  62.8476571  56.4159537  79.7161096
  62.5561379  56.7789518  80.5524557  62.2348702  55.7026545  79.5374429
  61.0963759  51.5392152  78.1841154  61.5717881  51.7319798  77.3760006
  60.1729325  51.5951338  77.9384538  55.6743976  43.5739995  77.1496988
  56.1925920  44.3101022  76.8243477  55.3199108  43.8803989  77.9843747
  55.9256570  39.9940278  72.6697885  56.2058324  39.3263467  73.2958311
  56.7107177  40.1869373  72.1572549  59.7965428  48.4157912  76.4169460
  60.7482851  48.5156009  76.4381684  59.6268879  47.6236180  76.9267544
  57.8179808  45.5013495  76.6028861  57.2229740  45.7818508  75.9075350
  57.5329504  45.9907396  77.3745602  60.0858721  42.1716091  71.5365856
  59.8883543  41.8631179  72.4209188  60.6958427  42.8977729  71.6663785
  53.9975529  54.5577831  83.0339621  54.9178539  54.7356430  83.2279667
  53.9625112  53.6133876  82.8819320  43.2157694  49.7516424  71.9592895
  42.8960479  48.8981732  71.6667269  42.6691123  49.9665002  72.7150863
  46.9937602  52.4678865  75.6762402  47.2123612  53.3995973  75.6950436
  47.4063376  52.1086840  76.4617206  55.8432368  42.0524997  69.2862387
  56.3963407  42.4720451  69.9452410  56.0802454  41.1260745  69.3285343
  51.8665467  48.0412071  85.0665151  51.7662194  48.9906428  84.9977242
  51.6487009  47.7130310  84.1941221  43.0845954  53.3719336  73.9286017
  42.3909426  52.9573289  73.4155971  43.8318945  53.4139872  73.3319436
  59.2211175  44.1625523  68.7941051  58.6409844  44.8210327  68.4119104
  58.9547108  43.3402867  68.3828469  57.6714741  43.5630580  70.9962372
  58.1714520  43.6747115  70.1876690  58.3150349  43.2591633  71.6363180
  51.7296737  51.4709210  83.8830212  51.2463819  52.2709570  84.0894102
  51.8157676  51.4817155  82.9297656  44.9982697  53.3037590  71.8052032
  44.9753385  53.4025277  70.8533915  45.3083333  54.1502740  72.1269198
  47.6570075  55.3613745  75.9198646  48.6113328  55.3297687  75.8528578
  47.4582598  54.9004368  76.7348872  48.2469457  53.9314861  78.4869444
  49.0662346  54.4258939  78.5104281  48.5206265  53.0146829  78.4587011
  61.3550589  46.3472134  71.5651739  62.1310979  46.8368586  71.8376356
  60.6298723  46.7730188  72.0223608  46.0120304  60.9033364  72.9368844
  45.8774771  60.1433765  72.3706842  45.5952366  61.6274264  72.4697633
  49.1689429  61.8002681  73.1487287  49.0521814  62.7448114  73.0465977
  48.3481876  61.4976243  73.5373086  43.5004371  48.2652994  79.1861641
  44.1463235  47.7551948  79.6748866  43.2921522  49.0021676  79.7605066
  56.0257763  55.3333842  84.6853782  56.8948923  55.5074494  84.3240416
  55.5464515  56.1528259  84.5629511  50.1943944  62.4530943  76.3643215
  51.0971190  62.4854553  76.6809710  49.9681314  61.5231394  76.3789551
  51.9497546  61.2061930  73.0253294  50.9993177  61.2063791  72.9117666
  52.2530032  60.4594664  72.5089328  55.8360101  39.1235816  69.1931474
  55.0692497  38.5694302  69.3388156  56.2470806  39.1957685  70.0545626
  47.8401862  45.4120612  83.2836655  48.7033324  45.0557416  83.4939980
  47.2667273  45.0734506  83.9712059  61.6966989  70.9321860  78.9325970
  61.4056855  71.8367490  78.8172637  62.3323974  70.9738387  79.6470040
  70.1625355  58.4170729  76.5279851  69.8308680  59.2866140  76.3041066
  69.5670968  58.1007013  77.2073882  61.6377654  77.3827595  68.8946732
  61.5601684  78.3335420  68.9735212  61.0339298  77.0373468  69.5521658
  64.1294884  64.5555461  81.5508099  63.3528218  65.1149381  81.5410963
  64.7685447  65.0412244  82.0722969  62.3841256  67.3640914  81.1126066
  63.1255941  67.9025958  80.8360889  61.6778242  67.9907203  81.2697617
  61.1202620  64.5180562  81.9141376  60.4901281  65.1996843  82.1476773
  61.0138708  64.4063644  80.9694514  56.4147593  64.1852358  72.8407300
  55.6246647  64.4409887  72.3647410  56.9058840  65.0000696  72.9459340
  58.3662338  64.5496938  69.7990777  57.5693501  64.6615632  70.3174272
  58.1387930  64.8883590  68.9331667  54.6985296  64.4382849  75.2722291
  54.9493334  65.3229859  75.5379867  55.2344844  64.2587450  74.4997383
  63.9116023  72.7409748  67.6152272  63.7761698  73.5861284  68.0437119
  64.4525836  72.9429026  66.8518205  60.3983363  58.8201328  84.2766627
  60.0050308  58.2667527  84.9514271  61.2149503  59.1311907  84.6673144
  63.3151324  60.2359207  81.8686883  64.0561037  60.8366360  81.7891346
  63.5469247  59.4936845  81.3104926  58.4592662  65.4215575  80.1465113
  58.3446177  64.5200832  80.4472212  57.6037180  65.6679271  79.7949930
  65.5384500  73.3633315  81.7452614  65.0948354  72.5769693  81.4273518
  66.2001713  73.5512465  81.0796504  60.2971621  74.8929116  76.2713292
  60.8479046  74.7646180  75.4990286  59.4583097  75.1924005  75.9208185
  67.6365738  73.6436115  79.7734015  67.6184213  74.4644996  79.2814284
  68.5585658  73.5190190  79.9984156  64.0938792  71.1580244  80.6157523
  64.6267129  70.3968532  80.3856831  63.5652873  70.8653896  81.3581678
  67.2608487  56.2640310  76.1451165  66.9172756  57.1541952  76.0690276
  67.6287449  56.0741968  75.2820750  66.3405027  58.6344965  74.1100398
  65.8369823  58.5975101  73.2968204  66.6335634  59.5437708  74.1697055
  62.5847913  58.7183695  73.1166580  63.4500910  58.5226504  72.7572469
  62.6525422  58.4894047  74.0435937  55.3520509  65.9264556  69.6350501
  55.1544908  65.3333917  68.9101567  54.7967173  65.6216766  70.3526439
  57.7652283  61.9783403  69.9069694  58.0259101  62.8928736  69.7978855
  58.5869456  61.5107845  70.0566307  59.2377209  63.3921160  77.0768519
  59.9100262  63.1838522  76.4281168  58.4106995  63.1943246  76.6373751
  68.5481579  70.2831953  82.1684733  68.3967085  70.0542505  81.2514817
  68.5386258  71.2402554  82.1816078  59.6404706  66.6663763  77.8370956
  59.5024504  65.9344002  78.4382495  60.5509629  66.5772663  77.5555144
  70.2573785  73.3151076  80.2461215  70.1986331  72.6310296  79.5791798
  70.6593304  74.0570066  79.7941841  60.9815941  63.3648940  79.1450275
  60.4453298  62.9139679  79.7971872  60.3932649  63.4994849  78.4020740
  59.2764484  80.1312989  73.0394934  59.5161082  80.7631514  73.7173952
  58.4333681  79.7801029  73.3260293  51.9120340  67.6114751  71.8018246
  52.5991380  67.2976481  71.2139261  51.7568468  68.5156116  71.5285497
  56.7155062  62.5004948  76.2303270  56.6313251  61.8930617  75.4953680
  55.8937768  62.9913966  76.2312766  63.7892346  75.9392112  75.4436438
  63.7162517  76.7447083  75.9555742  63.3469739  76.1384078  74.6184459
  63.5782126  75.1763882  68.9539259  62.7949647  75.7185562  69.0477484
  64.2774871  75.6937862  69.3533501  66.2491029  75.8378946  77.5994596
  66.9619002  76.4726411  77.5270498  65.7581058  75.9342812  76.7834598
  61.3002943  73.5873389  78.4200167  62.0012402  74.2209872  78.5729561
  60.8298058  73.9288121  77.6595807  69.3297770  57.9528105  73.7452824
  68.4160850  58.1832332  73.9135031  69.7590872  58.0366549  74.5966856
  66.0611403  76.1777690  70.3480888  66.2433797  75.3599346  70.8108640
  66.8844389  76.3945382  69.9105778  65.1491802  66.8837808  82.7318755
  64.4732439  66.7831937  83.4021130  65.9719436  66.7277022  83.1954752
  56.8970661  73.1209744  75.3531270  57.4824098  72.3753432  75.4859174
  56.6995500  73.4313701  76.2367934  59.7509316  76.1560992  70.3693712
  59.0819692  76.6407119  69.8857752  59.6122186  76.4030212  71.2837091
  51.4888316  65.6915345  74.0735713  51.5272415  65.1578935  74.8672831
  50.9828609  65.1650550  73.4546690  63.8914585  78.1904735  76.9676371
  64.4432893  78.3536357  77.7325456  64.2320778  78.7809173  76.2956396
  58.8679078  60.5379885  77.5698255  58.9320405  61.3994716  77.1575653
  58.8046198  59.9253887  76.8370614  58.3431351  62.6103018  81.2171290
  58.9703389  62.2280095  81.8308814  57.4859269  62.3917220  81.5826982
  68.7425459  73.0165993  82.8225025  69.2865363  73.6295951  82.3279980
  68.1612304  73.5745571  83.3392038  55.1196893  64.4179447  67.1489644
  55.4150334  63.5090125  67.0956698  54.2184929  64.3967186  66.8270647
  67.0282972  76.1386711  73.9540053  66.9034112  75.3376451  73.4450998
  67.6862063  76.6332904  73.4654023  61.4517454  59.8289870  79.4057845
  61.9751856  60.0752166  80.1684154  61.2329787  60.6609905  78.9860982
  56.8484735  62.0993544  67.2728970  56.5197441  61.2190923  67.0904076
  57.2024106  62.0441213  68.1605359  69.6998436  74.5577006  72.8688828
  70.6244983  74.3519867  72.7313279  69.5313739  74.3093407  73.7778169
  63.3086471  57.8552877  75.5434838  64.1312540  57.3813356  75.4213729
  63.5524534  58.6343361  76.0433525  69.4893752  75.0762673  68.2250919
  69.6630629  74.5109096  67.4724772  69.9822643  75.8763568  68.0430409
  55.3070712  67.0877342  76.2914478  54.7624180  67.8637150  76.4234753
  56.1850062  67.4348147  76.1333600  56.0936734  66.2147239  79.1844635
  55.3518470  66.3629874  79.7709265  55.7729478  66.4755504  78.3211384
  72.3760347  71.8429143  66.8535148  72.9011672  72.1816416  66.1284468
  72.2882700  70.9076159  66.6698283  64.0380396  75.7563217  78.9825025
  64.3467523  75.5112364  79.8547725  64.8355878  75.9609855  78.4943895
  64.0601008  77.9101127  71.2130402  63.6205999  77.4177505  71.9063258
  64.8109125  77.3674094  70.9722477  61.5799408  61.9320924  82.8785209
  61.6287563  62.8083046  82.4962979  62.1221922  61.3898317  82.3056853
  72.0654254  72.4762047  82.1586346  71.2749797  72.4586186  81.6190846
  71.8287608  73.0150341  82.9135383  73.6870325  71.7451455  79.7161096
  73.3955134  72.1081435  80.5524557  73.0742457  71.0318463  79.5374429
  66.5137730  58.9031913  77.1496988  67.0319674  59.6392940  76.8243477
  66.1592863  59.2095906  77.9843747  66.7650324  55.3232196  72.6697885
  67.0452078  54.6555385  73.2958311  67.5500931  55.5161291  72.1572549
  64.8369284  69.8869748  83.0339621  65.7572293  70.0648347  83.2279667
  64.8018867  68.9425794  82.8819320  54.0551449  65.0808342  71.9592895
  53.7354233  64.2273650  71.6667269  53.5084877  65.2956920  72.7150863
  57.8331356  67.7970783  75.6762402  58.0517366  68.7287891  75.6950436
  58.2457130  67.4378757  76.4617206  62.7059222  63.3703989  85.0665151
  62.6055949  64.3198346  84.9977242  62.4880764  63.0422228  84.1941221
  53.9239709  68.7011253  73.9286017  53.2303180  68.2865206  73.4155971
  54.6712700  68.7431790  73.3319436  62.5690492  66.8001128  83.8830212
  62.0857573  67.6001488  84.0894102  62.6551431  66.8109072  82.9297656
  58.4963829  70.6905662  75.9198646  59.4507083  70.6589605  75.8528578
  58.2976353  70.2296286  76.7348872  59.0863211  69.2606778  78.4869444
  59.9056100  69.7550857  78.5104281  59.3600019  68.3438746  78.4587011
  56.8514058  76.2325282  72.9368844  56.7168526  75.4725683  72.3706842
  56.4346120  76.9566182  72.4697633  60.0083184  77.1294599  73.1487287
  59.8915568  78.0740031  73.0465977  59.1875630  76.8268160  73.5373086
  54.3398126  63.5944912  79.1861641  54.9856989  63.0843866  79.6748866
  54.1315277  64.3313594  79.7605066  66.8651518  70.6625760  84.6853782
  67.7342677  70.8366412  84.3240416  66.3858269  71.4820176  84.5629511
  61.0337698  77.7822861  76.3643215  61.9364945  77.8146471  76.6809710
  60.8075068  76.8523312  76.3789551  62.7891300  76.5353847  73.0253294
  61.8386931  76.5355709  72.9117666  63.0923786  75.7886582  72.5089328
  58.6795617  60.7412529  83.2836655  59.5427078  60.3849334  83.4939980
  58.1061027  60.4026424  83.9712059  78.5243994  82.3714386  74.0899056
  79.1622404  82.2521133  73.3862396  78.4064836  83.3195230  74.1487008
  75.3333700  82.3241814  74.0260581  74.9952211  82.2082878  73.1381116
  76.2023468  81.9232979  74.0061587  71.1920516  84.1777290  70.0157472
  70.6285381  84.0867227  69.2473760  71.0772911  83.3577195  70.4959964
  75.8153483  83.4776665  79.9846786  75.8042124  83.0829464  79.1127290
  75.9774122  82.7442738  80.5780558  68.7384947  85.6728482  72.8541692
  69.5306239  85.3319306  72.4387992  68.9781598  85.7823457  73.7743846
  76.7720074  87.8448258  65.3271937  76.1208054  88.4302338  64.9405951
  77.5664437  88.3754453  65.3866974  70.6975701  84.9337395  65.7259071
  71.4706577  84.3866382  65.5871947  71.0501100  85.7981644  65.9373533
  72.5360744  86.2613777  78.9325970  72.2450610  87.1659408  78.8172637
  73.1717728  86.3030305  79.6470040  73.4616951  83.6390626  75.5227330
  74.0580523  83.4146648  74.8084293  73.5191922  82.8975371  76.1252778
  73.0341979  81.0930061  63.3577521  73.2867500  80.5711582  62.5960984
  72.0966538  80.9296207  63.4604205  78.0785262  80.0965839  71.1652264
  78.8648351  79.6785263  70.8142681  78.3423966  81.0011932  71.3333913
  78.2495339  85.5338690  65.8640921  77.6141172  85.6073316  66.5761826
  77.9192746  86.1232289  65.1860000  83.4793689  80.0341073  72.0685243
  84.2118861  79.4640289  72.3023072  82.7233045  79.6462673  72.5091748
  72.7538268  82.9958167  65.5601896  72.6374526  82.3203070  66.2282980
  72.8640528  82.5090541  64.7434049  75.0969809  82.4568314  69.2648585
  74.7328016  81.9298935  69.9761507  75.9536925  82.0666783  69.0915071
  81.0019110  73.7462647  76.5279851  80.6702434  74.6158058  76.3041066
  80.4064723  73.4298931  77.2073882  74.7375296  77.4858214  64.2609934
  74.9049698  78.3538450  64.6280405  74.5472465  77.6485496  63.3371223
  77.4950629  85.9475193  75.9275764  77.1951352  86.8500232  75.8191571
  77.1501689  85.6807376  76.7796917  70.9463111  82.3988990  71.9612469
  70.0213607  82.2665204  72.1690160  71.1947524  83.1783209  72.4582411
  80.8947773  78.4657733  73.6073201  79.9864650  78.3973141  73.3131962
  80.8435369  78.9429678  74.4355027  74.7164517  79.9415871  65.2456601
  74.5964142  80.3872922  66.0842081  74.0217105  80.2901189  64.6870139
  68.3071922  82.0422263  72.7956258  68.4364303  82.2956742  73.7095669
  67.6269373  82.6349971  72.4760913  72.4771409  92.7119513  68.8946732
  72.3995439  93.6627338  68.9735212  71.8733052  92.3665386  69.5521658
  74.9688639  79.8847379  81.5508099  74.1921973  80.4441299  81.5410963
  75.6079202  80.3704161  82.0722969  82.7609419  76.6674171  75.3851075
  82.1183799  76.9606704  74.7390870  82.2564348  76.5527092  76.1904272
  80.4149583  80.4137345  66.0736935  81.3267439  80.6464731  65.8984632
  79.9059230  80.9974389  65.5112013  73.2235011  82.6932832  81.1126066
  73.9649695  83.2317876  80.8360889  72.5171996  83.3199121  81.2697617
  78.6990351  84.8361972  79.7098227  79.1073707  84.3944383  78.9652860
  77.9767612  84.2614600  79.9632420  75.0521421  79.7734579  77.0831784
  75.8982616  80.1973993  77.2266433  74.9920058  79.1168203  77.7770347
  79.0219165  85.3963163  73.4650516  78.3928028  85.5608877  72.7626584
  78.6344827  85.8104773  74.2361480  82.9008397  86.3317601  70.8194880
  82.2159435  86.7116502  70.2691913  82.9852246  86.9412927  71.5526828
  78.2020866  77.4338947  78.7412958  77.9581798  78.1881008  78.2047233
  78.4780796  77.8124295  79.5760205  80.1559329  83.9777560  77.4190223
  80.3676224  84.6209320  76.7424604  80.1089077  83.1439876  76.9512153
  77.7585558  76.5895380  74.3226796  76.8970037  76.8876634  74.6143533
  77.7847992  76.8065779  73.3907828  74.5747127  85.1337571  70.7300601
  75.0385473  85.4125274  69.9405224  74.3103925  84.2321016  70.5473692
  71.4671208  84.6809053  73.6680364  72.0372565  85.1096321  73.0297849
  72.0579320  84.3991637  74.3664550  73.5116013  81.2560723  67.5390166
  74.2140056  81.7081767  68.0064093  73.1796642  80.6144542  68.1670059
  71.9596375  79.8472480  81.9141376  71.3295035  80.5288761  82.1476773
  71.8532463  79.7355562  80.9694514  67.2541347  79.5144276  72.8407300
  66.4640401  79.7701805  72.3647410  67.7452594  80.3292614  72.9459340
  81.2705157  86.8549515  75.5912581  82.0922600  86.4529703  75.3095262
  81.2667560  86.7517749  76.5428697  69.2056092  79.8788855  69.7990777
  68.4087256  79.9907550  70.3174272  68.9781685  80.2175508  68.9331667
  75.0361760  86.4033559  77.7473291  75.1006193  86.8653966  78.5831463
  74.3272684  85.7730923  77.8755601  65.5379050  79.7674767  75.2722291
  65.7887089  80.6521776  75.5379867  66.0738598  79.5879368  74.4997383
  89.3611150  83.1988264  71.9397552  88.6074858  82.6295662  71.7841557
  89.4958691  83.1650928  72.8868187  74.7509778  88.0701666  67.6152272
  74.6155453  88.9153202  68.0437119  75.2919590  88.2720944  66.8518205
  71.2377117  74.1493246  84.2766627  70.8444063  73.5959444  84.9514271
  72.0543258  74.4603824  84.6673144  68.2039175  85.5877104  68.1880197
  68.7163696  86.3820354  68.3385761  68.8561888  84.8903395  68.1213798
  70.0134060  88.7042860  70.2702950  70.1900688  89.6260825  70.0823934
  70.8090893  88.3901280  70.6997330  74.1545078  75.5651125  81.8686883
  74.8954792  76.1658278  81.7891346  74.3863001  74.8228763  81.3104926
  69.2986416  80.7507492  80.1465113  69.1839932  79.8492749  80.4472212
  68.4430934  80.9971189  79.7949930  76.3778254  88.6925233  81.7452614
  75.9342108  87.9061611  81.4273518  77.0395468  88.8804383  81.0796504
  71.1365375  90.2221034  76.2713292  71.6872800  90.0938098  75.4990286
  70.2976851  90.5215923  75.9208185  78.4759492  88.9728032  79.7734015
  78.4577968  89.7936914  79.2814284  79.3979412  88.8482108  79.9984156
  74.9332546  86.4872162  80.6157523  75.4660883  85.7260450  80.3856831
  74.4046627  86.1945814  81.3581678  78.1002241  71.5932228  76.1451165
  77.7566511  72.4833870  76.0690276  78.4681204  71.4033886  75.2820750
  66.1688092  83.9165758  68.9639767  67.0063314  84.3262767  68.7473475
  66.3466360  82.9765201  68.9339961  78.0652524  81.5840839  64.6523600
  77.5499147  82.3545444  64.8911988  77.7929833  80.9105975  65.2756662
  75.6499635  76.4290540  69.7108838  74.7941231  76.0397390  69.5314477
  76.0626587  76.5082501  68.8508624  77.1798782  73.9636883  74.1100398
  76.6763577  73.9267018  73.2968204  77.4729389  74.8729626  74.1697055
  73.4241668  74.0475613  73.1166580  74.2894664  73.8518421  72.7572469
  73.4919177  73.8185965  74.0435937  83.0386798  84.3373194  66.5876774
  82.2616241  83.9984353  66.1431936  83.7178279  84.3425817  65.9131739
  77.8538827  79.4567931  66.4783381  77.5488963  79.7714080  67.3293524
  78.8069269  79.5349351  66.5210714  76.2985259  85.6158154  68.1276335
  75.7706621  84.8810914  67.8149573  75.7972762  86.3932831  67.8816304
  81.2778105  83.8107175  73.2443382  80.6201780  84.5006436  73.3323510
  82.0818504  84.2003607  73.5877368  71.0303987  76.2777821  70.4882947
  71.6047739  76.0553002  69.7556140  71.6174969  76.3466515  71.2411548
  80.0883564  82.1651548  71.2947323  80.6015446  82.7981539  71.7969033
  80.7384788  81.5652743  70.9290683  71.3573574  78.3082282  64.5078832
  70.5210886  78.6456968  64.8288107  71.2178343  78.1731262  63.5705969
  73.3326654  73.1519070  69.2158016  72.6791067  72.8368087  68.5914631
  73.2907129  72.5294810  69.9417839  74.4437859  83.4338365  61.1311308
  73.5364921  83.2027618  61.3302457  74.9408891  82.6375984  61.3185290
  77.3505938  92.1435872  64.0507994  76.6767637  92.4467569  64.6592952
  77.7371760  92.9464952  63.7013452  76.5664395  79.6401003  73.5405664
  75.6486956  79.8615950  73.3827352  76.9824538  79.7147314  72.6817371
  77.3499443  81.0392419  68.6708344  78.0971261  81.5513816  68.3615466
  77.6191032  80.7176472  69.5312738  75.6226093  83.5350960  65.6535298
  74.7137312  83.2509992  65.7507768  75.6521177  83.9550038  64.7938605
  80.8545360  87.1457549  69.4226466  80.4007687  86.3048459  69.4791656
  80.2239327  87.7818947  69.7601246  79.7978280  78.0749535  70.6527133
  79.0601036  77.5626921  70.9837376  80.0505053  77.6349917  69.8410410
  79.2978299  88.9834046  70.3576284  79.5901274  89.5439103  69.6388650
  79.8076920  89.2762607  71.1129443  79.8989907  70.8525787  71.2468903
  80.2048784  69.9923151  70.9594818  80.6242512  71.4443407  71.0467897
  66.1914263  81.2556474  69.6350501  65.9938663  80.6625834  68.9101567
  65.6360927  80.9508684  70.3526439  74.1710987  81.1479580  71.7545094
  74.2259597  80.1953417  71.6787570  73.3602189  81.3039019  72.2386392
  75.3202181  85.0759703  62.9923377  74.8821610  84.3595562  62.5329014
  76.0612621  85.3035818  62.4308468  72.1103347  79.7656640  69.5135473
  71.2971212  80.0650810  69.9200665  72.6062341  79.3712329  70.2309955
  74.2611925  89.7614397  71.4469737  74.2188103  89.9875243  70.5178269
  75.1774623  89.5277771  71.5955538  77.7077558  80.2298464  78.3450367
  78.0626946  80.4569938  79.2044832  78.3549690  80.5616841  77.7227622
  83.4375295  83.3516900  69.0499696  83.2993194  83.5418496  68.1220885
  83.0811514  84.1136283  69.5067747  71.6017421  77.3374995  75.1296708
  72.2416801  77.1963755  74.4319671  70.7694952  77.0509509  74.7535310
  83.4644675  85.4193427  74.0610967  83.8981182  85.3268716  74.9094021
  84.1776256  85.3950928  73.4230983  72.3777725  86.6377426  71.2431700
  73.1718324  86.1427746  71.0414275  71.6669418  86.1095289  70.8799406
  77.1972570  89.0195521  75.5944068  77.2509592  89.5886458  76.3621784
  76.3287351  89.1897406  75.2298105  68.6860489  80.7820508  67.3191453
  67.7558077  80.7204963  67.5361415  68.7817961  80.2596460  66.5228094
  68.6046038  77.3075320  69.9069694  68.8652855  78.2220654  69.7978855
  69.4263210  76.8399763  70.0566307  70.0770963  78.7213078  77.0768519
  70.7494017  78.5130440  76.4281168  69.2500750  78.5235164  76.6373751
  84.3260224  85.4617128  76.5943852  84.5196115  86.3662938  76.8403127
  84.2260843  85.0024547  77.4282437  75.9796535  75.3475019  79.0934180
  75.3324450  76.0464968  78.9998656  76.7497551  75.7811162  79.4610428
  79.3875333  85.6123871  82.1684733  79.2360840  85.3834422  81.2514817
  79.3780013  86.5694472  82.1816078  76.1560670  83.1855783  77.1530999
  77.0852730  83.3366943  76.9799967  75.7351700  83.2739804  76.2979646
  74.9549001  87.2106448  74.9229537  74.8160087  86.8425232  75.7955475
  74.1663598  87.7254087  74.7513495  75.5497153  92.3115544  66.2655074
  75.7248909  91.8403588  67.0800696  74.8629941  92.9381311  66.4936334
  76.5054216  86.5888051  72.3118375  76.1704049  86.5488821  73.2076025
  76.0058162  85.9232766  71.8388785  70.4798460  81.9955681  77.8370956
  70.3418258  81.2635919  78.4382495  71.3903384  81.9064581  77.5555144
  79.4413408  83.9344085  62.5855435  78.8242579  83.2090913  62.4888487
  78.9729897  84.6953445  62.2422509  73.1080761  81.7075640  77.3254636
  73.8180380  81.0668832  77.2841254  73.0650069  81.9588535  78.2480816
  81.0967540  88.6442993  80.2461215  81.0380086  87.9602213  79.5791798
  81.4987058  89.3861983  79.7941841  71.8209695  78.6940858  79.1450275
  71.2847052  78.2431596  79.7971872  71.2326404  78.8286767  78.4020740
  70.1158239  95.4604907  73.0394934  70.3554837  96.0923431  73.7173952
  69.2727435  95.1092947  73.3260293  71.2311954  78.1529509  61.7076739
  70.3541420  78.0318310  61.3438986  71.7069707  77.3615587  61.4555627
  81.0984947  86.6082577  78.4775195  80.2111726  86.2708499  78.6001593
  81.6683498  85.8765608  78.7143960  62.7514094  82.9406669  71.8018246
  63.4385134  82.6268399  71.2139261  62.5962223  83.8448034  71.5285497
  67.5548816  77.8296865  76.2303270  67.4707005  77.2222535  75.4953680
  66.7331523  78.3205884  76.2312766  74.6286100  91.2684030  75.4436438
  74.5556272  92.0739001  75.9555742  74.1863494  91.4675995  74.6184459
  74.4175880  90.5055800  68.9539259  73.6343402  91.0477480  69.0477484
  75.1168625  91.0229779  69.3533501  77.7272530  76.3150429  71.5973465
  78.2241230  75.5620391  71.2774535  76.9559512  76.3514746  71.0316674
  85.5802288  82.0190795  73.2391756  85.5692164  82.9015510  72.8685689
  84.7119667  81.6662345  73.0446293  77.0884784  91.1670864  77.5994596
  77.8012756  91.8018328  77.5270498  76.5974813  91.2634730  76.7834598
  78.8102311  85.0722116  69.1711888  77.8758590  85.1923579  69.0016592
  78.9878979  84.1694583  68.9071898  74.3107499  78.4567812  71.3245149
  73.9405286  77.9038852  72.0126055  74.8066591  77.8525945  70.7720149
  82.1974862  80.9139436  69.7061922  82.6635314  81.7467427  69.6322225
  82.6482363  80.4484417  70.4107181  72.1396697  88.9165307  78.4200167
  72.8406157  89.5501790  78.5729561  71.6691812  89.2580039  77.6595807
  80.2651093  87.2583257  66.7048074  80.5410937  87.1439851  67.6141948
  79.3955592  86.8600742  66.6660247  80.1691525  73.2820023  73.7452824
  79.2554605  73.5124249  73.9135031  80.5984626  73.3658467  74.5966856
  79.9397983  81.4709914  76.2452718  79.2869434  81.7185822  75.5905170
  80.3178363  80.6574053  75.9115195  76.9005157  91.5069608  70.3480888
  77.0827552  90.6891264  70.8108640  77.7238143  91.7237300  69.9105778
  77.2347323  90.4337793  67.6095936  77.7635089  89.9230247  66.9966099
  77.4975542  90.1180323  68.4741469  75.9885556  82.2129726  82.7318755
  75.3126193  82.1123855  83.4021130  76.8113190  82.0568939  83.1954752
  67.7364416  88.4501662  75.3531270  68.3217852  87.7045350  75.4859174
  67.5389254  88.7605619  76.2367934  70.5903071  91.4852909  70.3693712
  69.9213446  91.9699037  69.8857752  70.4515940  91.7322130  71.2837091
  62.3282070  81.0207262  74.0735713  62.3666170  80.4870853  74.8672831
  61.8222363  80.4942468  73.4546690  74.7308339  93.5196653  76.9676371
  75.2826647  93.6828274  77.7325456  75.0714533  94.1101091  76.2956396
  69.7072833  75.8671803  77.5698255  69.7714159  76.7286634  77.1575653
  69.6439953  75.2545804  76.8370614  69.1825105  77.9394935  81.2171290
  69.8097144  77.5572013  81.8308814  68.3253024  77.7209137  81.5826982
  79.5819214  88.3457910  82.8225025  80.1259118  88.9587869  82.3279980
  79.0006059  88.9037489  83.3392038  65.9590648  79.7471364  67.1489644
  66.2544089  78.8382043  67.0956698  65.0578684  79.7259104  66.8270647
  77.8676727  91.4678629  73.9540053  77.7427866  90.6668368  73.4450998
  78.5255818  91.9624822  73.4654023  69.4884895  77.8227361  73.1317193
  68.7671481  78.4363329  72.9924666  70.2778151  78.3585126  73.0533839
  79.9311635  89.2687649  75.5819603  78.9841971  89.1493000  75.5097930
  80.2794408  88.3810147  75.6645864  72.2911208  75.1581788  79.4057845
  72.8145610  75.4044084  80.1684154  72.0723542  75.9901822  78.9860982
  76.9358068  89.0640365  71.7823955  76.7883031  88.1357072  71.9631525
  77.7611562  89.0860456  71.2981030  70.8020313  77.7158432  67.6404447
  71.1416385  78.2444353  66.9183056  71.2492433  78.0538838  68.4163014
  80.5392190  89.8868924  72.8688828  81.4638738  89.6811785  72.7313279
  80.3707494  89.6385325  73.7778169  73.4963753  76.0995483  77.0907515
  73.1560574  75.3003296  77.4928195  72.7902760  76.3997193  76.5184349
  74.1480225  73.1844795  75.5434838  74.9706295  72.7105273  75.4213729
  74.3918289  73.9635279  76.0433525  72.7888460  76.2133053  65.8397740
  73.5096822  76.5914306  65.3361457  72.1653764  76.9321930  65.9432718
  76.9319583  76.9178202  66.7756072  77.1483197  77.8002840  66.4744901
  76.4513650  76.5264416  66.0461714  71.6718804  79.8763916  73.3526817
  71.5263385  80.1904219  74.2451099  71.1944008  80.4948816  72.7997716
  73.5315187  76.8666464  73.4007707  73.5176756  75.9707557  73.0640005
  74.2487615  76.8737127  74.0345993  75.3841318  77.3003804  75.4460834
  75.1259095  78.2220875  75.4445164  74.8526358  76.9034238  76.1361298
  80.3287506  90.4054591  68.2250919  80.5024384  89.8401013  67.4724772
  80.8216398  91.2055486  68.0430409  66.1464466  82.4169260  76.2914478
  65.6017934  83.1929068  76.4234753  67.0243816  82.7640065  76.1333600
  72.9352083  75.7480844  68.6695277  73.0567994  74.8197490  68.8686164
  72.6454125  75.7619530  67.7573592  75.8043273  73.4335754  71.8061997
  75.8264970  73.4975087  70.8513976  76.2211332  72.5940263  72.0002503
  86.1826898  83.1691014  69.8441219  86.6258044  82.4198339  69.4460342
  85.3053408  83.1601150  69.4614951  81.3162679  89.7221355  65.3247818
  82.0113583  90.3428048  65.5435132  81.6585829  88.8716707  65.6000196
  66.9330488  81.5439156  79.1844635  66.1912224  81.6921792  79.7709265
  66.6123232  81.8047422  78.3211384  83.2154102  87.1721061  66.8535148
  83.7405426  87.5108334  66.1284468  83.1276455  86.2368076  66.6698283
  74.8774151  91.0855135  78.9825025  75.1861277  90.8404281  79.8547725
  75.6749633  91.2901773  78.4943895  74.8994763  93.2393044  71.2130402
  74.4599753  92.7469423  71.9063258  75.6502880  92.6966012  70.9722477
  67.3787102  89.4304585  71.2155030  68.2045122  89.1308357  70.8353673
  67.0281154  88.6612207  71.6644818  72.3468635  88.7831053  73.2852703
  71.7248644  88.1201758  72.9854931  73.0173502  88.8092185  72.6026351
  65.5795707  87.3490912  72.1743963  64.7427615  86.9213086  71.9927965
  65.5519352  87.5423355  73.1114754  72.4193162  77.2612841  82.8785209
  72.4681318  78.1374964  82.4962979  72.9615677  76.7190234  82.3056853
  82.9048008  87.8053965  82.1586346  82.1143552  87.7878103  81.6190846
  82.6681363  88.3442258  82.9135383  83.0245883  84.6546431  79.4719075
  83.0743888  84.4896438  80.4134598  82.9159806  83.7873690  79.0816956
  71.9082142  87.3334977  66.7611164  72.0570262  88.0170441  66.1077837
  72.7148585  87.3140067  67.2760620  80.3149645  80.6377359  80.7878382
  81.2159508  80.4983824  80.4962379  80.3897620  80.8031814  81.7276559
  74.6492451  78.0144214  79.6331568  73.7795760  78.3077780  79.3614157
  74.8851931  78.5984659  80.3538832  84.5264080  87.0743372  79.7161096
  84.2348888  87.4373353  80.5524557  83.9136211  86.3610381  79.5374429
  85.7259762  84.6396252  72.2363667  86.5606654  85.0786056  72.4001227
  85.8618891  84.1634905  71.4171912  82.7751268  82.1975987  78.1841154
  83.2505390  82.3903633  77.3760006  81.8516834  82.2535173  77.9384538
  69.6634775  83.3600154  67.7672233  69.4180817  82.4562484  67.9652443
  69.8330689  83.3617305  66.8251711  77.3531485  74.2323831  77.1496988
  77.8713429  74.9684858  76.8243477  76.9986617  74.5387824  77.9843747
  68.9330422  79.0928512  65.2658394  68.2399667  79.1672867  64.6098430
  68.6882174  78.3288855  65.7879911  77.6044079  70.6524113  72.6697885
  77.8845833  69.9847302  73.2958311  78.3894686  70.8453209  72.1572549
  75.4077547  89.8283107  64.2322911  74.8351514  90.4473294  63.7793383
  75.9810341  90.3782469  64.7662833  81.4752937  79.0741747  76.4169460
  82.4270360  79.1739845  76.4381684  81.3056388  78.2820016  76.9267544
  79.4967317  76.1597330  76.6028861  78.9017249  76.4402343  75.9075350
  79.2117013  76.6491231  77.3745602  78.6274807  90.1120257  65.3631494
  79.5605480  90.0465819  65.5664369  78.5398020  90.9476524  64.9046026
  81.2562824  89.4286128  62.3235441  81.1776455  89.0945991  63.2171199
  82.0772491  89.9207895  62.3226913  83.9541015  82.2947867  75.5311760
  83.9217335  81.3563868  75.7171444  84.5641639  82.3731904  74.7977585
  75.7924346  81.1643920  61.5738964  76.7383451  81.0350128  61.6427382
  75.4138591  80.4258582  62.0508392  84.1035503  79.0858910  75.5770043
  83.5874552  78.3017367  75.3899972  84.9875452  78.7577627  75.7416562
  81.7646230  72.8299926  71.5365856  81.5671051  72.5215014  72.4209188
  82.3745936  73.5561565  71.6663785  89.7717565  83.3563874  74.6717797
  90.5020953  83.0949162  75.2325500  89.1624510  82.6192596  74.7119864
  87.8532862  81.4971736  75.2692248  87.1266026  81.3627701  74.6608739
  87.4380149  81.8048565  76.0748966  75.6763038  85.2161666  83.0339621
  76.5966048  85.3940265  83.2279667  75.6412621  84.2717711  82.8819320
  73.9767263  79.0893896  61.5093849  73.0698718  78.7927009  61.5856563
  74.2543244  78.7923714  60.6428135  64.8945203  80.4100260  71.9592895
  64.5747988  79.5565568  71.6667269  64.3478632  80.6248838  72.7150863
  68.6725111  83.1262701  75.6762402  68.8911121  84.0579808  75.6950436
  69.0850885  82.7670675  76.4617206  75.5929329  73.6330786  67.6638090
  74.7830057  73.2877871  68.0393336  76.2813746  73.3238330  68.2525702
  77.5219877  72.7108833  69.2862387  78.0750916  73.1304286  69.9452410
  77.7589963  71.7844581  69.3285343  73.5452976  78.6995906  85.0665151
  73.4449703  79.6490263  84.9977242  73.3274518  78.3714145  84.1941221
  72.7466048  75.9480831  61.6505828  73.6085212  76.2735730  61.9101646
  72.9316392  75.1612327  61.1378894  64.7633463  84.0303171  73.9286017
  64.0696935  83.6157124  73.4155971  65.5106454  84.0723708  73.3319436
  80.8998684  74.8209358  68.7941051  80.3197353  75.4794162  68.4119104
  80.6334617  73.9986702  68.3828469  79.3502250  74.2214416  70.9962372
  79.8502029  74.3330950  70.1876690  79.9937858  73.9175468  71.6363180
  73.4084246  82.1293045  83.8830212  72.9251328  82.9293405  84.0894102
  73.4945185  82.1400990  82.9297656  66.6770206  83.9621425  71.8052032
  66.6540894  84.0609112  70.8533915  66.9870842  84.8086576  72.1269198
  69.3357584  86.0197580  75.9198646  70.2900837  85.9881522  75.8528578
  69.1370107  85.5588204  76.7348872  69.9256966  84.5898696  78.4869444
  70.7449855  85.0842775  78.5104281  70.1993774  83.6730664  78.4587011
  79.6823562  76.9809448  67.8497399  78.7949417  77.2659099  67.6317594
  80.0977551  76.8203212  67.0024676  83.0338098  77.0055969  71.5651739
  83.8098488  77.4952422  71.8376356  82.3086232  77.4314023  72.0223608
  85.4710657  77.7183588  72.6225679  86.0655148  77.4779324  71.9118988
  85.5437241  76.9990719  73.2499216  67.6907813  91.5617199  72.9368844
  67.5562280  90.8017600  72.3706842  67.2739875  92.2858099  72.4697633
  78.8266776  86.7454123  61.9445419  79.5302626  86.9504125  62.5603075
  78.1029424  87.3130885  62.2094503  79.6564586  82.4963984  68.0647690
  79.5999787  82.9532536  67.2255322  80.2092928  81.7354669  67.8870532
  83.4669392  78.2853716  68.8897809  83.2106326  77.8850352  69.7206017
  82.8422260  78.9997510  68.7647948  87.7781730  81.0249789  71.3969100
  87.2181288  81.0942979  72.1700663  87.1725233  80.8490774  70.6768597
  70.8476938  92.4586516  73.1487287  70.7309323  93.4031949  73.0465977
  70.0269385  92.1560078  73.5373086  80.7353473  87.1836652  63.9943879
  81.5699077  86.7517851  63.8121354  80.5737816  87.0118666  64.9220774
  80.3899365  83.6868765  65.3600219  80.3348169  83.5213037  64.4188663
  79.7645420  84.3944798  65.5162408  65.1791880  78.9236830  79.1861641
  65.8250744  78.4135784  79.6748866  64.9709031  79.6605511  79.7605066
  77.7045272  85.9917677  84.6853782  78.5736432  86.1658330  84.3240416
  77.2252024  86.8112094  84.5629511  73.6995491  73.1876874  64.9385537
  73.6874160  74.1318714  65.0953808  74.5918912  73.0047020  64.6444998
  71.8731453  93.1114778  76.3643215  72.7758699  93.1438389  76.6809710
  71.6468823  92.1815229  76.3789551  73.6285055  91.8645765  73.0253294
  72.6780686  91.8647626  72.9117666  73.9317541  91.1178499  72.5089328
  77.5147610  69.7819651  69.1931474  76.7480006  69.2278138  69.3388156
  77.9258315  69.8541520  70.0545626  69.5189371  76.0704447  83.2836655
  70.3820833  75.7141252  83.4939980  68.9454782  75.7318342  83.9712059
  89.3637748  97.7006303  74.0899056  90.0016158  97.5813051  73.3862396
  89.2458591  98.6487147  74.1487008  86.1727454  97.6533731  74.0260581
  85.8345966  97.5374796  73.1381116  87.0417223  97.2524896  74.0061587
  82.0314270  99.5069208  70.0157472  81.4679135  99.4159145  69.2473760
  81.9166665  98.6869112  70.4959964  86.6547237  98.8068583  79.9846786
  86.6435878  98.4121381  79.1127290  86.8167877  98.0734656  80.5780558
  79.5778702 101.0020399  72.8541692  80.3699994 100.6611224  72.4387992
  79.8175352 101.1115374  73.7743846  87.6113829 103.1740175  65.3271937
  86.9601809 103.7594256  64.9405951  88.4058192 103.7046370  65.3866974
  81.5369456 100.2629313  65.7259071  82.3100332  99.7158300  65.5871947
  81.8894855 101.1273562  65.9373533  83.3754498 101.5905695  78.9325970
  83.0844364 102.4951326  78.8172637  84.0111483 101.6322223  79.6470040
  84.3010705  98.9682543  75.5227330  84.8974278  98.7438566  74.8084293
  84.3585677  98.2267289  76.1252778  83.8735734  96.4221979  63.3577521
  84.1261254  95.9003500  62.5960984  82.9360293  96.2588124  63.4604205
  88.9179017  95.4257757  71.1652264  89.7042106  95.0077180  70.8142681
  89.1817721  96.3303849  71.3333913  89.0889094 100.8630607  65.8640921
  88.4534927 100.9365234  66.5761826  88.7586500 101.4524206  65.1860000
  94.3187444  95.3632990  72.0685243  95.0512616  94.7932207  72.3023072
  93.5626799  94.9754591  72.5091748  83.5932022  98.3250085  65.5601896
  83.4768281  97.6494988  66.2282980  83.7034282  97.8382459  64.7434049
  85.9363563  97.7860232  69.2648585  85.5721771  97.2590853  69.9761507
  86.7930679  97.3958701  69.0915071  91.8412864  89.0754564  76.5279851
  91.5096189  89.9449975  76.3041066  91.2458477  88.7590848  77.2073882
  85.5769050  92.8150132  64.2609934  85.7443453  93.6830368  64.6280405
  85.3866219  92.9777413  63.3371223  88.3344384 101.2767110  75.9275764
  88.0345107 102.1792149  75.8191571  87.9895443 101.0099294  76.7796917
  81.7856865  97.7280907  71.9612469  80.8607362  97.5957121  72.1690160
  82.0341278  98.5075126  72.4582411  91.7341527  93.7949651  73.6073201
  90.8258405  93.7265059  73.3131962  91.6829123  94.2721596  74.4355027
  85.5558271  95.2707789  65.2456601  85.4357896  95.7164840  66.0842081
  84.8610860  95.6193107  64.6870139  79.1465676  97.3714181  72.7956258
  79.2758057  97.6248660  73.7095669  78.4663127  97.9641889  72.4760913
  83.3165163 108.0411431  68.8946732  83.2389193 108.9919256  68.9735212
  82.7126807 107.6957303  69.5521658  85.8082393  95.2139296  81.5508099
  85.0315727  95.7733216  81.5410963  86.4472956  95.6996079  82.0722969
  93.6003174  91.9966089  75.3851075  92.9577554  92.2898622  74.7390870
  93.0958102  91.8819009  76.1904272  91.2543337  95.7429262  66.0736935
  92.1661194  95.9756649  65.8984632  90.7452984  96.3266306  65.5112013
  84.0628765  98.0224750  81.1126066  84.8043450  98.5609794  80.8360889
  83.3565751  98.6491038  81.2697617  89.5384105 100.1653890  79.7098227
  89.9467461  99.7236301  78.9652860  88.8161367  99.5906518  79.9632420
  85.8915175  95.1026497  77.0831784  86.7376370  95.5265910  77.2266433
  85.8313813  94.4460121  77.7770347  89.8612920 100.7255081  73.4650516
  89.2321782 100.8900795  72.7626584  89.4738582 101.1396690  74.2361480
  93.7402152 101.6609518  70.8194880  93.0553190 102.0408420  70.2691913
  93.8246001 102.2704845  71.5526828  89.0414620  92.7630865  78.7412958
  88.7975552  93.5172926  78.2047233  89.3174551  93.1416213  79.5760205
  90.9953083  99.3069478  77.4190223  91.2069978  99.9501237  76.7424604
  90.9482831  98.4731794  76.9512153  88.5979312  91.9187298  74.3226796
  87.7363791  92.2168552  74.6143533  88.6241747  92.1357697  73.3907828
  85.4140882 100.4629489  70.7300601  85.8779227 100.7417192  69.9405224
  85.1497680  99.5612933  70.5473692  82.3064963 100.0100970  73.6680364
  82.8766320 100.4388239  73.0297849  82.8973074  99.7283555  74.3664550
  84.3509768  96.5852641  67.5390166  85.0533811  97.0373685  68.0064093
  84.0190396  95.9436460  68.1670059  82.7990129  95.1764398  81.9141376
  82.1688790  95.8580679  82.1476773  82.6926217  95.0647479  80.9694514
  78.0935102  94.8436194  72.8407300  77.3034156  95.0993722  72.3647410
  78.5846349  95.6584532  72.9459340  92.1098911 102.1841433  75.5912581
  92.9316355 101.7821620  75.3095262  92.1061314 102.0809667  76.5428697
  80.0449847  95.2080773  69.7990777  79.2481010  95.3199467  70.3174272
  79.8175439  95.5467425  68.9331667  85.8755515 101.7325476  77.7473291
  85.9399947 102.1945883  78.5831463  85.1666438 101.1022841  77.8755601
  76.3772805  95.0966684  75.2722291  76.6280843  95.9813694  75.5379867
  76.9132353  94.9171286  74.4997383 100.2004904  98.5280181  71.9397552
  99.4468613  97.9587579  71.7841557 100.3352445  98.4942846  72.8868187
  85.5903532 103.3993584  67.6152272  85.4549207 104.2445119  68.0437119
  86.1313345 103.6012861  66.8518205  82.0770872  89.4785164  84.2766627
  81.6837817  88.9251362  84.9514271  82.8937012  89.7895742  84.6673144
  79.0432930 100.9169022  68.1880197  79.5557450 101.7112272  68.3385761
  79.6955642 100.2195312  68.1213798  80.8527814 104.0334778  70.2702950
  81.0294443 104.9552743  70.0823934  81.6484648 103.7193197  70.6997330
  84.9938833  90.8943043  81.8686883  85.7348546  91.4950196  81.7891346
  85.2256756  90.1520680  81.3104926  80.1380171  96.0799410  80.1465113
  80.0233686  95.1784667  80.4472212  79.2824689  96.3263107  79.7949930
  87.2172009 104.0217150  81.7452614  86.7735863 103.2353529  81.4273518
  87.8789222 104.2096301  81.0796504  81.9759130 105.5512952  76.2713292
  82.5266555 105.4230015  75.4990286  81.1370606 105.8507841  75.9208185
  89.3153247 104.3019950  79.7734015  89.2971722 105.1228831  79.2814284
  90.2373167 104.1774025  79.9984156  85.7726301 101.8164080  80.6157523
  86.3054638 101.0552368  80.3856831  85.2440382 101.5237731  81.3581678
  88.9395996  86.9224146  76.1451165  88.5960265  87.8125787  76.0690276
  89.3074958  86.7325803  75.2820750  77.0081846  99.2457676  68.9639767
  77.8457068  99.6554684  68.7473475  77.1860114  98.3057118  68.9339961
  88.9046279  96.9132757  64.6523600  88.3892902  97.6837361  64.8911988
  88.6323587  96.2397893  65.2756662  86.4893390  91.7582457  69.7108838
  85.6334986  91.3689308  69.5314477  86.9020341  91.8374418  68.8508624
  88.0192536  89.2928801  74.1100398  87.5157332  89.2558936  73.2968204
  88.3123143  90.2021543  74.1697055  84.2635422  89.3767530  73.1166580
  85.1288419  89.1810339  72.7572469  84.3312931  89.1477882  74.0435937
  93.8780553  99.6665111  66.5876774  93.1009995  99.3276271  66.1431936
  94.5572034  99.6717735  65.9131739  88.6932582  94.7859849  66.4783381
  88.3882717  95.1005998  67.3293524  89.6463024  94.8641269  66.5210714
  87.1379014 100.9450072  68.1276335  86.6100375 100.2102832  67.8149573
  86.6366516 101.7224748  67.8816304  92.1171860  99.1399093  73.2443382
  91.4595534  99.8298354  73.3323510  92.9212259  99.5295525  73.5877368
  81.8697741  91.6069738  70.4882947  82.4441493  91.3844920  69.7556140
  82.4568724  91.6758433  71.2411548  90.9277318  97.4943465  71.2947323
  91.4409200  98.1273457  71.7969033  91.5778542  96.8944661  70.9290683
  82.1967328  93.6374199  64.5078832  81.3604641  93.9748886  64.8288107
  82.0572098  93.5023179  63.5705969  84.1720409  88.4810987  69.2158016
  83.5184821  88.1660004  68.5914631  84.1300883  87.8586728  69.9417839
  85.2831614  98.7630282  61.1311308  84.3758675  98.5319536  61.3302457
  85.7802646  97.9667902  61.3185290  88.1899693 107.4727790  64.0507994
  87.5161391 107.7759486  64.6592952  88.5765515 108.2756870  63.7013452
  87.4058149  94.9692921  73.5405664  86.4880711  95.1907868  73.3827352
  87.8218293  95.0439231  72.6817371  88.1893197  96.3684337  68.6708344
  88.9365016  96.8805734  68.3615466  88.4584787  96.0468389  69.5312738
  86.4619847  98.8642877  65.6535298  85.5531066  98.5801910  65.7507768
  86.4914931  99.2841956  64.7938605  91.6939115 102.4749467  69.4226466
  91.2401442 101.6340377  69.4791656  91.0633081 103.1110865  69.7601246
  90.6372034  93.4041453  70.6527133  89.8994791  92.8918839  70.9837376
  90.8898808  92.9641834  69.8410410  90.1372054 104.3125963  70.3576284
  90.4295028 104.8731021  69.6388650  90.6470674 104.6054524  71.1129443
  90.7383661  86.1817705  71.2468903  91.0442538  85.3215068  70.9594818
  91.4636266  86.7735325  71.0467897  77.0308018  96.5848391  69.6350501
  76.8332417  95.9917752  68.9101567  76.4754682  96.2800602  70.3526439
  85.0104741  96.4771498  71.7545094  85.0653351  95.5245334  71.6787570
  84.1995943  96.6330937  72.2386392  86.1595935 100.4051621  62.9923377
  85.7215365  99.6887480  62.5329014  86.9006376 100.6327736  62.4308468
  82.9497101  95.0948558  69.5135473  82.1364967  95.3942728  69.9200665
  83.4456095  94.7004246  70.2309955  85.1005679 105.0906315  71.4469737
  85.0581858 105.3167161  70.5178269  86.0168378 104.8569689  71.5955538
  88.5471313  95.5590382  78.3450367  88.9020701  95.7861855  79.2044832
  89.1943444  95.8908759  77.7227622  94.2769050  98.6808818  69.0499696
  94.1386948  98.8710414  68.1220885  93.9205269  99.4428201  69.5067747
  82.4411176  92.6666913  75.1296708  83.0810555  92.5255672  74.4319671
  81.6088706  92.3801427  74.7535310  94.3038429 100.7485345  74.0610967
  94.7374936 100.6560634  74.9094021  95.0170010 100.7242845  73.4230983
  83.2171480 101.9669344  71.2431700  84.0112078 101.4719664  71.0414275
  82.5063172 101.4387207  70.8799406  88.0366324 104.3487439  75.5944068
  88.0903347 104.9178375  76.3621784  87.1681106 104.5189324  75.2298105
  79.5254243  96.1112425  67.3191453  78.5951831  96.0496881  67.5361415
  79.6211715  95.5888378  66.5228094  79.4439792  92.6367238  69.9069694
  79.7046610  93.5512571  69.7978855  80.2656965  92.1691681  70.0566307
  80.9164718  94.0504995  77.0768519  81.5887771  93.8422357  76.4281168
  80.0894504  93.8527081  76.6373751  95.1653979 100.7909046  76.5943852
  95.3589869 101.6954856  76.8403127  95.0654597 100.3316465  77.4282437
  86.8190290  90.6766936  79.0934180  86.1718205  91.3756886  78.9998656
  87.5891305  91.1103080  79.4610428  90.2269088 100.9415788  82.1684733
  90.0754594 100.7126340  81.2514817  90.2173767 101.8986390  82.1816078
  86.9954424  98.5147701  77.1530999  87.9246484  98.6658861  76.9799967
  86.5745454  98.6031722  76.2979646  85.7942756 102.5398366  74.9229537
  85.6553842 102.1717150  75.7955475  85.0057352 103.0546005  74.7513495
  86.3890908 107.6407462  66.2655074  86.5642663 107.1695505  67.0800696
  85.7023696 108.2673228  66.4936334  87.3447971 101.9179968  72.3118375
  87.0097804 101.8780738  73.2076025  86.8451917 101.2524684  71.8388785
  81.3192215  97.3247598  77.8370956  81.1812013  96.5927837  78.4382495
  82.2297138  97.2356498  77.5555144  90.2807163  99.2636003  62.5855435
  89.6636333  98.5382831  62.4888487  89.8123651 100.0245363  62.2422509
  83.9474516  97.0367558  77.3254636  84.6574134  96.3960750  77.2841254
  83.9043824  97.2880452  78.2480816  91.9361294 103.9734911  80.2461215
  91.8773840 103.2894131  79.5791798  92.3380813 104.7153901  79.7941841
  82.6603450  94.0232775  79.1450275  82.1240807  93.5723514  79.7971872
  82.0720158  94.1578684  78.4020740  80.9551993 110.7896825  73.0394934
  81.1948591 111.4215349  73.7173952  80.1121190 110.4384865  73.3260293
  82.0705709  93.4821427  61.7076739  81.1935175  93.3610228  61.3438986
  82.5463462  92.6907505  61.4555627  91.9378702 101.9374495  78.4775195
  91.0505480 101.6000417  78.6001593  92.5077253 101.2057526  78.7143960
  73.5907849  98.2698587  71.8018246  74.2778888  97.9560317  71.2139261
  73.4355977  99.1739951  71.5285497  78.3942571  93.1588783  76.2303270
  78.3100760  92.5514453  75.4953680  77.5725277  93.6497801  76.2312766
  85.4679855 106.5975947  75.4436438  85.3950026 107.4030919  75.9555742
  85.0257248 106.7967913  74.6184459  85.2569635 105.8347717  68.9539259
  84.4737156 106.3769397  69.0477484  85.9562380 106.3521697  69.3533501
  88.5666285  91.6442347  71.5973465  89.0634984  90.8912309  71.2774535
  87.7953266  91.6806663  71.0316674  96.4196042  97.3482712  73.2391756
  96.4085918  98.2307428  72.8685689  95.5513422  96.9954263  73.0446293
  87.9278538 106.4962781  77.5994596  88.6406511 107.1310246  77.5270498
  87.4368567 106.5926647  76.7834598  89.6496065 100.4014034  69.1711888
  88.7152344 100.5215496  69.0016592  89.8272734  99.4986501  68.9071898
  85.1501253  93.7859730  71.3245149  84.7799041  93.2330770  72.0126055
  85.6460346  93.1817863  70.7720149  93.0368617  96.2431353  69.7061922
  93.5029069  97.0759345  69.6322225  93.4876117  95.7776335  70.4107181
  82.9790452 104.2457225  78.4200167  83.6799911 104.8793708  78.5729561
  82.5085567 104.5871956  77.6595807  91.1044848 102.5875174  66.7048074
  91.3804692 102.4731769  67.6141948  90.2349347 102.1892659  66.6660247
  91.0085279  88.6111940  73.7452824  90.0948359  88.8416167  73.9135031
  91.4378381  88.6950384  74.5966856  90.7791738  96.8001832  76.2452718
  90.1263188  97.0477740  75.5905170  91.1572118  95.9865970  75.9115195
  87.7398912 106.8361525  70.3480888  87.9221306 106.0183181  70.8108640
  88.5631898 107.0529218  69.9105778  88.0741077 105.7629710  67.6095936
  88.6028844 105.2522165  66.9966099  88.3369297 105.4472241  68.4741469
  86.8279311  97.5421643  82.7318755  86.1519948  97.4415773  83.4021130
  87.6506945  97.3860857  83.1954752  78.5758170 103.7793580  75.3531270
  79.1611607 103.0337268  75.4859174  78.3783008 104.0897536  76.2367934
  81.4296825 106.8144827  70.3693712  80.7607201 107.2990955  69.8857752
  81.2909695 107.0614048  71.2837091  73.1675825  96.3499180  74.0735713
  73.2059924  95.8162771  74.8672831  72.6616118  95.8234385  73.4546690
  85.5702094 108.8488571  76.9676371  86.1220402 109.0120192  77.7325456
  85.9108287 109.4393008  76.2956396  80.5466587  91.1963720  77.5698255
  80.6107914  92.0578551  77.1575653  80.4833707  90.5837722  76.8370614
  80.0218860  93.2686853  81.2171290  80.6490898  92.8863930  81.8308814
  79.1646778  93.0501055  81.5826982  90.4212968 103.6749828  82.8225025
  90.9652872 104.2879786  82.3279980  89.8399813 104.2329407  83.3392038
  76.7984402  95.0763282  67.1489644  77.0937843  94.1673961  67.0956698
  75.8972438  95.0551022  66.8270647  88.7070481 106.7970546  73.9540053
  88.5821621 105.9960286  73.4450998  89.3649572 107.2916740  73.4654023
  80.3278649  93.1519279  73.1317193  79.6065235  93.7655246  72.9924666
  81.1171905  93.6877044  73.0533839  90.7705390 104.5979566  75.5819603
  89.8235725 104.4784917  75.5097930  91.1188163 103.7102064  75.6645864
  83.1304963  90.4873705  79.4057845  83.6539365  90.7336002  80.1684154
  82.9117296  91.3193740  78.9860982  78.5272244  92.7577380  67.2728970
  78.1984950  91.8774759  67.0904076  78.8811615  92.7025048  68.1605359
  87.7751823 104.3932282  71.7823955  87.6276785 103.4648990  71.9631525
  88.6005316 104.4152373  71.2981030  81.6414067  93.0450350  67.6404447
  81.9810140  93.5736271  66.9183056  82.0886188  93.3830756  68.4163014
  91.3785945 105.2160841  72.8688828  92.3032492 105.0103703  72.7313279
  91.2101248 104.9677242  73.7778169  84.3357508  91.4287400  77.0907515
  83.9954328  90.6295213  77.4928195  83.6296514  91.7289111  76.5184349
  84.9873980  88.5136713  75.5434838  85.8100049  88.0397191  75.4213729
  85.2312043  89.2927196  76.0433525  83.6282214  91.5424971  65.8397740
  84.3490577  91.9206224  65.3361457  83.0047518  92.2613848  65.9432718
  87.7713337  92.2470120  66.7756072  87.9876952  93.1294758  66.4744901
  87.2907404  91.8556334  66.0461714  82.5112559  95.2055833  73.3526817
  82.3657139  95.5196136  74.2451099  82.0337762  95.8240734  72.7997716
  84.3708941  92.1958381  73.4007707  84.3570510  91.2999475  73.0640005
  85.0881370  92.2029045  74.0345993  86.2235072  92.6295722  75.4460834
  85.9652850  93.5512792  75.4445164  85.6920112  92.2326156  76.1361298
  91.1681261 105.7346509  68.2250919  91.3418138 105.1692931  67.4724772
  91.6610152 106.5347404  68.0430409  76.9858221  97.7461178  76.2914478
  76.4411689  98.5220986  76.4234753  77.8637571  98.0931982  76.1333600
  83.7745837  91.0772762  68.6695277  83.8961749  90.1489408  68.8686164
  83.4847880  91.0911448  67.7573592  86.6437028  88.7627672  71.8061997
  86.6658725  88.8267005  70.8513976  87.0605087  87.9232181  72.0002503
  97.0220652  98.4982932  69.8441219  97.4651798  97.7490257  69.4460342
  96.1447162  98.4893068  69.4614951  92.1556433 105.0513273  65.3247818
  92.8507338 105.6719966  65.5435132  92.4979583 104.2008624  65.6000196
  77.7724243  96.8731074  79.1844635  77.0305979  97.0213709  79.7709265
  77.4516987  97.1339340  78.3211384  94.0547856 102.5012979  66.8535148
  94.5799181 102.8400251  66.1284468  93.9670209 101.5659994  66.6698283
  85.7167905 106.4147052  78.9825025  86.0255032 106.1696199  79.8547725
  86.5143387 106.6193691  78.4943895  85.7388517 108.5684962  71.2130402
  85.2993508 108.0761341  71.9063258  86.4896634 108.0257930  70.9722477
  78.2180856 104.7596503  71.2155030  79.0438876 104.4600275  70.8353673
  77.8674908 103.9904125  71.6644818  83.1862389 104.1122971  73.2852703
  82.5642399 103.4493676  72.9854931  83.8567256 104.1384103  72.6026351
  76.4189461 102.6782829  72.1743963  75.5821370 102.2505004  71.9927965
  76.3913107 102.8715273  73.1114754  83.2586917  92.5904759  82.8785209
  83.3075072  93.4666882  82.4962979  83.8009431  92.0482152  82.3056853
  93.7441763 103.1345882  82.1586346  92.9537306 103.1170021  81.6190846
  93.5075117 103.6734176  82.9135383  93.8639638  99.9838349  79.4719075
  93.9137643  99.8188356  80.4134598  93.7553561  99.1165608  79.0816956
  82.7475896 102.6626894  66.7611164  82.8964017 103.3462359  66.1077837
  83.5542340 102.6431984  67.2760620  91.1543400  95.9669277  80.7878382
  92.0553263  95.8275741  80.4962379  91.2291374  96.1323731  81.7276559
  85.4886205  93.3436131  79.6331568  84.6189515  93.6369697  79.3614157
  85.7245686  93.9276576  80.3538832  95.3657834 102.4035290  79.7161096
  95.0742643 102.7665271  80.5524557  94.7529966 101.6902298  79.5374429
  96.5653517  99.9688170  72.2363667  97.4000408 100.4077974  72.4001227
  96.7012646  99.4926823  71.4171912  93.6145023  97.5267905  78.1841154
  94.0899144  97.7195551  77.3760006  92.6910588  97.5827091  77.9384538
  80.5028529  98.6892072  67.7672233  80.2574571  97.7854402  67.9652443
  80.6724444  98.6909222  66.8251711  88.1925239  89.5615748  77.1496988
  88.7107183  90.2976775  76.8243477  87.8380372  89.8679742  77.9843747
  79.7724177  94.4220430  65.2658394  79.0793422  94.4964785  64.6098430
  79.5275929  93.6580773  65.7879911  88.4437833  85.9816031  72.6697885
  88.7239587  85.3139220  73.2958311  89.2288440  86.1745126  72.1572549
  86.2471302 105.1575025  64.2322911  85.6745269 105.7765212  63.7793383
  86.8204095 105.7074386  64.7662833  92.3146692  94.4033665  76.4169460
  93.2664115  94.5031763  76.4381684  92.1450142  93.6111933  76.9267544
  90.3361071  91.4889248  76.6028861  89.7411003  91.7694261  75.9075350
  90.0510768  91.9783149  77.3745602  89.4668562 105.4412175  65.3631494
  90.3999235 105.3757737  65.5664369  89.3791774 106.2768442  64.9046026
  92.0956578 104.7578045  62.3235441  92.0170210 104.4237909  63.2171199
  92.9166245 105.2499813  62.3226913  94.7934769  97.6239785  75.5311760
  94.7611090  96.6855785  75.7171444  95.4035393  97.7023821  74.7977585
  86.6318100  96.4935838  61.5738964  87.5777205  96.3642046  61.6427382
  86.2532345  95.7550499  62.0508392  94.9429258  94.4150828  75.5770043
  94.4268307  93.6309285  75.3899972  95.8269206  94.0869545  75.7416562
  92.6039985  88.1591844  71.5365856  92.4064806  87.8506932  72.4209188
  93.2139690  88.8853482  71.6663785 100.6111319  98.6855791  74.6717797
 101.3414708  98.4241080  75.2325500 100.0018265  97.9484513  74.7119864
  98.6926616  96.8263654  75.2692248  97.9659780  96.6919619  74.6608739
  98.2773903  97.1340483  76.0748966  86.5156793 100.5453584  83.0339621
  87.4359802 100.7232183  83.2279667  86.4806376  99.6009629  82.8819320
  84.8161017  94.4185814  61.5093849  83.9092473  94.1218927  61.5856563
  85.0936998  94.1215632  60.6428135  75.7338958  95.7392177  71.9592895
  75.4141742  94.8857485  71.6667269  75.1872386  95.9540755  72.7150863
  79.5118865  98.4554618  75.6762402  79.7304875  99.3871726  75.6950436
  79.9244639  98.0962593  76.4617206  86.4323083  88.9622704  67.6638090
  85.6223812  88.6169789  68.0393336  87.1207500  88.6530247  68.2525702
  88.3613631  88.0400750  69.2862387  88.9144670  88.4596204  69.9452410
  88.5983718  87.1136499  69.3285343  84.3846731  94.0287824  85.0665151
  84.2843458  94.9782181  84.9977242  84.1668273  93.7006063  84.1941221
  83.5859802  91.2772749  61.6505828  84.4478966  91.6027647  61.9101646
  83.7710146  90.4904245  61.1378894  75.6027218  99.3595089  73.9286017
  74.9090689  98.9449042  73.4155971  76.3500209  99.4015625  73.3319436
  91.7392439  90.1501276  68.7941051  91.1591108  90.8086080  68.4119104
  91.4728371  89.3278620  68.3828469  90.1896005  89.5506333  70.9962372
  90.6895783  89.6622868  70.1876690  90.8331613  89.2467386  71.6363180
  84.2478001  97.4584963  83.8830212  83.7645082  98.2585323  84.0894102
  84.3338940  97.4692908  82.9297656  77.5163960  99.2913343  71.8052032
  77.4934648  99.3901030  70.8533915  77.8264597 100.1378493  72.1269198
  80.1751338 101.3489498  75.9198646  81.1294592 101.3173440  75.8528578
  79.9763862 100.8880121  76.7348872  80.7650720  99.9190614  78.4869444
  81.5843609 100.4134692  78.5104281  81.0387528  99.0022582  78.4587011
  90.5217317  92.3101366  67.8497399  89.6343172  92.5951017  67.6317594
  90.9371306  92.1495129  67.0024676  93.8731853  92.3347887  71.5651739
  94.6492243  92.8244339  71.8376356  93.1479987  92.7605941  72.0223608
  96.3104411  93.0475506  72.6225679  96.9048902  92.8071242  71.9118988
  96.3830995  92.3282637  73.2499216  78.5301567 106.8909117  72.9368844
  78.3956035 106.1309518  72.3706842  78.1133629 107.6150017  72.4697633
  89.6660530 102.0746041  61.9445419  90.3696380 102.2796043  62.5603075
  88.9423179 102.6422803  62.2094503  90.4958340  97.8255902  68.0647690
  90.4393542  98.2824453  67.2255322  91.0486683  97.0646586  67.8870532
  94.3063146  93.6145634  68.8897809  94.0500080  93.2142269  69.7206017
  93.6816014  94.3289428  68.7647948  98.6175484  96.3541707  71.3969100
  98.0575042  96.4234896  72.1700663  98.0118987  96.1782692  70.6768597
  81.6870693 107.7878434  73.1487287  81.5703077 108.7323867  73.0465977
  80.8663139 107.4851996  73.5373086  91.5747227 102.5128570  63.9943879
  92.4092831 102.0809768  63.8121354  91.4131570 102.3410584  64.9220774
  91.2293120  99.0160683  65.3600219  91.1741923  98.8504955  64.4188663
  90.6039175  99.7236716  65.5162408  76.0185635  94.2528748  79.1861641
  76.6644498  93.7427701  79.6748866  75.8102786  94.9897429  79.7605066
  88.5439027 101.3209595  84.6853782  89.4130186 101.4950247  84.3240416
  88.0645778 102.1404012  84.5629511  84.5389245  88.5168792  64.9385537
  84.5267915  89.4610632  65.0953808  85.4312667  88.3338938  64.6444998
  82.7125207 108.4406696  76.3643215  83.6152454 108.4730306  76.6809710
  82.4862577 107.5107147  76.3789551  84.4678809 107.1937683  73.0253294
  83.5174440 107.1939544  72.9117666  84.7711295 106.4470417  72.5089328
  88.3541365  85.1111569  69.1931474  87.5873760  84.5570055  69.3388156
  88.7652070  85.1833438  70.0545626  80.3583126  91.3996365  83.2836655
  81.2214587  91.0433169  83.4939980  79.7848536  91.0610259  83.9712059
 100.2031503 113.0298221  74.0899056 100.8409912 112.9104968  73.3862396
 100.0852345 113.9779065  74.1487008  97.0121209 112.9825649  74.0260581
  96.6739720 112.8666714  73.1381116  97.8810977 112.5816814  74.0061587
  92.8708025 114.8361125  70.0157472  92.3072890 114.7451062  69.2473760
  92.7560420 114.0161030  70.4959964  97.4940992 114.1360501  79.9846786
  97.4829633 113.7413299  79.1127290  97.6561631 113.4026573  80.5780558
  90.4172456 116.3312317  72.8541692  91.2093748 115.9903142  72.4387992
  90.6569107 116.4407292  73.7743846  92.3763210 115.5921230  65.7259071
  93.1494086 115.0450217  65.5871947  92.7288609 116.4565480  65.9373533
  94.2148253 116.9197613  78.9325970  93.9238119 117.8243243  78.8172637
  94.8505237 116.9614140  79.6470040  95.1404460 114.2974461  75.5227330
  95.7368032 114.0730483  74.8084293  95.1979431 113.5559207  76.1252778
  94.7129488 111.7513896  63.3577521  94.9655009 111.2295418  62.5960984
  93.7754047 111.5880042  63.4604205  99.7572771 110.7549675  71.1652264
 100.5435860 110.3369098  70.8142681 100.0211475 111.6595767  71.3333913
  94.4325777 113.6542002  65.5601896  94.3162035 112.9786906  66.2282980
  94.5428037 113.1674376  64.7434049  96.7757318 113.1152149  69.2648585
  96.4115525 112.5882770  69.9761507  97.6324434 112.7250619  69.0915071
 102.6806618 104.4046482  76.5279851 102.3489943 105.2741893  76.3041066
 102.0852232 104.0882766  77.2073882  96.4162805 108.1442049  64.2609934
  96.5837207 109.0122286  64.6280405  96.2259974 108.3069331  63.3371223
  92.6250620 113.0572825  71.9612469  91.7001116 112.9249039  72.1690160
  92.8735033 113.8367044  72.4582411 102.5735282 109.1241568  73.6073201
 101.6652159 109.0556977  73.3131962 102.5222878 109.6013513  74.4355027
  96.3952026 110.5999707  65.2456601  96.2751651 111.0456757  66.0842081
  95.7004614 110.9485024  64.6870139  89.9859431 112.7006098  72.7956258
  90.1151812 112.9540577  73.7095669  89.3056882 113.2933806  72.4760913
  96.6476148 110.5431214  81.5508099  95.8709482 111.1025134  81.5410963
  97.2866711 111.0287997  82.0722969 104.4396928 107.3258007  75.3851075
 103.7971308 107.6190540  74.7390870 103.9351857 107.2110927  76.1904272
 102.0937092 111.0721180  66.0736935 103.0054948 111.3048567  65.8984632
 101.5846739 111.6558224  65.5112013  94.9022520 113.3516667  81.1126066
  95.6437204 113.8901711  80.8360889  94.1959505 113.9782956  81.2697617
  96.7308930 110.4318414  77.0831784  97.5770125 110.8557828  77.2266433
  96.6707567 109.7752039  77.7770347  99.8808375 108.0922783  78.7412958
  99.6369307 108.8464843  78.2047233 100.1568305 108.4708130  79.5760205
  99.4373067 107.2479216  74.3226796  98.5757546 107.5460469  74.6143533
  99.4635501 107.4649615  73.3907828  96.2534636 115.7921406  70.7300601
  96.7172982 116.0709109  69.9405224  95.9891434 114.8904851  70.5473692
  93.1458717 115.3392888  73.6680364  93.7160074 115.7680156  73.0297849
  93.7366829 115.0575473  74.3664550  95.1903522 111.9144559  67.5390166
  95.8927565 112.3665602  68.0064093  94.8584151 111.2728378  68.1670059
  93.6383884 110.5056315  81.9141376  93.0082544 111.1872596  82.1476773
  93.5319972 110.3939397  80.9694514  88.9328856 110.1728111  72.8407300
  88.1427910 110.4285640  72.3647410  89.4240103 110.9876449  72.9459340
  90.8843601 110.5372691  69.7990777  90.0874765 110.6491385  70.3174272
  90.6569194 110.8759343  68.9331667  87.2166559 110.4258602  75.2722291
  87.4674597 111.3105612  75.5379867  87.7526107 110.2463203  74.4997383
  92.9164626 104.8077081  84.2766627  92.5231572 104.2543280  84.9514271
  93.7330767 105.1187660  84.6673144  89.8826684 116.2460939  68.1880197
  90.3951205 117.0404190  68.3385761  90.5349397 115.5487230  68.1213798
  95.8332587 106.2234960  81.8686883  96.5742301 106.8242113  81.7891346
  96.0650510 105.4812598  81.3104926  90.9773925 111.4091328  80.1465113
  90.8627441 110.5076585  80.4472212  90.1218443 111.6555024  79.7949930
  99.7789750 102.2516063  76.1451165  99.4354020 103.1417705  76.0690276
 100.1468713 102.0617721  75.2820750  87.8475601 114.5749594  68.9639767
  88.6850823 114.9846602  68.7473475  88.0253869 113.6349036  68.9339961
  99.7440033 112.2424674  64.6523600  99.2286656 113.0129279  64.8911988
  99.4717341 111.5689811  65.2756662  97.3287144 107.0874375  69.7108838
  96.4728740 106.6981226  69.5314477  97.7414096 107.1666336  68.8508624
  98.8586291 104.6220718  74.1100398  98.3551086 104.5850854  73.2968204
  99.1516898 105.5313461  74.1697055  95.1029177 104.7059448  73.1166580
  95.9682173 104.5102257  72.7572469  95.1706685 104.4769800  74.0435937
  99.5326336 110.1151766  66.4783381  99.2276472 110.4297916  67.3293524
 100.4856778 110.1933186  66.5210714  92.7091496 106.9361656  70.4882947
  93.2835248 106.7136838  69.7556140  93.2962478 107.0050351  71.2411548
  93.0361083 108.9666117  64.5078832  92.1998395 109.3040804  64.8288107
  92.8965852 108.8315097  63.5705969  95.0114163 103.8102905  69.2158016
  94.3578576 103.4951922  68.5914631  94.9694638 103.1878645  69.9417839
  96.1225368 114.0922200  61.1311308  95.2152430 113.8611454  61.3302457
  96.6196400 113.2959819  61.3185290  98.2451904 110.2984839  73.5405664
  97.3274465 110.5199786  73.3827352  98.6612047 110.3731149  72.6817371
  99.0286951 111.6976254  68.6708344  99.7758770 112.2097651  68.3615466
  99.2978541 111.3760307  69.5312738  97.3013602 114.1934795  65.6535298
  96.3924821 113.9093828  65.7507768  97.3308685 114.6133873  64.7938605
 101.4765789 108.7333370  70.6527133 100.7388545 108.2210757  70.9837376
 101.7292562 108.2933752  69.8410410 101.5777416 101.5109622  71.2468903
 101.8836293 100.6506986  70.9594818 102.3030021 102.1027243  71.0467897
  87.8701772 111.9140309  69.6350501  87.6726172 111.3209670  68.9101567
  87.3148436 111.6092519  70.3526439  95.8498496 111.8063416  71.7545094
  95.9047105 110.8537252  71.6787570  95.0389698 111.9622855  72.2386392
  93.7890856 110.4240475  69.5135473  92.9758721 110.7234646  69.9200665
  94.2849850 110.0296164  70.2309955  99.3865067 110.8882300  78.3450367
  99.7414455 111.1153773  79.2044832 100.0337199 111.2200677  77.7227622
  93.2804930 107.9958831  75.1296708  93.9204310 107.8547590  74.4319671
  92.4482461 107.7093344  74.7535310  94.0565234 117.2961261  71.2431700
  94.8505833 116.8011581  71.0414275  93.3456927 116.7679124  70.8799406
  90.3647998 111.4404343  67.3191453  89.4345586 111.3788798  67.5361415
  90.4605470 110.9180296  66.5228094  90.2833547 107.9659156  69.9069694
  90.5440364 108.8804489  69.7978855  91.1050719 107.4983598  70.0566307
  91.7558472 109.3796913  77.0768519  92.4281526 109.1714275  76.4281168
  90.9288259 109.1818999  76.6373751  97.6584044 106.0058854  79.0934180
  97.0111959 106.7048804  78.9998656  98.4285060 106.4394998  79.4610428
  97.8348179 113.8439619  77.1530999  98.7640239 113.9950778  76.9799967
  97.4139209 113.9323640  76.2979646  92.1585969 112.6539516  77.8370956
  92.0205767 111.9219755  78.4382495  93.0690893 112.5648416  77.5555144
  94.7868270 112.3659475  77.3254636  95.4967889 111.7252667  77.2841254
  94.7437578 112.6172370  78.2480816  93.4997204 109.3524693  79.1450275
  92.9634561 108.9015432  79.7971872  92.9113913 109.4870602  78.4020740
  92.9099463 108.8113345  61.7076739  92.0328929 108.6902145  61.3438986
  93.3857216 108.0199423  61.4555627  84.4301603 113.5990504  71.8018246
  85.1172643 113.2852234  71.2139261  84.2749732 114.5031869  71.5285497
  89.2336325 108.4880701  76.2303270  89.1494514 107.8806370  75.4953680
  88.4119032 108.9789719  76.2312766  99.4060039 106.9734264  71.5973465
  99.9028739 106.2204227  71.2774535  98.6347021 107.0098581  71.0316674
  95.9895008 109.1151647  71.3245149  95.6192795 108.5622688  72.0126055
  96.4854100 108.5109781  70.7720149 101.8479034 103.9403858  73.7452824
 100.9342114 104.1708085  73.9135031 102.2772135 104.0242302  74.5966856
 101.6185492 112.1293750  76.2452718 100.9656943 112.3769657  75.5905170
 101.9965872 111.3157888  75.9115195  97.6673065 112.8713561  82.7318755
  96.9913702 112.7707690  83.4021130  98.4900699 112.7152775  83.1954752
  89.4151925 119.1085497  75.3531270  90.0005361 118.3629185  75.4859174
  89.2176763 119.4189454  76.2367934  84.0069579 111.6791098  74.0735713
  84.0453679 111.1454688  74.8672831  83.5009872 111.1526303  73.4546690
  91.3860342 106.5255638  77.5698255  91.4501668 107.3870469  77.1575653
  91.3227462 105.9129640  76.8370614  90.8612614 108.5978771  81.2171290
  91.4884653 108.2155848  81.8308814  90.0040533 108.3792973  81.5826982
  87.6378157 110.4055200  67.1489644  87.9331598 109.4965878  67.0956698
  86.7366193 110.3842939  66.8270647  91.1672404 108.4811196  73.1317193
  90.4458990 109.0947164  72.9924666  91.9565660 109.0168961  73.0533839
  93.9698717 105.8165623  79.4057845  94.4933119 106.0627919  80.1684154
  93.7511051 106.6485658  78.9860982  89.3665998 108.0869297  67.2728970
  89.0378705 107.2066676  67.0904076  89.7205369 108.0316966  68.1605359
  92.4807822 108.3742267  67.6404447  92.8203894 108.9028188  66.9183056
  92.9279942 108.7122673  68.4163014  95.1751262 106.7579318  77.0907515
  94.8348083 105.9587131  77.4928195  94.4690269 107.0581029  76.5184349
  95.8267734 103.8428630  75.5434838  96.6493804 103.3689109  75.4213729
  96.0705798 104.6219114  76.0433525  94.4675969 106.8716889  65.8397740
  95.1884331 107.2498142  65.3361457  93.8441273 107.5905766  65.9432718
  98.6107092 107.5762038  66.7756072  98.8270706 108.4586676  66.4744901
  98.1301159 107.1848251  66.0461714  93.3506313 110.5347751  73.3526817
  93.2050894 110.8488054  74.2451099  92.8731517 111.1532651  72.7997716
  95.2102696 107.5250299  73.4007707  95.1964265 106.6291392  73.0640005
  95.9275124 107.5320963  74.0345993  97.0628827 107.9587639  75.4460834
  96.8046604 108.8804710  75.4445164  96.5313867 107.5618074  76.1361298
  87.8251975 113.0753095  76.2914478  87.2805443 113.8512903  76.4234753
  88.7031325 113.4223900  76.1333600  94.6139592 106.4064679  68.6695277
  94.7355503 105.4781325  68.8686164  94.3241634 106.4203365  67.7573592
  97.4830782 104.0919590  71.8061997  97.5052479 104.1558923  70.8513976
  97.8998841 103.2524098  72.0002503  88.6117997 112.2022992  79.1844635
  87.8699733 112.3505627  79.7709265  88.2910741 112.4631257  78.3211384
  89.0574611 120.0888420  71.2155030  89.8832631 119.7892192  70.8353673
  88.7068663 119.3196043  71.6644818  87.2583216 118.0074747  72.1743963
  86.4215124 117.5796921  71.9927965  87.2306861 118.2007190  73.1114754
  94.0980671 107.9196677  82.8785209  94.1468827 108.7958799  82.4962979
  94.6403186 107.3774070  82.3056853 101.9937154 111.2961194  80.7878382
 102.8947017 111.1567659  80.4962379 102.0685129 111.4615649  81.7276559
  96.3279960 108.6728049  79.6331568  95.4583269 108.9661615  79.3614157
  96.5639440 109.2568494  80.3538832  91.3422284 114.0183990  67.7672233
  91.0968326 113.1146320  67.9652443  91.5118198 114.0201140  66.8251711
  99.0318994 104.8907666  77.1496988  99.5500937 105.6268693  76.8243477
  98.6774126 105.1971659  77.9843747  90.6117931 109.7512347  65.2658394
  89.9187176 109.8256702  64.6098430  90.3669683 108.9872691  65.7879911
  99.2831588 101.3107949  72.6697885  99.5633342 100.6431138  73.2958311
 100.0682195 101.5037044  72.1572549 103.1540446 109.7325583  76.4169460
 104.1057869 109.8323680  76.4381684 102.9843897 108.9403851  76.9267544
 101.1754826 106.8181166  76.6028861 100.5804758 107.0986178  75.9075350
 100.8904522 107.3075067  77.3745602  97.4711855 111.8227755  61.5738964
  98.4170960 111.6933963  61.6427382  97.0926100 111.0842417  62.0508392
 105.7823012 109.7442746  75.5770043 105.2662061 108.9601202  75.3899972
 106.6662961 109.4161462  75.7416562 103.4433739 103.4883761  71.5365856
 103.2458560 103.1798849  72.4209188 104.0533445 104.2145400  71.6663785
  95.6554772 109.7477732  61.5093849  94.7486227 109.4510844  61.5856563
  95.9330753 109.4507550  60.6428135  86.5732712 111.0684095  71.9592895
  86.2535497 110.2149403  71.6667269  86.0266141 111.2832673  72.7150863
  90.3512620 113.7846536  75.6762402  90.5698630 114.7163644  75.6950436
  90.7638394 113.4254510  76.4617206  97.2716838 104.2914621  67.6638090
  96.4617566 103.9461706  68.0393336  97.9601255 103.9822165  68.2525702
  99.2007386 103.3692668  69.2862387  99.7538425 103.7888122  69.9452410
  99.4377472 102.4428416  69.3285343  95.2240485 109.3579742  85.0665151
  95.1237212 110.3074099  84.9977242  95.0062027 109.0297981  84.1941221
  94.4253557 106.6064667  61.6505828  95.2872721 106.9319565  61.9101646
  94.6103901 105.8196163  61.1378894  86.4420972 114.6887006  73.9286017
  85.7484444 114.2740959  73.4155971  87.1893963 114.7307543  73.3319436
 102.5786193 105.4793193  68.7941051 101.9984862 106.1377997  68.4119104
 102.3122126 104.6570538  68.3828469 101.0289759 104.8798251  70.9962372
 101.5289538 104.9914785  70.1876690 101.6725367 104.5759304  71.6363180
  95.0871755 112.7876881  83.8830212  94.6038837 113.5877241  84.0894102
  95.1732694 112.7984825  82.9297656  88.3557715 114.6205260  71.8052032
  88.3328403 114.7192948  70.8533915  88.6658351 115.4670411  72.1269198
  91.0145093 116.6781415  75.9198646  91.9688346 116.6465358  75.8528578
  90.8157616 116.2172039  76.7348872  91.6044475 115.2482531  78.4869444
  92.4237364 115.7426610  78.5104281  91.8781283 114.3314499  78.4587011
 101.3611071 107.6393284  67.8497399 100.4736926 107.9242934  67.6317594
 101.7765060 107.4787047  67.0024676 104.7125607 107.6639805  71.5651739
 105.4885997 108.1536257  71.8376356 103.9873741 108.0897859  72.0223608
 107.1498166 108.3767424  72.6225679 107.7442657 108.1363160  71.9118988
 107.2224750 107.6574554  73.2499216 105.1456901 108.9437551  68.8897809
 104.8893835 108.5434187  69.7206017 104.5209769 109.6581345  68.7647948
  86.8579389 109.5820665  79.1861641  87.5038253 109.0719619  79.6748866
  86.6496540 110.3189347  79.7605066  95.3783000 103.8460710  64.9385537
  95.3661669 104.7902550  65.0953808  96.2706421 103.6630855  64.6444998
  99.1935119 100.4403486  69.1931474  98.4267515  99.8861973  69.3388156
  99.6045824 100.5125355  70.0545626  91.1976880 106.7288282  83.2836655
  92.0608342 106.3725087  83.4939980  90.6242291 106.3902177  83.9712059
  35.1668977  -1.9391163  60.8144363  35.8047387  -2.0584415  60.1107703
  35.0489820  -0.9910319  60.8732315  31.9758683  -1.9863734  60.7505888
  31.6377195  -2.1022670  59.8626422  32.8448451  -2.3872569  60.7306894
  27.8345499  -0.1328258  56.7402779  27.2710364  -0.2238321  55.9719066
  27.7197894  -0.9528354  57.2205271  32.4578466  -0.8328883  66.7092093
  32.4467107  -1.2276084  65.8372597  32.6199106  -1.5662810  67.3025865
  25.3809931   1.3622934  59.5786999  26.1731223   1.0213758  59.1633298
  25.6206581   1.4717909  60.4989152  33.4145058   3.5342710  52.0517243
  32.7633037   4.1196790  51.6651257  34.2089420   4.0648905  52.1112281
  27.3400685   0.6231847  52.4504378  28.1131561   0.0760834  52.3117254
  27.6926084   1.4876096  52.6618839  29.1785727   1.9508229  65.6571277
  28.8875593   2.8553860  65.5417943  29.8142712   1.9924757  66.3715347
  30.1041934  -0.6714922  62.2472637  30.7005506  -0.8958900  61.5329600
  30.1616906  -1.4130177  62.8498085  34.7210245  -4.2139709  57.8897571
  35.5073335  -4.6320286  57.5387988  34.9848950  -3.3093616  58.0579219
  34.8920323   1.2233142  52.5886228  34.2566156   1.2967768  53.3007132
  34.5617729   1.8126740  51.9105307  40.1218672  -4.2764475  58.7930549
  40.8543844  -4.8465259  59.0268379  39.3658028  -4.6642875  59.2337055
  29.3963251  -1.3147381  52.2847203  29.2799509  -1.9902478  52.9528287
  29.5065511  -1.8015007  51.4679356  31.7394792  -1.8537234  55.9893892
  31.3752999  -2.3806613  56.7006813  32.5961908  -2.2438765  55.8160377
  34.1375612   1.6369645  62.6521071  33.8376335   2.5394683  62.5436878
  33.7926672   1.3701828  63.5042224  37.5372756  -5.8447815  60.3318508
  36.6289633  -5.9132407  60.0377269  37.4860352  -5.3675870  61.1600334
  29.1196392   8.4013965  55.6192038  29.0420422   9.3521790  55.6980519
  28.5158036   8.0559837  56.2766965  39.4034403  -7.6431377  62.1096382
  38.7608783  -7.3498844  61.4636177  38.8989331  -7.7578456  62.9149579
  37.0574566  -3.8968204  52.7982241  37.9692422  -3.6640817  52.6229939
  36.5484213  -3.3131159  52.2357320  29.8659994  -1.6172716  67.8371372
  30.6074679  -1.0787672  67.5606196  29.1596980  -0.9906427  67.9942924
  35.3415334   0.5256424  66.4343534  35.7498690   0.0838835  65.6898166
  34.6192595  -0.0490948  66.6877727  35.6644149   1.0857615  60.1895823
  35.0353011   1.2503329  59.4871891  35.2769811   1.4999224  60.9606787
  39.5433380   2.0212053  57.5440186  38.8584419   2.4010954  56.9937220
  39.6277230   2.6307379  58.2772134  36.7984312  -0.3327988  64.1435530
  37.0101207   0.3103772  63.4669911  36.7514060  -1.1665672  63.6757460
  31.2172110   0.8232023  57.4545908  31.6810456   1.1019726  56.6650530
  30.9528909  -0.0784532  57.2718999  28.1096191   0.3703504  60.3925671
  28.6797549   0.7990773  59.7543156  28.7004303   0.0886089  61.0909857
  37.9130140   2.5443967  62.3157887  38.7347584   2.1424154  62.0340569
  37.9092543   2.4412201  63.2674003  31.6786743   2.0928010  64.4718598
  31.7431176   2.5548418  65.3076770  30.9697667   1.4625375  64.6000908
  46.0036133  -1.1117284  58.6642859  45.2499841  -1.6809886  58.5086863
  46.1383674  -1.1454620  59.6113494  31.3934761   3.7596118  54.3397578
  31.2580436   4.6047654  54.7682426  31.9344574   3.9615396  53.5763512
  24.8464158   1.2771556  54.9125503  25.3588679   2.0714806  55.0631068
  25.4986871   0.5797846  54.8459105  26.6559043   4.3937312  56.9948256
  26.8325672   5.3155277  56.8069240  27.4515877   4.0795731  57.4242636
  33.0203237   4.3819684  68.4697920  32.5767092   3.5956063  68.1518825
  33.6820451   4.5698835  67.8041811  27.7790359   5.9115486  62.9958599
  28.3297784   5.7832549  62.2235593  26.9401835   6.2110375  62.6453492
  35.1184476   4.6622484  66.4979322  35.1002951   5.4831365  66.0059591
  36.0404396   4.5376560  66.7229463  31.5757530   2.1766614  67.3402830
  32.1085866   1.4154902  67.1102138  31.0471611   1.8840266  68.0826984
  34.7077507  -2.7264709  51.3768907  34.1924131  -1.9560104  51.6157294
  34.4354816  -3.3999573  52.0001968  39.6811781   0.0267646  53.3122080
  38.9041224  -0.3121195  52.8677242  40.3603262   0.0320269  52.6377045
  34.4963811  -4.8537617  53.2028688  34.1913946  -4.5391468  54.0538831
  35.4494253  -4.7756197  53.2456021  32.9410242   1.3052606  54.8521642
  32.4131604   0.5705366  54.5394879  32.4397745   2.0827283  54.6061610
  37.9203088  -0.4998373  59.9688688  37.2626763   0.1900888  60.0568817
  38.7243488  -0.1101941  60.3122675  36.7308547  -2.1454000  58.0192630
  37.2440429  -1.5124009  58.5214340  37.3809771  -2.7452805  57.6535990
  31.0862843  -0.8767183  47.8556615  30.1789904  -1.1077930  48.0547764
  31.5833875  -1.6729564  48.0430596  33.9930921   7.8330324  50.7753301
  33.3192620   8.1362021  51.3838259  34.3796743   8.6359404  50.4258758
  33.2089378  -4.6704545  60.2650970  32.2911939  -4.4489598  60.1072659
  33.6249522  -4.5958234  59.4062678  33.9924426  -3.2713129  55.3953651
  34.7396245  -2.7591732  55.0860773  34.2616015  -3.5929077  56.2558044
  32.2651076  -0.7754589  52.3780605  31.3562295  -1.0595556  52.4753075
  32.2946160  -0.3555510  51.5183912  37.4970343   2.8352001  56.1471773
  37.0432671   1.9942911  56.2036963  36.8664310   3.4713399  56.4846553
  36.4403263  -6.2356013  57.3772440  35.7026020  -6.7478627  57.7082683
  36.6930037  -6.6755631  56.5655717  35.9403283   4.6728498  57.0821591
  36.2326257   5.2333555  56.3633956  36.4501903   4.9657059  57.8374750
  31.9627164   0.7654155  49.7168684  31.5246594   0.0490014  49.2574321
  32.7037605   0.9930270  49.1553775  30.9036908   5.4508849  58.1715044
  30.8613087   5.6769695  57.2423576  31.8199607   5.2172223  58.3200845
  34.3502542  -4.0807084  65.0695673  34.7051929  -3.8535611  65.9290139
  34.9974673  -3.7488707  64.4472928  40.0800279  -0.9588648  55.7745002
  39.9418177  -0.7687052  54.8466191  39.7236497  -0.1969265  56.2313053
  40.1069658   1.1087879  60.7856274  40.5406165   1.0163168  61.6339328
  40.8201239   1.0845380  60.1476290  29.0202709   2.3271878  57.9677007
  29.8143307   1.8322198  57.7659582  28.3094401   1.7989741  57.6044712
  33.8397553   4.7089973  62.3189374  33.8934575   5.2780910  63.0867090
  32.9712334   4.8791858  61.9543411  40.9685208   1.1511580  63.3189159
  41.1621098   2.0557390  63.5648434  40.8685826   0.6918999  64.1527744
  36.0300316   1.3018323  68.8930040  35.8785823   1.0728874  67.9760123
  36.0204996   2.2588924  68.9061385  32.7985653  -1.1249765  63.8776306
  33.7277713  -0.9738605  63.7045273  32.3776683  -1.0365744  63.0224953
  31.5973985   2.9000900  61.6474844  31.4585070   2.5319684  62.5200782
  30.8088581   3.4148539  61.4758802  32.1922137   8.0009996  52.9900380
  32.3673892   7.5298039  53.8046003  31.5054925   8.6275762  53.2181641
  33.1479200   2.2782502  59.0363682  32.8129032   2.2383272  59.9321331
  32.6483145   1.6127218  58.5634092  36.0838391  -0.3761463  49.3100741
  35.4667562  -1.1014635  49.2133794  35.6154880   0.3847897  48.9667815
  29.7505744  -2.6029908  64.0499942  30.4605363  -3.2436716  64.0086561
  29.7075053  -2.3517013  64.9726123  37.7392523   4.3337445  66.9706522
  37.6805069   3.6496665  66.3037105  38.1412041   5.0756435  66.5187148
  26.7583222  11.1499359  59.7640240  26.9979820  11.7817883  60.4419259
  25.9152418  10.7987399  60.0505600  37.7409930   2.2977029  65.2020501
  36.8536709   1.9602951  65.3246900  38.3108481   1.5660060  65.4389267
  31.2711084   6.9578481  62.1681744  31.1981255   7.7633453  62.6801049
  30.8288477   7.1570447  61.3429766  31.0600863   6.1950251  55.6784566
  30.2768385   6.7371932  55.7722791  31.7593609   6.7124231  56.0778807
  42.2227271  -2.2914754  59.9637063  42.2117147  -1.4090038  59.5930996
  41.3544650  -2.6443203  59.7691600  33.7309767   6.8565315  64.3239903
  34.4437739   7.4912780  64.2515805  33.2399796   6.9529181  63.5079905
  35.4527294   0.7616568  55.8957195  34.5183573   0.8818031  55.7261899
  35.6303963  -0.1410965  55.6317205  38.8399846  -3.3966113  56.4307229
  39.3060298  -2.5638121  56.3567532  39.2907346  -3.8621131  57.1352487
  28.7821681   4.6059759  65.1445474  29.4831140   5.2396242  65.2974868
  28.3116796   4.9474490  64.3841113  36.9076077   2.9477709  53.4293381
  37.1835921   2.8334303  54.3387255  36.0380575   2.5495194  53.3905554
  36.5822967  -2.8395634  62.9698024  35.9294417  -2.5919726  62.3150477
  36.9603347  -3.6531495  62.6360502  33.5430141   7.1964060  57.0726195
  33.7252535   6.3785715  57.5353947  34.3663127   7.4131752  56.6351085
  33.8772306   6.1232245  54.3341243  34.4060073   5.6124699  53.7211405
  34.1400526   5.8074775  55.1986776  32.6310540  -2.0975823  69.4564061
  31.9551177  -2.1981693  70.1266437  33.4538174  -2.2536609  69.9200059
  24.3789399   4.1396114  62.0776577  24.9642836   3.3939802  62.2104481
  24.1814237   4.4500071  62.9613241  27.2328054   7.1747361  57.0939019
  26.5638429   7.6593489  56.6103059  27.0940924   7.4216582  58.0082398
  31.3733323   9.2091105  63.6921677  31.9251631   9.3722726  64.4570763
  31.7139516   9.7995543  63.0201702  36.2244197   4.0352362  69.5470332
  36.7684101   4.6482321  69.0525287  35.6431042   4.5931941  70.0637345
  34.5101710   7.1573080  60.6785360  34.3852849   6.3562820  60.1696305
  35.1680801   7.6519274  60.1899329  36.5736618   4.9582100  62.3064910
  35.6266954   4.8387452  62.2343236  36.9219391   4.0704599  62.3891171
  33.5783052   4.7534817  58.5069262  33.4308014   3.8251524  58.6876832
  34.4036545   4.7754907  58.0226337  37.1817173   5.5763375  59.5934135
  38.1063721   5.3706237  59.4558586  37.0132477   5.3279777  60.5023476
  36.9712490   6.0949043  54.9496226  37.1449367   5.5295465  54.1970078
  37.4641381   6.8949938  54.7675716  42.8251881  -1.1414534  56.5686526
  43.2683027  -1.8907209  56.1705649  41.9478391  -1.1504398  56.1860258
  37.9587662   5.4115807  52.0493124  38.6538567   6.0322500  52.2680439
  38.3010812   4.5611159  52.3245502  39.8579085   2.8615513  53.5780455
  40.3830409   3.2002786  52.8529775  39.7701438   1.9262528  53.3943590
  31.5199134   6.7749586  65.7070332  31.8286260   6.5298733  66.5793031
  32.3174616   6.9796225  65.2189202  31.5419746   8.9287496  57.9375708
  31.1024736   8.4363875  58.6308565  32.2927863   8.3860464  57.6967784
  24.0212085   5.1199037  57.9400336  24.8470105   4.8202809  57.5598980
  23.6706137   4.3506659  58.3890125  28.9893618   4.4725505  60.0098010
  28.3673627   3.8096210  59.7100238  29.6598485   4.4986637  59.3271658
  39.5472991   3.4948416  68.8831653  38.7568535   3.4772555  68.3436152
  39.3106346   4.0336710  69.6380690  39.6670866   0.3440883  66.1964382
  39.7168871   0.1790890  67.1379904  39.5584790  -0.5231858  65.8062262
  28.5507125   3.0229429  53.4856470  28.6995245   3.7064893  52.8323143
  29.3573569   3.0034519  54.0005926  36.9574629  -3.6728189  67.5123688
  37.8584492  -3.8121724  67.2207686  37.0322603  -3.5073734  68.4521866
  41.1689063   2.7637824  66.4406403  40.8773872   3.1267805  67.2769864
  40.5561195   2.0504833  66.2619735  42.3684746   0.3290704  58.9608973
  43.2031637   0.7680508  59.1246534  42.5043874  -0.1470643  58.1417219
  39.4176251  -2.1129561  64.9086461  39.8930373  -1.9201915  64.1005312
  38.4941817  -2.0570375  64.6629845  32.0502531   5.5177559  50.9568218
  31.4776498   6.1367746  50.5038690  32.6235324   6.0676921  51.4908140
  38.1177920  -5.2363801  63.1414767  39.0695343  -5.1365703  63.1626991
  37.9481371  -6.0285532  63.6512851  35.2699790   5.8014709  52.0876800
  36.2030464   5.7360271  52.2909676  35.1823003   6.6370976  51.6291333
  37.8987807   5.1180579  49.0480748  37.8201439   4.7840443  49.9416506
  38.7197474   5.6102347  49.0472220  40.5965998  -2.0157681  62.2557066
  40.5642318  -2.9541681  62.4416750  41.2066622  -1.9373645  61.5222891
  32.4349329  -3.1461628  48.2984270  33.3808434  -3.2755420  48.3672688
  32.0563574  -3.8846966  48.7753699  40.7460487  -5.2246638  62.3015350
  40.2299535  -6.0088181  62.1145278  41.6300435  -5.5527921  62.4661869
  46.4142548  -0.9541674  61.3963103  47.1445937  -1.2156386  61.9570806
  45.8049494  -1.6912952  61.4365171  44.4957845  -2.8133812  61.9937554
  43.7691009  -2.9477847  61.3854046  44.0805132  -2.5056983  62.7994272
  32.3188022   0.9056118  69.7584927  33.2391031   1.0834717  69.9524974
  32.2837605  -0.0387837  69.6064627  30.0509230  -2.1812503  70.6075519
  29.5676311  -1.3812143  70.8139408  30.1370169  -2.1704558  69.6542963
  25.9782567   1.7092032  62.6443953  26.9325821   1.6775974  62.5773884
  25.7795091   1.2482656  63.4594179  26.5681949   0.2793148  65.2114751
  27.3874838   0.7737227  65.2349588  26.8418757  -0.6374884  65.1832318
  36.3248545  -7.3296100  54.5742706  35.4374400  -7.0446449  54.3562901
  36.7402534  -7.4902336  53.7269983  39.6763082  -7.3049579  58.2897045
  40.4523472  -6.8153126  58.5621662  38.9511216  -6.8791525  58.7468915
  42.1135640  -6.5921960  59.3470986  42.7080131  -6.8326224  58.6364294
  42.1862224  -7.3114829  59.9744522  24.3332796   7.2511651  59.6614151
  24.1987264   6.4912052  59.0952149  23.9164858   7.9752551  59.1942940
  35.4691759   2.4348575  48.6690726  36.1727609   2.6398577  49.2848382
  34.7454408   3.0025337  48.9339810  36.2989569  -1.8141564  54.7892996
  36.2424771  -1.3573012  53.9500629  36.8517912  -2.5750879  54.6115839
  40.1094375  -6.0251832  55.6143116  39.8531309  -6.4255196  56.4451323
  39.4847243  -5.3108038  55.4893255  44.4206713  -3.2855759  58.1214407
  43.8606271  -3.2162569  58.8945969  43.8150216  -3.4614774  57.4013903
  27.4901922   8.1480968  59.8732593  27.3734306   9.0926401  59.7711284
  26.6694368   7.8454530  60.2618393  37.3778456   2.8731104  50.7189186
  38.2124060   2.4412303  50.5366661  37.2162799   2.7013118  51.6466081
  37.0324348  -0.6236783  52.0845525  36.9773152  -0.7892511  51.1433970
  36.4070404   0.0839250  52.2407715  34.3470256   1.6812129  71.4099088
  35.2161415   1.8552782  71.0485723  33.8677007   2.5006546  71.2874818
  28.5156436   8.8009230  63.0888522  29.4183683   8.8332840  63.4055017
  28.2893806   7.8709681  63.1034858  30.2710038   7.5540217  59.7498600
  29.3205669   7.5542078  59.6362973  30.5742524   6.8072951  59.2334635
  46.0062731  13.3900755  60.8144363  46.6441141  13.2707503  60.1107703
  45.8883574  14.3381599  60.8732315  42.8152438  13.3428183  60.7505888
  42.4770949  13.2269248  59.8626422  43.6842206  12.9419348  60.7306894
  38.6739253  15.1963660  56.7402779  38.1104118  15.1053597  55.9719066
  38.5591648  14.3763564  57.2205271  43.2972221  14.4963035  66.7092093
  43.2860861  14.1015833  65.8372597  43.4592860  13.7629108  67.3025865
  36.2203685  16.6914851  59.5786999  37.0124977  16.3505676  59.1633298
  36.4600335  16.8009826  60.4989152  44.2538812  18.8634627  52.0517243
  43.6026792  19.4488708  51.6651257  45.0483175  19.3940822  52.1112281
  38.1794439  15.9523765  52.4504378  38.9525315  15.4052752  52.3117254
  38.5319838  16.8168014  52.6618839  40.0179482  17.2800147  65.6571277
  39.7269348  18.1845778  65.5417943  40.6536466  17.3216674  66.3715347
  40.9435689  14.6576995  62.2472637  41.5399261  14.4333018  61.5329600
  41.0010660  13.9161741  62.8498085  40.5160717  12.1116431  50.0822828
  40.7686238  11.5897952  49.3206291  39.5785276  11.9482576  50.1849511
  45.5604000  11.1152209  57.8897571  46.3467089  10.6971632  57.5387988
  45.8242704  12.0198301  58.0579219  45.7314077  16.5525059  52.5886228
  45.0959910  16.6259686  53.3007132  45.4011484  17.1418658  51.9105307
  50.9612427  11.0527442  58.7930549  51.6937599  10.4826659  59.0268379
  50.2051783  10.6649043  59.2337055  40.2357006  14.0144537  52.2847203
  40.1193264  13.3389440  52.9528287  40.3459266  13.5276911  51.4679356
  42.5788547  13.4754684  55.9893892  42.2146754  12.9485305  56.7006813
  43.4355663  13.0853153  55.8160377  48.4837847   4.7649016  63.2525158
  48.1521172   5.6344427  63.0286373  47.8883461   4.4485300  63.9319188
  42.2194034   8.5044583  50.9855240  42.3868436   9.3724820  51.3525711
  42.0291203   8.6671865  50.0616530  44.9769367  16.9661562  62.6521071
  44.6770090  17.8686601  62.5436878  44.6320426  16.6993746  63.5042224
  38.4281848  13.4175359  58.6857775  37.5032345  13.2851573  58.8935467
  38.6766262  14.1969578  59.1827718  48.3766511   9.4844102  60.3318508
  47.4683388   9.4159511  60.0377269  48.3254106   9.9616047  61.1600334
  42.1983255  10.9602241  51.9701907  42.0782880  11.4059292  52.8087387
  41.5035843  11.3087559  51.4115445  35.7890659  13.0608633  59.5201564
  35.9183041  13.3143112  60.4340976  35.1088111  13.6536341  59.2006219
  39.9590147  23.7305883  55.6192038  39.8814176  24.6813708  55.6980519
  39.3551790  23.3851755  56.2766965  42.4507376  10.9033748  68.2753405
  41.6740710  11.4627668  68.2656270  43.0897939  11.3890531  68.7968275
  50.2428157   7.6860541  62.1096382  49.6002537   7.9793074  61.4636177
  49.7383086   7.5713461  62.9149579  47.8968321  11.4323714  52.7982241
  48.8086177  11.6651101  52.6229939  47.3877968  12.0160758  52.2357320
  40.7053749  13.7119201  67.8371372  41.4468433  14.2504245  67.5606196
  39.9990734  14.3385490  67.9942924  46.1809088  15.8548342  66.4343534
  46.5892444  15.4130752  65.6898166  45.4586350  15.2800969  66.6877727
  42.5340158  10.7920949  63.8077091  43.3801354  11.2160362  63.9511740
  42.4738796  10.1354573  64.5015654  46.5037903  16.4149533  60.1895823
  45.8746765  16.5795247  59.4871891  46.1163565  16.8291142  60.9606787
  50.3827135  17.3503970  57.5440186  49.6978173  17.7302872  56.9937220
  50.4670984  17.9599297  58.2772134  45.6839604   8.4525317  65.4658264
  45.4400536   9.2067378  64.9292540  45.9599534   8.8310665  66.3005511
  47.6378067  14.9963929  64.1435530  47.8494962  15.6395689  63.4669911
  47.5907815  14.1626246  63.6757460  45.2404295   7.6081750  61.0472102
  44.3788775   7.9063004  61.3388840  45.2666730   7.8252149  60.1153135
  42.0565865  16.1523941  57.4545908  42.5204210  16.4311644  56.6650530
  41.7922663  15.2507385  57.2718999  38.9489946  15.6995422  60.3925671
  39.5191303  16.1282691  59.7543156  39.5398058  15.4178007  61.0909857
  40.9934751  12.2747093  54.2635473  41.6958794  12.7268137  54.7309399
  40.6615379  11.6330912  54.8915366  39.4415112  10.8658850  68.6386682
  38.8113773  11.5475130  68.8722079  39.3351200  10.7541931  67.6939821
  34.7360085  10.5330646  59.5652607  33.9459139  10.7888174  59.0892717
  35.2271332  11.3478984  59.6704647  48.7523894  17.8735885  62.3157887
  49.5741338  17.4716072  62.0340569  48.7486297  17.7704119  63.2674003
  36.6874830  10.8975225  56.5236083  35.8905994  11.0093919  57.0419579
  36.4600422  11.2361877  55.6576974  42.5180498  17.4219928  64.4718598
  42.5824930  17.8840335  65.3076770  41.8091422  16.7917293  64.6000908
  33.0197788  10.7861136  61.9967597  33.2705826  11.6708146  62.2625173
  33.5557336  10.6065738  61.2242689  56.8429888  14.2174633  58.6642859
  56.0893596  13.6482031  58.5086863  56.9777429  14.1837298  59.6113494
  42.2328516  19.0888036  54.3397578  42.0974190  19.9339571  54.7682426
  42.7738328  19.2907313  53.5763512  38.7195855   5.1679615  71.0011933
  38.3262801   4.6145814  71.6759578  39.5361996   5.4790194  71.3918451
  35.6857913  16.6063474  54.9125503  36.1982434  17.4006724  55.0631068
  36.3380626  15.9089764  54.8459105  37.4952798  19.7229230  56.9948256
  37.6719426  20.6447195  56.8069240  38.2909631  19.4087649  57.4242636
  41.6363816   6.5837495  68.5932190  42.3773530   7.1844648  68.5136652
  41.8681739   5.8415132  68.0350233  36.7805154  11.7693862  66.8710420
  36.6658669  10.8679119  67.1717519  35.9249672  12.0157559  66.5195236
  43.8596992  19.7111602  68.4697920  43.4160846  18.9247981  68.1518825
  44.5214206  19.8990753  67.8041811  38.6184113  21.2407404  62.9958599
  39.1691538  21.1124467  62.2235593  37.7795589  21.5402293  62.6453492
  45.9578230  19.9914402  66.4979322  45.9396705  20.8123283  66.0059591
  46.8798150  19.8668477  66.7229463  42.4151284  17.5058532  67.3402830
  42.9479621  16.7446820  67.1102138  41.8865365  17.2132183  68.0826984
  45.5820979   2.6118597  62.8696472  45.2385249   3.5020239  62.7935582
  45.9499942   2.4220255  62.0066057  33.6506830  14.9352128  55.6885074
  34.4882052  15.3449136  55.4718782  33.8285097  13.9951570  55.6585268
  45.5471262  12.6027209  51.3768907  45.0317885  13.3731813  51.6157294
  45.2748570  11.9292345  52.0001968  43.1318373   7.4476909  56.4354145
  42.2759969   7.0583760  56.2559784  43.5445325   7.5268870  55.5753931
  44.6617520   4.9823253  60.8345705  44.1582315   4.9453388  60.0213510
  44.9548126   5.8915995  60.8942362  40.9060405   5.0661982  59.8411887
  41.7713402   4.8704791  59.4817776  40.9737914   4.8372334  60.7681243
  50.5205536  15.3559563  53.3122080  49.7434979  15.0170723  52.8677242
  51.1997017  15.3612186  52.6377045  45.3357565  10.4754301  53.2028688
  45.0307701  10.7900450  54.0538831  46.2888007  10.5535721  53.2456021
  43.7803997  16.6344524  54.8521642  43.2525358  15.8997284  54.5394879
  43.2791500  17.4119200  54.6061610  48.7596843  14.8293545  59.9688688
  48.1020517  15.5192806  60.0568817  49.5637242  15.2189976  60.3122675
  38.5122724   7.2964190  57.2128253  39.0866476   7.0739372  56.4801446
  39.0993707   7.3652885  57.9656855  47.5702302  13.1837917  58.0192630
  48.0834183  13.8167909  58.5214340  48.2203526  12.5839113  57.6535990
  38.8392312   9.3268651  51.2324139  38.0029624   9.6643338  51.5533413
  38.6997081   9.1917631  50.2951276  40.8145392   4.1705439  55.9403323
  40.1609805   3.8554456  55.3159938  40.7725866   3.5481180  56.6663146
  41.9256597  14.4524734  47.8556615  41.0183659  14.2213988  48.0547764
  42.4227629  13.6562354  48.0430596  44.8324676  23.1622241  50.7753301
  44.1586375  23.4653938  51.3838259  45.2190498  23.9651322  50.4258758
  44.0483133  10.6587373  60.2650970  43.1305694  10.8802320  60.1072659
  44.4643276  10.7333683  59.4062678  44.8318180  12.0578788  55.3953651
  45.5789999  12.5700186  55.0860773  45.1009770  11.7362841  56.2558044
  43.1044830  14.5537329  52.3780605  42.1956050  14.2696362  52.4753075
  43.1339914  14.9736408  51.5183912  48.3364098  18.1643919  56.1471773
  47.8826425  17.3234829  56.2036963  47.7058065  18.8005317  56.4846553
  47.2797017   9.0935905  57.3772440  46.5419774   8.5813291  57.7082683
  47.5323791   8.6536286  56.5655717  46.7797037  20.0020415  57.0821591
  47.0720012  20.5625472  56.3633956  47.2895658  20.2948976  57.8374750
  47.3808645   1.8712157  57.9714209  47.6867522   1.0109520  57.6840124
  48.1061250   2.4629777  57.7713203  33.6733001  12.2742843  56.3595807
  33.4757401  11.6812204  55.6346874  33.1179665  11.9695053  57.0771746
  41.6529725  12.1665950  58.4790400  41.7078334  11.2139786  58.4032877
  40.8420927  12.3225389  58.9631699  42.8020918  16.0946073  49.7168684
  42.3640348  15.3781932  49.2574321  43.5431359  16.3222188  49.1553775
  39.5922084  10.7843009  56.2380779  38.7789950  11.0837180  56.6445971
  40.0881079  10.3898698  56.9555262  41.7430662  20.7800766  58.1715044
  41.7006841  21.0061613  57.2423576  42.6593361  20.5464141  58.3200845
  45.1896296  11.2484834  65.0695673  45.5445684  11.4756307  65.9290139
  45.8368427  11.5803211  64.4472928  50.9194033  14.3703270  55.7745002
  50.7811932  14.5604866  54.8466191  50.5630252  15.1322653  56.2313053
  39.0836159   8.3561365  61.8542014  39.7235539   8.2150124  61.1564978
  38.2513690   8.0695878  61.4780616  50.9463413  16.4379797  60.7856274
  51.3799919  16.3455086  61.6339328  51.6594993  16.4137297  60.1476290
  39.8596463  17.6563795  57.9677007  40.6537062  17.1614116  57.7659582
  39.1488155  17.1281659  57.6044712  44.6791308  20.0381891  62.3189374
  44.7328330  20.6072827  63.0867090  43.8106089  20.2083776  61.9543411
  36.1679227  11.8006877  54.0436759  35.2376815  11.7391333  54.2606721
  36.2636699  11.2782830  53.2473401  36.0864776   8.3261690  56.6315001
  36.3471593   9.2407023  56.5224161  36.9081948   7.8586133  56.7811614
  37.5589701   9.7399447  63.8013826  38.2312754   9.5316809  63.1526474
  36.7319487   9.5421533  63.3619058  51.8078962  16.4803498  63.3189159
  52.0014852  17.3849308  63.5648434  51.7079580  16.0210917  64.1527744
  43.4615273   6.3661388  65.8179486  42.8143188   7.0651338  65.7243963
  44.2316288   6.7997532  66.1855735  46.8694071  16.6310240  68.8930040
  46.7179577  16.4020792  67.9760123  46.8598750  17.5880842  68.9061385
  43.6379407  14.2042153  63.8776306  44.5671467  14.3553313  63.7045273
  43.2170437  14.2926174  63.0224953  42.4367739  18.2292817  61.6474844
  42.2978825  17.8611602  62.5200782  41.6482335  18.7440457  61.4758802
  43.0315891  23.3301914  52.9900380  43.2067647  22.8589957  53.8046003
  42.3448679  23.9567680  53.2181641  43.9872954  17.6074420  59.0363682
  43.6522787  17.5675190  59.9321331  43.4876900  16.9419136  58.5634092
  37.9617198  13.0142050  64.5616263  37.8236996  12.2822289  65.1627802
  38.8722122  12.9250950  64.2800450  46.9232146  14.9530454  49.3100741
  46.3061317  14.2277283  49.2133794  46.4548634  15.7139815  48.9667815
  40.5899499  12.7262009  64.0499942  41.2999117  12.0855202  64.0086561
  40.5468807  12.9774904  64.9726123  48.5786278  19.6629363  66.9706522
  48.5198824  18.9788583  66.3037105  48.9805796  20.4048353  66.5187148
  39.3028433   9.7127227  65.8695582  38.7665790   9.2617966  66.5217178
  38.7145141   9.8473136  65.1266046  37.5976976  26.4791277  59.7640240
  37.8373575  27.1109801  60.4419259  36.7546173  26.1279317  60.0505600
  38.7130692   9.1715879  48.4322045  37.8360158   9.0504680  48.0684292
  39.1888445   8.3801957  48.1800934  48.5803685  17.6268947  65.2020501
  47.6930464  17.2894869  65.3246900  49.1502236  16.8951978  65.4389267
  30.2332832  13.9593038  58.5263553  30.9203872  13.6454769  57.9384568
  30.0780961  14.8634403  58.2530804  35.0367554   8.8483235  62.9548576
  34.9525743   8.2408905  62.2198986  34.2150260   9.3392253  62.9558073
  42.1104838  22.2870399  62.1681744  42.0375010  23.0925371  62.6801049
  41.6682231  22.4862365  61.3429766  41.8994618  21.5242169  55.6784566
  41.1162140  22.0663849  55.7722791  42.5987363  22.0416149  56.0778807
  45.2091268   7.3336799  58.3218771  45.7059968   6.5806761  58.0019842
  44.4378249   7.3701115  57.7561981  53.0621025  13.0377164  59.9637063
  53.0510902  13.9201880  59.5930996  52.1938405  12.6848715  59.7691600
  44.5703522  22.1857233  64.3239903  45.2831494  22.8204698  64.2515805
  44.0793550  22.2821099  63.5079905  46.2921049  16.0908486  55.8957195
  45.3577327  16.2109948  55.7261899  46.4697717  15.1880953  55.6317205
  41.7926237   9.4754182  58.0490456  41.4224024   8.9225222  58.7371362
  42.2885329   8.8712315  57.4965456  49.6793600  11.9325805  56.4307229
  50.1454052  12.7653797  56.3567532  50.1301101  11.4670787  57.1352487
  39.6215435  19.9351677  65.1445474  40.3224895  20.5688160  65.2974868
  39.1510550  20.2766408  64.3841113  47.7469831  18.2769626  53.4293381
  48.0229675  18.1626221  54.3387255  46.8774330  17.8787111  53.3905554
  47.6510263   4.3006392  60.4698130  46.7373343   4.5310619  60.6380337
  48.0803364   4.3844836  61.3212163  47.4216721  12.4896284  62.9698024
  46.7688171  12.7372191  62.3150477  47.7997101  11.6760422  62.6360502
  44.3823895  22.5255977  57.0726195  44.5646290  21.7077633  57.5353947
  45.2056881  22.7423669  56.6351085  44.7166061  21.4524162  54.3341243
  45.2453827  20.9416617  53.7211405  44.9794280  21.1366693  55.1986776
  43.4704294  13.2316095  69.4564061  42.7944931  13.1310224  70.1266437
  44.2931928  13.0755309  69.9200059  35.2183153  19.4688032  62.0776577
  35.8036590  18.7231720  62.2104481  35.0207992  19.7791988  62.9613241
  38.0721809  22.5039279  57.0939019  37.4032184  22.9885407  56.6103059
  37.9334678  22.7508499  58.0082398  29.8100808  12.0393632  60.7981020
  29.8484908  11.5057223  61.5918138  29.3041101  11.5128837  60.1791997
  42.2127077  24.5383023  63.6921677  42.7645385  24.7014644  64.4570763
  42.5533271  25.1287460  63.0201702  37.1891570   6.8858172  64.2943562
  37.2532897   7.7473003  63.8820960  37.1258691   6.2732174  63.5615921
  36.6643843   8.9581305  67.9416596  37.2915882   8.5758382  68.5554121
  35.8071762   8.7395507  68.3072289  47.0637951  19.3644280  69.5470332
  47.6077855  19.9774238  69.0525287  46.4824796  19.9223858  70.0637345
  33.4409386  10.7657734  53.8734951  33.7362827   9.8568412  53.8202005
  32.5397421  10.7445473  53.5515953  45.3495464  22.4864998  60.6785360
  45.2246604  21.6854738  60.1696305  46.0074556  22.9811191  60.1899329
  36.9703633   8.8413731  59.8562500  36.2490218   9.4549698  59.7169973
  37.7596888   9.3771495  59.7779146  47.4130373  20.2874018  62.3064910
  46.4660708  20.1679369  62.2343236  47.7613146  19.3996516  62.3891171
  39.7729946   6.1768157  66.1303152  40.2964348   6.4230454  66.8929461
  39.5542279   7.0088192  65.7106289  35.1697227   8.4471832  53.9974276
  34.8409933   7.5669211  53.8149382  35.5236598   8.3919500  54.8850666
  44.4176806  20.0826734  58.5069262  44.2701769  19.1543442  58.6876832
  45.2430300  20.1046825  58.0226337  38.2839050   8.7344801  54.3649754
  38.6235123   9.2630723  53.6428362  38.7311171   9.0725208  55.1408321
  48.0210928  20.9055293  59.5934135  48.9457475  20.6998154  59.4558586
  47.8526231  20.6571694  60.5023476  40.9782491   7.1181852  63.8152822
  40.6379312   6.3189665  64.2173502  40.2721497   7.4183563  63.2429655
  41.6298963   4.2031165  62.2680145  42.4525032   3.7291643  62.1459035
  41.8737027   4.9821648  62.7678831  40.2707198   7.2319423  52.5643047
  40.9915560   7.6100676  52.0606764  39.6472502   7.9508300  52.6678025
  44.4138320   7.9364572  53.5001379  44.6301935   8.8189210  53.1990207
  43.9332388   7.5450785  52.7707021  39.1537542  10.8950285  60.0772124
  39.0082123  11.2090588  60.9696405  38.6762745  11.5135186  59.5243022
  41.0133925   7.8852833  60.1253013  40.9995493   6.9893927  59.7885311
  41.7306353   7.8923497  60.7591299  42.8660055   8.3190173  62.1706141
  42.6077833   9.2407244  62.1690471  42.3345096   7.9220608  62.8606605
  47.8106244  21.4240961  54.9496226  47.9843122  20.8587383  54.1970078
  48.3035135  22.2241855  54.7675716  33.6283204  13.4355630  63.0159785
  33.0836672  14.2115438  63.1480059  34.5062554  13.7826434  62.8578906
  40.4170821   6.7667214  55.3940583  40.5386732   5.8383860  55.5931471
  40.1272863   6.7805899  54.4818899  43.2862011   4.4522124  58.5307303
  43.3083708   4.5161457  57.5759283  43.7030070   3.6126633  58.7247809
  53.6645635  14.1877384  56.5686526  54.1076781  13.4384709  56.1705649
  52.7872146  14.1787520  56.1860258  48.7981417  20.7407725  52.0493124
  49.4932321  21.3614418  52.2680439  49.1404567  19.8903076  52.3245502
  34.4149226  12.5625526  65.9089942  33.6730962  12.7108161  66.4954572
  34.0941970  12.8233792  65.0456691  50.6972840  18.1907430  53.5780455
  51.2224164  18.5294703  52.8529775  50.6095192  17.2554446  53.3943590
  42.3592888  22.1041504  65.7070332  42.6680015  21.8590651  66.5793031
  43.1568370  22.3088143  65.2189202  42.3813501  24.2579414  57.9375708
  41.9418491  23.7655792  58.6308565  43.1321617  23.7152381  57.6967784
  34.8605840  20.4490955  57.9400336  35.6863859  20.1494726  57.5598980
  34.5099891  19.6798577  58.3890125  39.8287373  19.8017423  60.0098010
  39.2067382  19.1388128  59.7100238  40.4992240  19.8278555  59.3271658
  33.0614445  18.3677281  58.8989270  32.2246353  17.9399455  58.7173271
  33.0338090  18.5609724  59.8360061  39.9011900   8.2799211  69.6030516
  39.9500056   9.1561334  69.2208286  40.4434414   7.7376604  69.0302159
  50.3866746  18.8240334  68.8831653  49.5962290  18.8064473  68.3436152
  50.1500100  19.3628628  69.6380690  50.5064621  15.6732801  66.1964382
  50.5562626  15.5082808  67.1379904  50.3978544  14.8060060  65.8062262
  39.3900880  18.3521346  53.4856470  39.5389000  19.0356811  52.8323143
  40.1967323  18.3326436  54.0005926  47.7968383  11.6563729  67.5123688
  48.6978246  11.5170193  67.2207686  47.8716358  11.8218183  68.4521866
  42.1311189   9.0330583  66.3576875  41.2614498   9.3264149  66.0859463
  42.3670669   9.6171028  67.0784138  52.0082818  18.0929742  66.4406403
  51.7167626  18.4559723  67.2769864  51.3954949  17.3796750  66.2619735
  53.2078500  15.6582622  58.9608973  54.0425391  16.0972426  59.1246534
  53.3437629  15.1821275  58.1417219  50.2570006  13.2162357  64.9086461
  50.7324128  13.4090003  64.1005312  49.3335571  13.2721542  64.6629845
  37.1453513  14.3786524  54.4917539  36.8999554  13.4748854  54.6897750
  37.3149427  14.3803674  53.5497017  44.8350222   5.2510200  63.8742295
  45.3532166   5.9871227  63.5488784  44.4805355   5.5574194  64.7089054
  36.4149160  10.1114881  51.9903701  35.7218405  10.1859236  51.3343737
  36.1700912   9.3475225  52.5125218  45.0862817   1.6710483  59.3943192
  45.3664570   1.0033672  60.0203618  45.8713424   1.8639578  58.8817855
  42.8896285  20.8469477  50.9568218  42.3170252  21.4659664  50.5038690
  43.4629079  21.3968838  51.4908140  48.9571675  10.0928117  63.1414767
  49.9089098  10.1926214  63.1626991  48.7875125   9.3006385  63.6512851
  46.9786054   7.1783700  63.3274168  46.3835987   7.4588713  62.6320656
  46.6935751   7.6677601  64.0990909  46.1093545  21.1306627  52.0876800
  47.0424218  21.0652188  52.2909676  46.0216758  21.9662894  51.6291333
  48.7381562  20.4472497  49.0480748  48.6595193  20.1132361  49.9416506
  49.5591228  20.9394265  49.0472220  51.4359753  13.3134236  62.2557066
  51.4036073  12.3750237  62.4416750  52.0460376  13.3918273  61.5222891
  43.2743084  12.1830289  48.2984270  44.2202188  12.0536498  48.3672688
  42.8957329  11.4444951  48.7753699  51.5854241  10.1045280  62.3015350
  51.0693290   9.3203736  62.1145278  52.4694190   9.7763996  62.4661869
  49.2464968   3.8486295  58.2611162  49.0489789   3.5401384  59.1454494
  49.8564674   4.5747934  58.3909092  57.2536303  14.3750243  61.3963103
  57.9839691  14.1135531  61.9570806  56.6443248  13.6378965  61.4365171
  55.3351600  12.5158106  61.9937554  54.6084763  12.3814071  61.3854046
  54.9198887  12.8234934  62.7994272  43.1581776  16.2348036  69.7584927
  44.0784786  16.4126635  69.9524974  43.1231359  15.2904081  69.6064627
  41.4586001  10.1080266  48.2339156  40.5517456   9.8113378  48.3101869
  41.7361982   9.8110084  47.3673442  32.3763941  11.4286629  58.6838202
  32.0566725  10.5751937  58.3912576  31.8297369  11.6435207  59.4396169
  36.1543849  14.1449070  62.4007709  36.3729858  15.0766178  62.4195742
  36.5669623  13.7857045  63.1862512  43.0748066   4.6517155  54.3883397
  42.2648795   4.3064240  54.7638643  43.7632483   4.3424699  54.9771008
  45.0038615   3.7295202  56.0107694  45.5569653   4.1490656  56.6697717
  45.2408701   2.8030950  56.0530650  41.0271714   9.7182276  71.7910457
  40.9268441  10.6676633  71.7222549  40.8093256   9.3900515  70.9186528
  40.2284785   6.9667201  48.3751135  41.0903949   7.2922099  48.6346952
  40.4135130   6.1798697  47.8624201  32.2452201  15.0489541  60.6531324
  31.5515673  14.6343493  60.1401278  32.9925192  15.0910077  60.0564743
  48.3817422   5.8395727  55.5186358  47.8016091   6.4980531  55.1364410
  48.1153355   5.0173072  55.1073775  46.8320988   5.2400785  57.7207678
  47.3320767   5.3517320  56.9121997  47.4756596   4.9361838  58.3608487
  40.8902984  13.1479415  70.6075519  40.4070066  13.9479775  70.8139408
  40.9763923  13.1587360  69.6542963  34.1588944  14.9807794  58.5297338
  34.1359632  15.0795482  57.5779222  34.4689580  15.8272945  58.8514505
  36.8176322  17.0383949  62.6443953  37.7719575  17.0067892  62.5773884
  36.6188845  16.5774573  63.4594179  37.4075704  15.6085066  65.2114751
  38.2268593  16.1029144  65.2349588  37.6812511  14.6917034  65.1832318
  47.1642300   7.9995818  54.5742706  46.2768155   8.2845468  54.3562901
  47.5796289   7.8389581  53.7269983  50.5156836   8.0242339  58.2897045
  51.2917226   8.5138791  58.5621662  49.7904970   8.4500393  58.7468915
  52.9529395   8.7369958  59.3470986  53.5473885   8.4965694  58.6364294
  53.0255978   8.0177089  59.9744522  35.1726550  22.5803569  59.6614151
  35.0381018  21.8203970  59.0952149  34.7558613  23.3044469  59.1942940
  46.3085513  17.7640493  48.6690726  47.0121363  17.9690495  49.2848382
  45.5848162  18.3317254  48.9339810  47.1383324  13.5150354  54.7892996
  47.0818525  13.9718905  53.9500629  47.6911666  12.7541038  54.6115839
  50.9488130   9.3040086  55.6143116  50.6925064   8.9036721  56.4451323
  50.3240998  10.0183880  55.4893255  55.2600467  12.0436159  58.1214407
  54.7000025  12.1129348  58.8945969  54.6543971  11.8677144  57.4013903
  38.3295676  23.4772886  59.8732593  38.2128060  24.4218318  59.7711284
  37.5088122  23.1746448  60.2618393  48.2172211  18.2023022  50.7189186
  49.0517815  17.7704220  50.5366661  48.0556554  18.0305035  51.6466081
  47.8718103  14.7055135  52.0845525  47.8166907  14.5399406  51.1433970
  47.2464158  15.4131168  52.2407715  32.6610618   9.9423199  65.9106948
  33.3069482   9.4322153  66.3994173  32.4527769  10.6791881  66.4850373
  45.1864010  17.0104047  71.4099088  46.0555170  17.1844699  71.0485723
  44.7070762  17.8298464  71.2874818  41.1814228   4.2063244  51.6630844
  41.1692898   5.1505084  51.8199115  42.0737650   4.0233389  51.3690305
  39.3550190  24.1301148  63.0888522  40.2577437  24.1624758  63.4055017
  39.1287560  23.2001599  63.1034858  41.1103792  22.8832134  59.7498600
  40.1599423  22.8833996  59.6362973  41.4136278  22.1364869  59.2334635
  44.9966348   0.8006021  55.9176781  44.2298744   0.2464507  56.0633463
  45.4077053   0.8727889  56.7790932  37.0008109   7.0890816  70.0081962
  37.8639570   6.7327621  70.2185286  36.4273520   6.7504711  70.6957366
  56.8456486  28.7192673  60.8144363  57.4834896  28.5999420  60.1107703
  56.7277329  29.6673517  60.8732315  53.6546192  28.6720101  60.7505888
  53.3164704  28.5561166  59.8626422  54.5235960  28.2711266  60.7306894
  54.1365975  29.8254953  66.7092093  54.1254616  29.4307751  65.8372597
  54.2986615  29.0921025  67.3025865  47.0597440  32.0206769  59.5786999
  47.8518732  31.6797594  59.1633298  47.2994090  32.1301744  60.4989152
  55.0932567  34.1926545  52.0517243  54.4420546  34.7780625  51.6651257
  55.8876929  34.7232740  52.1112281  50.8573236  32.6092064  65.6571277
  50.5663102  33.5137695  65.5417943  51.4930221  32.6508592  66.3715347
  51.7829443  29.9868913  62.2472637  52.3793015  29.7624935  61.5329600
  51.8404415  29.2453658  62.8498085  51.3554472  27.4408348  50.0822828
  51.6079992  26.9189870  49.3206291  50.4179031  27.2774494  50.1849511
  56.3997754  26.4444127  57.8897571  57.1860844  26.0263550  57.5387988
  56.6636459  27.3490219  58.0579219  56.5707832  31.8816977  52.5886228
  55.9353665  31.9551604  53.3007132  56.2405238  32.4710576  51.9105307
  61.8006181  26.3819360  58.7930549  62.5331353  25.8118577  59.0268379
  61.0445537  25.9940960  59.2337055  51.0750760  29.3436454  52.2847203
  50.9587018  28.6681358  52.9528287  51.1853020  28.8568828  51.4679356
  53.4182301  28.8046601  55.9893892  53.0540508  28.2777222  56.7006813
  54.2749417  28.4145070  55.8160377  59.3231602  20.0940934  63.2525158
  58.9914927  20.9636345  63.0286373  58.7277215  19.7777218  63.9319188
  53.0587788  23.8336501  50.9855240  53.2262191  24.7016737  51.3525711
  52.8684957  23.9963783  50.0616530  55.8163121  32.2953480  62.6521071
  55.5163844  33.1978519  62.5436878  55.4714181  32.0285663  63.5042224
  49.2675603  28.7467277  58.6857775  48.3426099  28.6143491  58.8935467
  49.5160016  29.5261496  59.1827718  59.2160265  24.8136020  60.3318508
  58.3077142  24.7451429  60.0377269  59.1647861  25.2907965  61.1600334
  53.0377009  26.2894159  51.9701907  52.9176634  26.7351209  52.8087387
  52.3429597  26.6379476  51.4115445  46.6284414  28.3900550  59.5201564
  46.7576795  28.6435029  60.4340976  45.9481865  28.9828258  59.2006219
  53.2901131  26.2325666  68.2753405  52.5134465  26.7919586  68.2656270
  53.9291694  26.7182449  68.7968275  61.0821912  23.0152459  62.1096382
  60.4396292  23.3084992  61.4636177  60.5776840  22.9005379  62.9149579
  58.7362075  26.7615632  52.7982241  59.6479931  26.9943019  52.6229939
  58.2271722  27.3452676  52.2357320  51.5447503  29.0411119  67.8371372
  52.2862188  29.5796163  67.5606196  50.8384489  29.6677408  67.9942924
  57.0202843  31.1840260  66.4343534  57.4286199  30.7422670  65.6898166
  56.2980104  30.6092887  66.6877727  53.3733913  26.1212866  63.8077091
  54.2195108  26.5452280  63.9511740  53.3132551  25.4646491  64.5015654
  57.3431658  31.7441450  60.1895823  56.7140520  31.9087164  59.4871891
  56.9557320  32.1583060  60.9606787  61.2220889  32.6795888  57.5440186
  60.5371928  33.0594789  56.9937220  61.3064739  33.2891215  58.2772134
  56.5233358  23.7817235  65.4658264  56.2794290  24.5359295  64.9292540
  56.7993289  24.1602582  66.3005511  58.4771821  30.3255847  64.1435530
  58.6888716  30.9687607  63.4669911  58.4301569  29.4918164  63.6757460
  56.0798050  22.9373668  61.0472102  55.2182529  23.2354921  61.3388840
  56.1060485  23.1544067  60.1153135  52.8959619  31.4815858  57.4545908
  53.3597965  31.7603561  56.6650530  52.6316417  30.5799303  57.2718999
  49.7883700  31.0287340  60.3925671  50.3585058  31.4574608  59.7543156
  50.3791812  30.7469925  61.0909857  51.8328505  27.6039011  54.2635473
  52.5352549  28.0560054  54.7309399  51.5009134  26.9622830  54.8915366
  50.2808867  26.1950767  68.6386682  49.6507528  26.8767048  68.8722079
  50.1744955  26.0833849  67.6939821  45.5753839  25.8622563  59.5652607
  44.7852893  26.1180092  59.0892717  46.0665087  26.6770901  59.6704647
  59.5917649  33.2027803  62.3157887  60.4135093  32.8007990  62.0340569
  59.5880052  33.0996037  63.2674003  47.5268585  26.2267143  56.5236083
  46.7299748  26.3385837  57.0419579  47.2994177  26.5653795  55.6576974
  53.3574252  32.7511846  64.4718598  53.4218685  33.2132253  65.3076770
  52.6485176  32.1209211  64.6000908  43.8591542  26.1153054  61.9967597
  44.1099581  27.0000064  62.2625173  44.3951091  25.9357655  61.2242689
  67.6823642  29.5466551  58.6642859  66.9287350  28.9773949  58.5086863
  67.8171183  29.5129215  59.6113494  49.5589610  20.4971533  71.0011933
  49.1656555  19.9437732  71.6759578  50.3755750  20.8082112  71.3918451
  52.4757571  21.9129412  68.5932190  53.2167284  22.5136565  68.5136652
  52.7075494  21.1707050  68.0350233  47.6198909  27.0985779  66.8710420
  47.5052424  26.1971037  67.1717519  46.7643426  27.3449476  66.5195236
  54.6990746  35.0403520  68.4697920  54.2554601  34.2539898  68.1518825
  55.3607960  35.2282670  67.8041811  56.7971984  35.3206320  66.4979322
  56.7790460  36.1415201  66.0059591  57.7191905  35.1960395  66.7229463
  53.2545039  32.8350449  67.3402830  53.7873375  32.0738737  67.1102138
  52.7259120  32.5424101  68.0826984  56.4214734  17.9410515  62.8696472
  56.0779003  18.8312157  62.7935582  56.7893696  17.7512173  62.0066057
  44.4900584  30.2644046  55.6885074  45.3275806  30.6741054  55.4718782
  44.6678852  29.3243488  55.6585268  56.3865016  27.9319126  51.3768907
  55.8711640  28.7023731  51.6157294  56.1142325  27.2584262  52.0001968
  53.9712127  22.7768827  56.4354145  53.1153724  22.3875677  56.2559784
  54.3839079  22.8560788  55.5753931  55.5011274  20.3115170  60.8345705
  54.9976070  20.2745305  60.0213510  55.7941881  21.2207913  60.8942362
  51.7454160  20.3953900  59.8411887  52.6107157  20.1996709  59.4817776
  51.8131669  20.1664252  60.7681243  61.3599290  30.6851481  53.3122080
  60.5828733  30.3462640  52.8677242  62.0390771  30.6904104  52.6377045
  56.1751320  25.8046218  53.2028688  55.8701455  26.1192368  54.0538831
  57.1281762  25.8827638  53.2456021  54.6197751  31.9636442  54.8521642
  54.0919113  31.2289201  54.5394879  54.1185254  32.7411118  54.6061610
  59.5990597  30.1585462  59.9688688  58.9414272  30.8484724  60.0568817
  60.4030997  30.5481894  60.3122675  49.3516479  22.6256108  57.2128253
  49.9260231  22.4031289  56.4801446  49.9387461  22.6944802  57.9656855
  58.4096056  28.5129835  58.0192630  58.9227938  29.1459827  58.5214340
  59.0597280  27.9131030  57.6535990  49.6786066  24.6560569  51.2324139
  48.8423378  24.9935256  51.5533413  49.5390836  24.5209549  50.2951276
  51.6539147  19.4997357  55.9403323  51.0003559  19.1846374  55.3159938
  51.6119621  18.8773097  56.6663146  52.7650352  29.7816652  47.8556615
  51.8577413  29.5505905  48.0547764  53.2621384  28.9854271  48.0430596
  54.8876887  25.9879290  60.2650970  53.9699448  26.2094237  60.1072659
  55.3037031  26.0625601  59.4062678  55.6711935  27.3870706  55.3953651
  56.4183754  27.8992103  55.0860773  55.9403524  27.0654759  56.2558044
  53.9438585  29.8829247  52.3780605  53.0349804  29.5988280  52.4753075
  53.9733669  30.3028325  51.5183912  59.1757852  33.4935836  56.1471773
  58.7220179  32.6526746  56.2036963  58.5451819  34.1297235  56.4846553
  58.1190772  24.4227822  57.3772440  57.3813529  23.9105209  57.7082683
  58.3717545  23.9828204  56.5655717  58.2202399  17.2004074  57.9714209
  58.5261276  16.3401438  57.6840124  58.9455004  17.7921695  57.7713203
  44.5126755  27.6034761  56.3595807  44.3151155  27.0104122  55.6346874
  43.9573419  27.2986971  57.0771746  52.4923479  27.4957867  58.4790400
  52.5472089  26.5431704  58.4032877  51.6814681  27.6517307  58.9631699
  53.6414673  31.4237990  49.7168684  53.2034103  30.7073849  49.2574321
  54.3825114  31.6514105  49.1553775  50.4315839  26.1134927  56.2380779
  49.6183704  26.4129098  56.6445971  50.9274833  25.7190616  56.9555262
  56.0290051  26.5776752  65.0695673  56.3839438  26.8048225  65.9290139
  56.6762182  26.9095128  64.4472928  61.7587788  29.6995188  55.7745002
  61.6205686  29.8896783  54.8466191  61.4024006  30.4614570  56.2313053
  49.9229914  23.6853283  61.8542014  50.5629293  23.5442042  61.1564978
  49.0907444  23.3987796  61.4780616  61.7857167  31.7671715  60.7856274
  62.2193674  31.6747004  61.6339328  62.4988748  31.7429215  60.1476290
  55.5185062  35.3673809  62.3189374  55.5722084  35.9364745  63.0867090
  54.6499843  35.5375694  61.9543411  47.0072981  27.1298795  54.0436759
  46.0770569  27.0683250  54.2606721  47.1030453  26.6074748  53.2473401
  46.9258530  23.6553608  56.6315001  47.1865347  24.5698941  56.5224161
  47.7475702  23.1878050  56.7811614  48.3983455  25.0691365  63.8013826
  49.0706509  24.8608727  63.1526474  47.5713242  24.8713451  63.3619058
  62.6472717  31.8095415  63.3189159  62.8408607  32.7141226  63.5648434
  62.5473335  31.3502834  64.1527744  54.3009027  21.6953306  65.8179486
  53.6536943  22.3943255  65.7243963  55.0710043  22.1289450  66.1855735
  57.7087825  31.9602158  68.8930040  57.5573332  31.7312710  67.9760123
  57.6992505  32.9172759  68.9061385  54.4773162  29.5334071  63.8776306
  55.4065222  29.6845230  63.7045273  54.0564192  29.6218091  63.0224953
  53.2761494  33.5584735  61.6474844  53.1372579  33.1903519  62.5200782
  52.4876090  34.0732375  61.4758802  54.8266709  32.9366338  59.0363682
  54.4916541  32.8967108  59.9321331  54.3270654  32.2711054  58.5634092
  48.8010953  28.3433968  64.5616263  48.6630751  27.6114207  65.1627802
  49.7115876  28.2542868  64.2800450  57.7625900  30.2822372  49.3100741
  57.1455071  29.5569200  49.2133794  57.2942389  31.0431732  48.9667815
  51.4293253  28.0553927  64.0499942  52.1392872  27.4147119  64.0086561
  51.3862562  28.3066822  64.9726123  59.4180032  34.9921280  66.9706522
  59.3592578  34.3080501  66.3037105  59.8199550  35.7340270  66.5187148
  50.1422187  25.0419145  65.8695582  49.6059544  24.5909883  66.5217178
  49.5538896  25.1765054  65.1266046  49.5524446  24.5007796  48.4322045
  48.6753913  24.3796597  48.0684292  50.0282199  23.7093875  48.1800934
  59.4197439  32.9560864  65.2020501  58.5324218  32.6186786  65.3246900
  59.9895990  32.2243896  65.4389267  41.0726586  29.2884956  58.5263553
  41.7597626  28.9746686  57.9384568  40.9174715  30.1926321  58.2530804
  45.8761309  24.1775153  62.9548576  45.7919497  23.5700822  62.2198986
  45.0544015  24.6684171  62.9558073  56.0485022  22.6628716  58.3218771
  56.5453722  21.9098679  58.0019842  55.2772004  22.6993033  57.7561981
  63.9014780  28.3669082  59.9637063  63.8904656  29.2493797  59.5930996
  63.0332159  28.0140633  59.7691600  55.4097276  37.5149151  64.3239903
  56.1225248  38.1496616  64.2515805  54.9187305  37.6113017  63.5079905
  57.1314803  31.4200403  55.8957195  56.1971082  31.5401866  55.7261899
  57.3091472  30.5172870  55.6317205  52.6319991  24.8046099  58.0490456
  52.2617779  24.2517140  58.7371362  53.1279084  24.2004233  57.4965456
  60.5187354  27.2617723  56.4307229  60.9847807  28.0945714  56.3567532
  60.9694855  26.7962704  57.1352487  50.4609190  35.2643594  65.1445474
  51.1618649  35.8980077  65.2974868  49.9904305  35.6058326  64.3841113
  58.5863586  33.6061544  53.4293381  58.8623430  33.4918139  54.3387255
  57.7168084  33.2079029  53.3905554  58.4904017  19.6298310  60.4698130
  57.5767097  19.8602537  60.6380337  58.9197119  19.7136754  61.3212163
  58.2610476  27.8188202  62.9698024  57.6081926  28.0664109  62.3150477
  58.6390856  27.0052340  62.6360502  54.3098049  28.5608013  69.4564061
  53.6338686  28.4602142  70.1266437  55.1325683  28.4047227  69.9200059
  46.0576908  34.7979949  62.0776577  46.6430345  34.0523637  62.2104481
  45.8601746  35.1083906  62.9613241  40.6494563  27.3685550  60.7981020
  40.6878662  26.8349140  61.5918138  40.1434855  26.8420755  60.1791997
  48.0285325  22.2150090  64.2943562  48.0926651  23.0764921  63.8820960
  47.9652445  21.6024092  63.5615921  47.5037597  24.2873223  67.9416596
  48.1309636  23.9050300  68.5554121  46.6465516  24.0687425  68.3072289
  57.9031706  34.6936198  69.5470332  58.4471610  35.3066156  69.0525287
  57.3218551  35.2515776  70.0637345  44.2803140  26.0949652  53.8734951
  44.5756581  25.1860330  53.8202005  43.3791176  26.0737391  53.5515953
  56.1889219  37.8156916  60.6785360  56.0640358  37.0146656  60.1696305
  56.8468310  38.3103109  60.1899329  47.8097387  24.1705648  59.8562500
  47.0883973  24.7841616  59.7169973  48.5990643  24.7063413  59.7779146
  58.2524127  35.6165936  62.3064910  57.3054463  35.4971287  62.2343236
  58.6006900  34.7288434  62.3891171  50.6123701  21.5060075  66.1303152
  51.1358102  21.7522371  66.8929461  50.3936034  22.3380110  65.7106289
  46.0090982  23.7763749  53.9974276  45.6803688  22.8961128  53.8149382
  46.3630352  23.7211418  54.8850666  55.2570561  35.4118652  58.5069262
  55.1095523  34.4835359  58.6876832  56.0824054  35.4338743  58.0226337
  49.1232805  24.0636719  54.3649754  49.4628877  24.5922640  53.6428362
  49.5704925  24.4017125  55.1408321  58.8604682  36.2347211  59.5934135
  59.7851230  36.0290072  59.4558586  58.6919986  35.9863612  60.5023476
  51.8176246  22.4473770  63.8152822  51.4773066  21.6481583  64.2173502
  51.1115252  22.7475481  63.2429655  52.4692718  19.5323082  62.2680145
  53.2918787  19.0583560  62.1459035  52.7130781  20.3113566  62.7678831
  51.1100952  22.5611341  52.5643047  51.8309315  22.9392594  52.0606764
  50.4866256  23.2800218  52.6678025  55.2532075  23.2656490  53.5001379
  55.4695689  24.1481128  53.1990207  54.7726142  22.8742703  52.7707021
  49.9931296  26.2242203  60.0772124  49.8475877  26.5382506  60.9696405
  49.5156500  26.8427103  59.5243022  51.8527679  23.2144751  60.1253013
  51.8389248  22.3185844  59.7885311  52.5700107  23.2215415  60.7591299
  53.7053810  23.6482091  62.1706141  53.4471588  24.5699162  62.1690471
  53.1738850  23.2512526  62.8606605  44.4676958  28.7647547  63.0159785
  43.9230427  29.5407355  63.1480059  45.3456308  29.1118352  62.8578906
  51.2564575  22.0959131  55.3940583  51.3780486  21.1675777  55.5931471
  50.9666617  22.1097817  54.4818899  54.1255765  19.7814042  58.5307303
  54.1477462  19.8453375  57.5759283  54.5423825  18.9418550  58.7247809
  64.5039390  29.5169301  56.5686526  64.9470536  28.7676626  56.1705649
  63.6265900  29.5079438  56.1860258  45.2542980  27.8917444  65.9089942
  44.5124716  28.0400079  66.4954572  44.9335725  28.1525709  65.0456691
  61.5366594  33.5199348  53.5780455  62.0617918  33.8586621  52.8529775
  61.4488947  32.5846363  53.3943590  53.1986643  37.4333422  65.7070332
  53.5073769  37.1882569  66.5793031  53.9962125  37.6380060  65.2189202
  43.9008199  33.6969199  58.8989270  43.0640107  33.2691373  58.7173271
  43.8731844  33.8901642  59.8360061  50.7405655  23.6091129  69.6030516
  50.7893810  24.4853251  69.2208286  51.2828169  23.0668522  69.0302159
  61.2260500  34.1532252  68.8831653  60.4356044  34.1356391  68.3436152
  60.9893855  34.6920545  69.6380690  61.3458375  31.0024718  66.1964382
  61.3956380  30.8374726  67.1379904  61.2372299  30.1351977  65.8062262
  58.6362138  26.9855646  67.5123688  59.5372001  26.8462111  67.2207686
  58.7110112  27.1510101  68.4521866  52.9704943  24.3622501  66.3576875
  52.1008253  24.6556067  66.0859463  53.2064423  24.9462946  67.0784138
  62.8476572  33.4221660  66.4406403  62.5561381  33.7851640  67.2769864
  62.2348703  32.7088668  66.2619735  64.0472255  30.9874539  58.9608973
  64.8819146  31.4264344  59.1246534  64.1831383  30.5113193  58.1417219
  61.0963760  28.5454274  64.9086461  61.5717882  28.7381921  64.1005312
  60.1729326  28.6013460  64.6629845  55.6743977  20.5802118  63.8742295
  56.1925921  21.3163145  63.5488784  55.3199110  20.8866111  64.7089054
  47.2542915  25.4406799  51.9903701  46.5612160  25.5151154  51.3343737
  47.0094666  24.6767143  52.5125218  55.9256571  17.0002400  59.3943192
  56.2058325  16.3325589  60.0203618  56.7107178  17.1931496  58.8817855
  59.7965429  25.4220034  63.1414767  60.7482852  25.5218132  63.1626991
  59.6268880  24.6298303  63.6512851  57.8179809  22.5075618  63.3274168
  57.2229741  22.7880630  62.6320656  57.5329506  22.9969519  64.0990909
  59.5775316  35.7764415  49.0480748  59.4988948  35.4424278  49.9416506
  60.3984983  36.2686183  49.0472220  62.2753507  28.6426154  62.2557066
  62.2429827  27.7042155  62.4416750  62.8854131  28.7210191  61.5222891
  54.1136838  27.5122207  48.2984270  55.0595943  27.3828415  48.3672688
  53.7351083  26.7736869  48.7753699  62.4247996  25.4337198  62.3015350
  61.9087044  24.6495654  62.1145278  63.3087944  25.1055914  62.4661869
  60.0858723  19.1778213  58.2611162  59.8883544  18.8693301  59.1454494
  60.6958428  19.9039852  58.3909092  68.0930057  29.7042161  61.3963103
  68.8233446  29.4427449  61.9570806  67.4837003  28.9670883  61.4365171
  66.1745354  27.8450024  61.9937554  65.4478518  27.7105988  61.3854046
  65.7592641  28.1526852  62.7994272  53.9975531  31.5639953  69.7584927
  54.9178540  31.7418552  69.9524974  53.9625114  30.6195999  69.6064627
  52.2979755  25.4372183  48.2339156  51.3911211  25.1405296  48.3101869
  52.5755736  25.1402002  47.3673442  43.2157696  26.7578547  58.6838202
  42.8960480  25.9043855  58.3912576  42.6691124  26.9727125  59.4396169
  46.9937603  29.4740988  62.4007709  47.2123613  30.4058096  62.4195742
  47.4063377  29.1148962  63.1862512  53.9141821  19.9809073  54.3883397
  53.1042549  19.6356158  54.7638643  54.6026238  19.6716617  54.9771008
  55.8432369  19.0587120  56.0107694  56.3963408  19.4782573  56.6697717
  56.0802456  18.1322868  56.0530650  51.8665468  25.0474194  71.7910457
  51.7662195  25.9968551  71.7222549  51.6487011  24.7192433  70.9186528
  51.0678540  22.2959119  48.3751135  51.9297704  22.6214017  48.6346952
  51.2528884  21.5090615  47.8624201  43.0845956  30.3781458  60.6531324
  42.3909427  29.9635411  60.1401278  43.8318947  30.4201995  60.0564743
  59.2211176  21.1687645  55.5186358  58.6409845  21.8272449  55.1364410
  58.9547109  20.3464990  55.1073775  57.6714743  20.5692703  57.7207678
  58.1714521  20.6809237  56.9121997  58.3150351  20.2653756  58.3608487
  51.7296739  28.4771332  70.6075519  51.2463820  29.2771693  70.8139408
  51.8157678  28.4879277  69.6542963  44.9982698  30.3099712  58.5297338
  44.9753386  30.4087399  57.5779222  45.3083335  31.1564863  58.8514505
  47.6570076  32.3675867  62.6443953  48.6113330  32.3359810  62.5773884
  47.4582600  31.9066491  63.4594179  48.2469458  30.9376983  65.2114751
  49.0662347  31.4321062  65.2349588  48.5206266  30.0208951  65.1832318
  58.0036054  23.3287736  54.5742706  57.1161909  23.6137386  54.3562901
  58.4190043  23.1681499  53.7269983  61.3550591  23.3534257  58.2897045
  62.1310981  23.8430709  58.5621662  60.6298725  23.7792311  58.7468915
  63.7923149  24.0661876  59.3470986  64.3867640  23.8257612  58.6364294
  63.8649733  23.3469006  59.9744522  57.1479268  33.0932410  48.6690726
  57.8515118  33.2982413  49.2848382  56.4241917  33.6609172  48.9339810
  57.9777078  28.8442271  54.7892996  57.9212280  29.3010823  53.9500629
  58.5305421  28.0832956  54.6115839  61.7881884  24.6332003  55.6143116
  61.5318818  24.2328639  56.4451323  61.1634752  25.3475797  55.4893255
  66.0994222  27.3728077  58.1214407  65.5393780  27.4421266  58.8945969
  65.4937725  27.1969061  57.4013903  59.0565965  33.5314939  50.7189186
  59.8911569  33.0996138  50.5366661  58.8950308  33.3596953  51.6466081
  58.7111857  30.0347053  52.0845525  58.6560661  29.8691324  51.1433970
  58.0857913  30.7423086  52.2407715  43.5004372  25.2715117  65.9106948
  44.1463236  24.7614071  66.3994173  43.2921524  26.0083799  66.4850373
  56.0257765  32.3395965  71.4099088  56.8948924  32.5136617  71.0485723
  55.5464516  33.1590381  71.2874818  52.0207983  19.5355162  51.6630844
  52.0086653  20.4797002  51.8199115  52.9131405  19.3525307  51.3690305
  55.8360102  16.1297938  55.9176781  55.0692498  15.5756425  56.0633463
  56.2470807  16.2019807  56.7790932  47.8401863  22.4182734  70.0081962
  48.7033325  22.0619539  70.2185286  47.2667274  22.0796629  70.6957366
  72.6399936  41.7111278  58.7930549  73.3725108  41.1410494  59.0268379
  71.8839292  41.3232878  59.2337055  70.1625356  35.4232852  63.2525158
  69.8308681  36.2928263  63.0286373  69.5670970  35.1069136  63.9319188
  63.8981543  39.1628419  50.9855240  64.0655945  40.0308655  51.3525711
  63.7078712  39.3255700  50.0616530  66.6556876  47.6245398  62.6521071
  66.3557599  48.5270436  62.5436878  66.3107935  47.3577581  63.5042224
  70.0554020  40.1427938  60.3318508  69.1470897  40.0743346  60.0377269
  70.0041615  40.6199883  61.1600334  64.1294885  41.5617583  68.2753405
  63.3528219  42.1211504  68.2656270  64.7685448  42.0474366  68.7968275
  71.9215666  38.3444376  62.1096382  71.2790046  38.6376909  61.4636177
  71.4170595  38.2297297  62.9149579  69.5755830  42.0907549  52.7982241
  70.4873686  42.3234936  52.6229939  69.0665477  42.6744594  52.2357320
  67.8596597  46.5132177  66.4343534  68.2679953  46.0714588  65.6898166
  67.1373859  45.9384805  66.6877727  67.3627113  39.1109152  65.4658264
  67.1188045  39.8651213  64.9292540  67.6387043  39.4894500  66.3005511
  69.3165575  45.6547765  64.1435530  69.5282471  46.2979525  63.4669911
  69.2695324  44.8210081  63.6757460  66.9191804  38.2665585  61.0472102
  66.0576283  38.5646839  61.3388840  66.9454239  38.4835984  60.1153135
  78.5217396  44.8758469  58.6642859  77.7681105  44.3065867  58.5086863
  78.6564938  44.8421133  59.6113494  60.3983364  35.8263451  71.0011933
  60.0050310  35.2729649  71.6759578  61.2149505  36.1374029  71.3918451
  63.3151325  37.2421330  68.5932190  64.0561039  37.8428483  68.5136652
  63.5469248  36.4998968  68.0350233  67.2608488  33.2702433  62.8696472
  66.9172758  34.1604075  62.7935582  67.6287451  33.0804090  62.0066057
  67.2258771  43.2611044  51.3768907  66.7105394  44.0315649  51.6157294
  66.9536079  42.5876180  52.0001968  66.3405028  35.6407088  60.8345705
  65.8369824  35.6037223  60.0213510  66.6335635  36.5499831  60.8942362
  62.5847914  35.7245818  59.8411887  63.4500911  35.5288626  59.4817776
  62.6525423  35.4956169  60.7681243  67.0145074  41.1338136  53.2028688
  66.7095210  41.4484285  54.0538831  67.9675516  41.2119556  53.2456021
  68.9584526  39.7519740  57.3772440  68.2207283  39.2397126  57.7082683
  69.2111300  39.3120122  56.5655717  69.0596154  32.5295992  57.9714209
  69.3655031  31.6693355  57.6840124  69.7848759  33.1213612  57.7713203
  72.6250922  47.0963632  60.7856274  73.0587428  47.0038921  61.6339328
  73.3382502  47.0721133  60.1476290  66.3578817  50.6965726  62.3189374
  66.4115839  51.2656663  63.0867090  65.4893598  50.8667611  61.9543411
  73.4866471  47.1387333  63.3189159  73.6802361  48.0433143  63.5648434
  73.3867089  46.6794752  64.1527744  65.1402782  37.0245223  65.8179486
  64.4930697  37.7235173  65.7243963  65.9103797  37.4581367  66.1855735
  60.3918201  39.8299714  48.4322045  59.5147667  39.7088515  48.0684292
  60.8675954  39.0385792  48.1800934  66.8878777  37.9920634  58.3218771
  67.3847476  37.2390596  58.0019842  66.1165758  38.0284951  57.7561981
  74.7408534  43.6960999  59.9637063  74.7298411  44.5785715  59.5930996
  73.8725914  43.3432550  59.7691600  71.3581109  42.5909640  56.4307229
  71.8241561  43.4237632  56.3567532  71.8088609  42.1254622  57.1352487
  69.3297772  34.9590227  60.4698130  68.4160852  35.1894454  60.6380337
  69.7590873  35.0428671  61.3212163  69.1004230  43.1480119  62.9698024
  68.4475680  43.3956027  62.3150477  69.4784610  42.3344258  62.6360502
  65.1491803  43.8899930  69.4564061  64.4732440  43.7894060  70.1266437
  65.9719437  43.7339144  69.9200059  58.8679079  37.5442008  64.2943562
  58.9320406  38.4056839  63.8820960  58.8046200  36.9316009  63.5615921
  58.3431352  39.6165140  67.9416596  58.9703391  39.2342218  68.5554121
  57.4859271  39.3979342  68.3072289  61.4517455  36.8351992  66.1303152
  61.9751857  37.0814289  66.8929461  61.2329788  37.6672027  65.7106289
  63.3086472  34.8615000  62.2680145  64.1312541  34.3875478  62.1459035
  63.5524536  35.6405484  62.7678831  66.0925829  38.5948407  53.5001379
  66.3089444  39.4773045  53.1990207  65.6119897  38.2034621  52.7707021
  64.9649520  35.1105959  58.5307303  64.9871217  35.1745292  57.5759283
  65.3817579  34.2710468  58.7247809  75.3433144  44.8461219  56.5686526
  75.7864290  44.0968544  56.1705649  74.4659655  44.8371355  56.1860258
  61.5799409  38.9383046  69.6030516  61.6287565  39.8145169  69.2208286
  62.1221923  38.3960439  69.0302159  72.1852130  46.3316636  66.1964382
  72.2350135  46.1666643  67.1379904  72.0766053  45.4643895  65.8062262
  69.4755892  42.3147564  67.5123688  70.3765755  42.1754029  67.2207686
  69.5503867  42.4802019  68.4521866  74.8866009  46.3166457  58.9608973
  75.7212900  46.7556261  59.1246534  75.0225138  45.8405110  58.1417219
  71.9357515  43.8746192  64.9086461  72.4111637  44.0673838  64.1005312
  71.0123080  43.9305378  64.6629845  66.5137731  35.9094036  63.8742295
  67.0319675  36.6455062  63.5488784  66.1592864  36.2158029  64.7089054
  66.7650326  32.3294318  59.3943192  67.0452079  31.6617507  60.0203618
  67.5500933  32.5223414  58.8817855  70.6359184  40.7511952  63.1414767
  71.5876607  40.8510050  63.1626991  70.4662634  39.9590221  63.6512851
  68.6573563  37.8367535  63.3274168  68.0623496  38.1172548  62.6320656
  68.3723260  38.3261436  64.0990909  70.4169071  51.1056332  49.0480748
  70.3382702  50.7716196  49.9416506  71.2378737  51.5978100  49.0472220
  73.1147262  43.9718072  62.2557066  73.0823582  43.0334073  62.4416750
  73.7247885  44.0502108  61.5222891  73.2641750  40.7629115  62.3015350
  72.7480799  39.9787572  62.1145278  74.1481699  40.4347832  62.4661869
  70.9252477  34.5070131  58.2611162  70.7277298  34.1985219  59.1454494
  71.5352183  35.2331770  58.3909092  78.9323812  45.0334079  61.3963103
  79.6627200  44.7719367  61.9570806  78.3230757  44.2962801  61.4365171
  77.0139109  43.1741941  61.9937554  76.2872272  43.0397906  61.3854046
  76.5986396  43.4818770  62.7994272  64.7535575  35.3100991  54.3883397
  63.9436304  34.9648076  54.7638643  65.4419992  35.0008535  54.9771008
  66.6826124  34.3879038  56.0107694  67.2357162  34.8074491  56.6697717
  66.9196210  33.4614786  56.0530650  62.7059223  40.3766111  71.7910457
  62.6055950  41.3260468  71.7222549  62.4880765  40.0484350  70.9186528
  61.9072294  37.6251036  48.3751135  62.7691458  37.9505935  48.6346952
  62.0922639  36.8382532  47.8624201  70.0604931  36.4979563  55.5186358
  69.4803600  37.1564367  55.1364410  69.7940864  35.6756907  55.1073775
  68.5108497  35.8984621  57.7207678  69.0108276  36.0101155  56.9121997
  69.1544105  35.5945673  58.3608487  62.5690493  43.8063250  70.6075519
  62.0857575  44.6063610  70.8139408  62.6551432  43.8171195  69.6542963
  68.8429809  38.6579653  54.5742706  67.9555664  38.9429304  54.3562901
  69.2583798  38.4973417  53.7269983  72.1944345  38.6826174  58.2897045
  72.9704735  39.1722627  58.5621662  71.4692479  39.1084228  58.7468915
  74.6316904  39.3953793  59.3470986  75.2261394  39.1549529  58.6364294
  74.7043487  38.6760924  59.9744522  72.6275639  39.9623921  55.6143116
  72.3712573  39.5620557  56.4451323  72.0028507  40.6767715  55.4893255
  76.9387976  42.7019994  58.1214407  76.3787534  42.7713184  58.8945969
  76.3331480  42.5260979  57.4013903  69.8959720  48.8606857  50.7189186
  70.7305324  48.4288056  50.5366661  69.7344063  48.6888871  51.6466081
  69.5505612  45.3638970  52.0845525  69.4954416  45.1983242  51.1433970
  68.9251667  46.0715003  52.2407715  54.3398127  40.6007035  65.9106948
  54.9856990  40.0905989  66.3994173  54.1315278  41.3375716  66.4850373
  62.8601737  34.8647079  51.6630844  62.8480407  35.8088919  51.8199115
  63.7525159  34.6817225  51.3690305  66.6753857  31.4589856  55.9176781
  65.9086253  30.9048343  56.0633463  67.0864562  31.5311725  56.7790932
  58.6795618  37.7474652  70.0081962  59.5427079  37.3911457  70.2185286
  58.1061029  37.4088547  70.6957366  82.9008398  63.3379723  57.5440186
  82.2159437  63.7178625  56.9937220  82.9852248  63.9475050  58.2772134
  89.3611151  60.2050386  58.6642859  88.6074859  59.6357784  58.5086863
  89.4958692  60.1713051  59.6113494  78.1002243  48.5994351  62.8696472
  77.7566512  49.4895992  62.7935582  78.4681205  48.4096008  62.0066057
  77.1798783  50.9699006  60.8345705  76.6763579  50.9329141  60.0213510
  77.4729390  51.8791748  60.8942362  83.0386799  61.3435316  53.3122080
  82.2616242  61.0046476  52.8677242  83.7178280  61.3487939  52.6377045
  81.2778106  60.8169298  59.9688688  80.6201781  61.5068559  60.0568817
  82.0818506  61.2065729  60.3122675  79.8989908  47.8587910  57.9714209
  80.2048785  46.9985273  57.6840124  80.6242513  48.4505530  57.7713203
  83.4375297  60.3579023  55.7745002  83.2993195  60.5480619  54.8466191
  83.0811515  61.1198406  56.2313053  83.4644676  62.4255550  60.7856274
  83.8981183  62.3330839  61.6339328  84.1776257  62.4013050  60.1476290
  77.1972571  66.0257644  62.3189374  77.2509593  66.5948580  63.0867090
  76.3287352  66.1959529  61.9543411  84.3260226  62.4679251  63.3189159
  84.5196116  63.3725061  63.5648434  84.2260844  62.0086670  64.1527744
  79.4413409  60.9406207  49.3100741  78.8242580  60.2153036  49.2133794
  78.9729898  61.7015568  48.9667815  85.5802289  59.0252917  59.9637063
  85.5692165  59.9077633  59.5930996  84.7119668  58.6724468  59.7691600
  82.1974863  57.9201558  56.4307229  82.6635316  58.7529550  56.3567532
  82.6482364  57.4546540  57.1352487  74.7308341  70.5258776  63.6921677
  75.2826649  70.6890397  64.4570763  75.0714534  71.1163213  63.0201702
  77.8676728  68.4740751  60.6785360  77.7427867  67.6730491  60.1696305
  78.5255819  68.9686944  60.1899329  80.5392191  66.8931046  59.5934135
  81.4638739  66.6873907  59.4558586  80.3707495  66.6447447  60.5023476
  74.1480227  50.1906918  62.2680145  74.9706296  49.7167396  62.1459035
  74.3918290  50.9697401  62.7678831  86.1826899  60.1753137  56.5686526
  86.6258045  59.4260462  56.1705649  85.3053409  60.1663273  56.1860258
  85.7259763  61.6458375  58.9608973  86.5606655  62.0848179  59.1246534
  85.8618892  61.1697028  58.1417219  77.6044080  47.6586236  59.3943192
  77.8845834  46.9909425  60.0203618  78.3894687  47.8515331  58.8817855
  81.2562825  66.4348250  49.0480748  81.1776457  66.1008114  49.9416506
  82.0772492  66.9270018  49.0472220  83.9541016  59.3009989  62.2557066
  83.9217336  58.3625990  62.4416750  84.5641640  59.3794026  61.5222891
  81.7646232  49.8362048  58.2611162  81.5671053  49.5277137  59.1454494
  82.3745937  50.5623687  58.3909092  89.7717566  60.3625996  61.3963103
  90.5020955  60.1011284  61.9570806  89.1624512  59.6254718  61.4365171
  87.8532863  58.5033859  61.9937554  87.1266027  58.3689824  61.3854046
  87.4380150  58.8110687  62.7994272  80.8998685  51.8271480  55.5186358
  80.3197354  52.4856285  55.1364410  80.6334618  51.0048825  55.1073775
  79.3502252  51.2276538  57.7207678  79.8502030  51.3393073  56.9121997
  79.9937860  50.9237591  58.3608487  85.4710658  54.7245711  59.3470986
  86.0655149  54.4841447  58.6364294  85.5437242  54.0052842  59.9744522
  83.4669393  55.2915839  55.6143116  83.2106327  54.8912474  56.4451323
  82.8422261  56.0059633  55.4893255  87.7781731  58.0311912  58.1214407
  87.2181289  58.1005101  58.8945969  87.1725234  57.8552897  57.4013903
  89.3637749  74.7068426  60.8144363  90.0016159  74.5875173  60.1107703
  89.2458592  75.6549270  60.8732315  86.1727456  74.6595854  60.7505888
  85.8345967  74.5436919  59.8626422  87.0417224  74.2587019  60.7306894
  82.0314271  76.5131330  56.7402779  81.4679136  76.4221267  55.9719066
  81.9166666  75.6931235  57.2205271  86.6547239  75.8130706  66.7092093
  86.6435879  75.4183504  65.8372597  86.8167878  75.0796778  67.3025865
  79.5778703  78.0082522  59.5786999  80.3699995  77.6673347  59.1633298
  79.8175353  78.1177497  60.4989152  87.6113830  80.1802298  52.0517243
  86.9601810  80.7656378  51.6651257  88.4058193  80.7108493  52.1112281
  81.5369457  77.2691435  52.4504378  82.3100333  76.7220422  52.3117254
  81.8894856  78.1335685  52.6618839  83.3754500  78.5967817  65.6571277
  83.0844366  79.5013448  65.5417943  84.0111484  78.6384345  66.3715347
  84.3010707  75.9744666  62.2472637  84.8974279  75.7500688  61.5329600
  84.3585678  75.2329411  62.8498085  83.8735735  73.4284101  50.0822828
  84.1261256  72.9065623  49.3206291  82.9360294  73.2650247  50.1849511
  88.9179018  72.4319880  57.8897571  89.7042107  72.0139303  57.5387988
  89.1817722  73.3365972  58.0579219  89.0889095  77.8692730  52.5886228
  88.4534928  77.9427357  53.3007132  88.7586502  78.4586329  51.9105307
  94.3187445  72.3695113  58.7930549  95.0512617  71.7994330  59.0268379
  93.5626801  71.9816713  59.2337055  85.9363565  74.7922354  55.9893892
  85.5721772  74.2652975  56.7006813  86.7930681  74.4020823  55.8160377
  91.8412865  66.0816687  63.2525158  91.5096190  66.9512098  63.0286373
  91.2458479  65.7652971  63.9319188  85.5769052  69.8212254  50.9855240
  85.7443454  70.6892491  51.3525711  85.3866221  69.9839536  50.0616530
  88.3344385  78.2829233  62.6521071  88.0345108  79.1854272  62.5436878
  87.9895444  78.0161416  63.5042224  81.7856866  74.7343030  58.6857775
  80.8607363  74.6019244  58.8935467  82.0341279  75.5137249  59.1827718
  91.7341529  70.8011773  60.3318508  90.8258406  70.7327182  60.0377269
  91.6829124  71.2783718  61.1600334  85.5558273  72.2769912  51.9701907
  85.4357898  72.7226962  52.8087387  84.8610861  72.6255229  51.4115445
  79.1465677  74.3776303  59.5201564  79.2758058  74.6310782  60.4340976
  78.4663129  74.9704011  59.2006219  83.3165165  85.0473553  55.6192038
  83.2389194  85.9981378  55.6980519  82.7126808  84.7019426  56.2766965
  85.8082394  72.2201419  68.2753405  85.0315728  72.7795339  68.2656270
  86.4472957  72.7058202  68.7968275  93.6003175  69.0028212  62.1096382
  92.9577555  69.2960745  61.4636177  93.0958104  68.8881132  62.9149579
  91.2543339  72.7491385  52.7982241  92.1661195  72.9818772  52.6229939
  90.7452986  73.3328429  52.2357320  84.0628767  75.0286872  67.8371372
  84.8043451  75.5671916  67.5606196  83.3565752  75.6553161  67.9942924
  89.5384106  77.1716013  66.4343534  89.9467462  76.7298423  65.6898166
  88.8161368  76.5968640  66.6877727  85.8915176  72.1088619  63.8077091
  86.7376372  72.5328033  63.9511740  85.8313814  71.4522244  64.5015654
  89.8612921  77.7317203  60.1895823  89.2321783  77.8962917  59.4871891
  89.4738583  78.1458813  60.9606787  93.7402153  78.6671641  57.5440186
  93.0553191  79.0470542  56.9937220  93.8246002  79.2766968  58.2772134
  89.0414622  69.7692988  65.4658264  88.7975554  70.5235048  64.9292540
  89.3174552  70.1478335  66.3005511  90.9953084  76.3131600  64.1435530
  91.2069980  76.9563360  63.4669911  90.9482833  75.4793917  63.6757460
  88.5979313  68.9249421  61.0472102  87.7363792  69.2230674  61.3388840
  88.6241748  69.1419820  60.1153135  85.4140883  77.4691611  57.4545908
  85.8779228  77.7479314  56.6650530  85.1497681  76.5675056  57.2718999
  82.3064964  77.0163093  60.3925671  82.8766321  77.4450361  59.7543156
  82.8973076  76.7345678  61.0909857  84.3509769  73.5914764  54.2635473
  85.0533812  74.0435807  54.7309399  84.0190397  72.9498583  54.8915366
  82.7990130  72.1826520  68.6386682  82.1688791  72.8642801  68.8722079
  82.6926218  72.0709602  67.6939821  78.0935103  71.8498316  59.5652607
  77.3034157  72.1055845  59.0892717  78.5846350  72.6646654  59.6704647
  92.1098912  79.1903556  62.3157887  92.9316356  78.7883743  62.0340569
  92.1061315  79.0871790  63.2674003  80.0449848  72.2142896  56.5236083
  79.2481012  72.3261590  57.0419579  79.8175440  72.5529548  55.6576974
  85.8755516  78.7387599  64.4718598  85.9399948  79.2008006  65.3076770
  85.1666440  78.1084964  64.6000908  76.3772806  72.1028807  61.9967597
  76.6280844  72.9875817  62.2625173  76.9132354  71.9233408  61.2242689
 100.2004905  75.5342304  58.6642859  99.4468614  74.9649702  58.5086863
 100.3352447  75.5004969  59.6113494  85.5903534  80.4055706  54.3397578
  85.4549208  81.2507242  54.7682426  86.1313346  80.6074984  53.5763512
  80.8527816  81.0396901  56.9948256  81.0294444  81.9614865  56.8069240
  81.6484649  80.7255320  57.4242636  80.1380172  73.0861533  66.8710420
  80.0233687  72.1846790  67.1717519  79.2824690  73.3325229  66.5195236
  87.2172010  81.0279273  68.4697920  86.7735864  80.2415651  68.1518825
  87.8789223  81.2158423  67.8041811  81.9759131  82.5575074  62.9958599
  82.5266556  82.4292138  62.2235593  81.1370607  82.8569963  62.6453492
  89.3153248  81.3082073  66.4979322  89.2971723  82.1290954  66.0059591
  90.2373168  81.1836148  66.7229463  85.7726302  78.8226202  67.3402830
  86.3054639  78.0614490  67.1102138  85.2440383  78.5299854  68.0826984
  88.9395997  63.9286268  62.8696472  88.5960266  64.8187910  62.7935582
  89.3074960  63.7387926  62.0066057  88.9046280  73.9194879  51.3768907
  88.3892903  74.6899484  51.6157294  88.6323588  73.2460015  52.0001968
  86.4893391  68.7644580  56.4354145  85.6334987  68.3751430  56.2559784
  86.9020343  68.8436541  55.5753931  88.0192537  66.2990923  60.8345705
  87.5157333  66.2621059  60.0213510  88.3123144  67.2083666  60.8942362
  84.2635423  66.3829653  59.8411887  85.1288420  66.1872462  59.4817776
  84.3312932  66.1540005  60.7681243  93.8780554  76.6727234  53.3122080
  93.1009997  76.3338393  52.8677242  94.5572035  76.6779857  52.6377045
  88.6932583  71.7921971  53.2028688  88.3882719  72.1068121  54.0538831
  89.6463025  71.8703391  53.2456021  87.1379015  77.9512195  54.8521642
  86.6100376  77.2164954  54.5394879  86.6366518  78.7286871  54.6061610
  92.1171861  76.1461215  59.9688688  91.4595535  76.8360477  60.0568817
  92.9212260  76.5357647  60.3122675  90.9277320  74.5005588  58.0192630
  91.4409201  75.1335580  58.5214340  91.5778544  73.9006783  57.6535990
  85.2831615  75.7692405  47.8556615  84.3758677  75.5381658  48.0547764
  85.7802647  74.9730024  48.0430596  88.1899694  84.4789912  50.7753301
  87.5161393  84.7821609  51.3838259  88.5765516  85.2818993  50.4258758
  87.4058151  71.9755043  60.2650970  86.4880712  72.1969990  60.1072659
  87.8218294  72.0501354  59.4062678  88.1893198  73.3746459  55.3953651
  88.9365017  73.8867856  55.0860773  88.4584788  73.0530512  56.2558044
  86.4619848  75.8705000  52.3780605  85.5531068  75.5864033  52.4753075
  86.4914932  76.2904078  51.5183912  91.6939116  79.4811589  56.1471773
  91.2401443  78.6402499  56.2036963  91.0633083  80.1172988  56.4846553
  90.6372035  70.4103575  57.3772440  89.8994792  69.8980962  57.7082683
  90.8898809  69.9703957  56.5655717  90.1372055  81.3188086  57.0821591
  90.4295029  81.8793143  56.3633956  90.6470676  81.6116647  57.8374750
  90.7383663  63.1879827  57.9714209  91.0442540  62.3277191  57.6840124
  91.4636268  63.7797448  57.7713203  85.0104742  73.4833620  58.4790400
  85.0653352  72.5307457  58.4032877  84.1995945  73.6393060  58.9631699
  86.1595936  77.4113744  49.7168684  85.7215366  76.6949602  49.2574321
  86.9006377  77.6389858  49.1553775  82.9497102  72.1010680  56.2380779
  82.1364968  72.4004851  56.6445971  83.4456097  71.7066369  56.9555262
  85.1005680  82.0968437  58.1715044  85.0581859  82.3229283  57.2423576
  86.0168379  81.8631812  58.3200845  88.5471314  72.5652505  65.0695673
  88.9020702  72.7923978  65.9290139  89.1943445  72.8970881  64.4472928
  94.2769051  75.6870941  55.7745002  94.1386950  75.8772537  54.8466191
  93.9205270  76.4490323  56.2313053  82.4411177  69.6729036  61.8542014
  83.0810556  69.5317795  61.1564978  81.6088708  69.3863549  61.4780616
  94.3038431  77.7547468  60.7856274  94.7374937  77.6622757  61.6339328
  95.0170011  77.7304968  60.1476290  83.2171481  78.9731466  57.9677007
  84.0112080  78.4781786  57.7659582  82.5063173  78.4449329  57.6044712
  88.0366326  81.3549562  62.3189374  88.0903348  81.9240498  63.0867090
  87.1681107  81.5251447  61.9543411  95.1653980  77.7971168  63.3189159
  95.3589870  78.7016979  63.5648434  95.0654598  77.3378587  64.1527744
  90.2269089  77.9477911  68.8930040  90.0754595  77.7188463  67.9760123
  90.2173768  78.9048512  68.9061385  86.9954425  75.5209824  63.8776306
  87.9246485  75.6720983  63.7045273  86.5745455  75.6093844  63.0224953
  85.7942757  79.5460488  61.6474844  85.6553843  79.1779273  62.5200782
  85.0057353  80.0608128  61.4758802  86.3890909  84.6469585  52.9900380
  86.5642665  84.1757628  53.8046003  85.7023697  85.2735351  53.2181641
  87.3447972  78.9242091  59.0363682  87.0097805  78.8842861  59.9321331
  86.8451918  78.2586807  58.5634092  81.3192216  74.3309721  64.5616263
  81.1812014  73.5989960  65.1627802  82.2297140  74.2418621  64.2800450
  90.2807164  76.2698125  49.3100741  89.6636334  75.5444953  49.2133794
  89.8123652  77.0307485  48.9667815  83.9474517  74.0429680  64.0499942
  84.6574135  73.4022872  64.0086561  83.9043825  74.2942575  64.9726123
  91.9361296  80.9797034  66.9706522  91.8773842  80.2956254  66.3037105
  92.3380814  81.7216024  66.5187148  80.9551994  87.7958947  59.7640240
  81.1948593  88.4277472  60.4419259  80.1121191  87.4446987  60.0505600
  82.0705710  70.4883549  48.4322045  81.1935176  70.3672350  48.0684292
  82.5463463  69.6969628  48.1800934  91.9378703  78.9436617  65.2020501
  91.0505482  78.6062539  65.3246900  92.5077254  78.2119649  65.4389267
  78.3942572  70.1650906  62.9548576  78.3100761  69.5576575  62.2198986
  77.5725278  70.6559924  62.9558073  85.4679856  83.6038070  62.1681744
  85.3950028  84.4093041  62.6801049  85.0257249  83.8030036  61.3429766
  85.2569636  82.8409840  55.6784566  84.4737158  83.3831520  55.7722791
  85.9562381  83.3583819  56.0778807  88.5666286  68.6504469  58.3218771
  89.0634985  67.8974432  58.0019842  87.7953267  68.6868786  57.7561981
  96.4196043  74.3544835  59.9637063  96.4085920  75.2369550  59.5930996
  95.5513423  74.0016386  59.7691600  87.9278540  83.5024904  64.3239903
  88.6406512  84.1372369  64.2515805  87.4368568  83.5988770  63.5079905
  89.6496067  77.4076157  55.8957195  88.7152345  77.5277619  55.7261899
  89.8272735  76.5048623  55.6317205  85.1501255  70.7921852  58.0490456
  84.7799042  70.2392893  58.7371362  85.6460347  70.1879986  57.4965456
  93.0368618  73.2493476  56.4307229  93.5029070  74.0821467  56.3567532
  93.4876118  72.7838457  57.1352487  82.9790453  81.2519347  65.1445474
  83.6799913  81.8855830  65.2974868  82.5085568  81.5934079  64.3841113
  91.1044849  79.5937297  53.4293381  91.3804693  79.4793892  54.3387255
  90.2349348  79.1954782  53.3905554  91.0085281  65.6174063  60.4698130
  90.0948361  65.8478290  60.6380337  91.4378382  65.7012507  61.3212163
  90.7791739  73.8063955  62.9698024  90.1263189  74.0539862  62.3150477
  91.1572119  72.9928093  62.6360502  87.7398913  83.8423648  57.0726195
  87.9221308  83.0245304  57.5353947  88.5631899  84.0591340  56.6351085
  88.0741079  82.7691833  54.3341243  88.6028845  82.2584288  53.7211405
  88.3369298  82.4534363  55.1986776  86.8279312  74.5483766  69.4564061
  86.1519949  74.4477895  70.1266437  87.6506946  74.3922980  69.9200059
  78.5758171  80.7855702  62.0776577  79.1611608  80.0399390  62.2104481
  78.3783010  81.0959659  62.9613241  81.4296827  83.8206950  57.0939019
  80.7607202  84.3053077  56.6103059  81.2909696  84.0676170  58.0082398
  85.5702095  85.8550693  63.6921677  86.1220403  86.0182315  64.4570763
  85.9108289  86.4455131  63.0201702  80.0218861  70.2748976  67.9416596
  80.6490900  69.8926053  68.5554121  79.1646780  70.0563178  68.3072289
  90.4212969  80.6811951  69.5470332  90.9652873  81.2941909  69.0525287
  89.8399814  81.2391529  70.0637345  88.7070482  83.8032669  60.6785360
  88.5821622  83.0022409  60.1696305  89.3649573  84.2978862  60.1899329
  80.3278651  70.1581401  59.8562500  79.6065236  70.7717369  59.7169973
  81.1171906  70.6939166  59.7779146  90.7705391  81.6041689  62.3064910
  89.8235726  81.4847040  62.2343236  91.1188164  80.7164187  62.3891171
  87.7751824  81.3994405  58.5069262  87.6276786  80.4711112  58.6876832
  88.6005318  81.4214496  58.0226337  91.3785946  82.2222964  59.5934135
  92.3032493  82.0165825  59.4558586  91.2101249  81.9739365  60.5023476
  84.9873981  65.5198835  62.2680145  85.8100050  65.0459314  62.1459035
  85.2312045  66.2989319  62.7678831  87.7713338  69.2532243  53.5001379
  87.9876953  70.1356881  53.1990207  87.2907406  68.8618456  52.7707021
  82.5112560  72.2117956  60.0772124  82.3657140  72.5258259  60.9696405
  82.0337763  72.8302856  59.5243022  84.3708943  69.2020504  60.1253013
  84.3570511  68.3061597  59.7885311  85.0881371  69.2091168  60.7591299
  86.2235073  69.6357844  62.1706141  85.9652851  70.5574915  62.1690471
  85.6920114  69.2388279  62.8606605  91.1681262  82.7408631  54.9496226
  91.3418140  82.1755054  54.1970078  91.6610153  83.5409526  54.7675716
  76.9858222  74.7523300  63.0159785  76.4411690  75.5283108  63.1480059
  77.8637572  75.0994105  62.8578906  86.6437029  65.7689795  58.5307303
  86.6658726  65.8329128  57.5759283  87.0605088  64.9294303  58.7247809
  97.0220653  75.5045054  56.5686526  97.4651799  74.7552379  56.1705649
  96.1447164  75.4955191  56.1860258  92.1556435  82.0575396  52.0493124
  92.8507339  82.6782088  52.2680439  92.4979585  81.2070747  52.3245502
  77.7724244  73.8793197  65.9089942  77.0305980  74.0275832  66.4954572
  77.4516988  74.1401462  65.0456691  94.0547858  79.5075101  53.5780455
  94.5799182  79.8462374  52.8529775  93.9670210  78.5722117  53.3943590
  85.7167906  83.4209175  65.7070332  86.0255033  83.1758322  66.5793031
  86.5143388  83.6255813  65.2189202  85.7388518  85.5747084  57.9375708
  85.2993509  85.0823463  58.6308565  86.4896635  85.0320052  57.6967784
  83.1862391  81.1185094  60.0098010  82.5642400  80.4555799  59.7100238
  83.8567258  81.1446225  59.3271658  93.7441764  80.1408005  68.8831653
  92.9537308  80.1232144  68.3436152  93.5075118  80.6796299  69.6380690
  93.8639639  76.9900471  66.1964382  93.9137644  76.8250479  67.1379904
  93.7553562  76.1227730  65.8062262  82.7475898  79.6689017  53.4856470
  82.8964018  80.3524481  52.8323143  83.5542341  79.6494107  54.0005926
  91.1543401  72.9731399  67.5123688  92.0553264  72.8337864  67.2207686
  91.2291376  73.1385854  68.4521866  95.3657836  79.4097413  66.4406403
  95.0742644  79.7727393  67.2769864  94.7529967  78.6964421  66.2619735
  96.5653518  76.9750293  58.9608973  97.4000409  77.4140097  59.1246534
  96.7012647  76.4988946  58.1417219  93.6145024  74.5330027  64.9086461
  94.0899146  74.7257674  64.1005312  92.6910589  74.5889213  64.6629845
  88.1925240  66.5677871  63.8742295  88.7107184  67.3038898  63.5488784
  87.8380373  66.8741864  64.7089054  88.4437835  62.9878153  59.3943192
  88.7239588  62.3201343  60.0203618  89.2288441  63.1807249  58.8817855
  86.2471303  82.1637147  50.9568218  85.6745270  82.7827334  50.5038690
  86.8204097  82.7136509  51.4908140  92.3146693  71.4095787  63.1414767
  93.2664116  71.5093885  63.1626991  92.1450143  70.6174056  63.6512851
  90.3361072  68.4951371  63.3274168  89.7411004  68.7756383  62.6320656
  90.0510769  68.9845272  64.0990909  89.4668563  82.4474297  52.0876800
  90.3999236  82.3819859  52.2909676  89.3791776  83.2830564  51.6291333
  92.0956580  81.7640168  49.0480748  92.0170211  81.4300031  49.9416506
  92.9166246  82.2561936  49.0472220  94.7934771  74.6301907  62.2557066
  94.7611091  73.6917908  62.4416750  95.4035394  74.7085944  61.5222891
  86.6318102  73.4997960  48.2984270  87.5777206  73.3704168  48.3672688
  86.2532347  72.7612622  48.7753699  94.9429259  71.4212951  62.3015350
  94.4268308  70.6371407  62.1145278  95.8269208  71.0931667  62.4661869
  92.6039986  65.1653966  58.2611162  92.4064807  64.8569054  59.1454494
  93.2139692  65.8915605  58.3909092 100.6111321  75.6917914  61.3963103
 101.3414709  75.4303202  61.9570806 100.0018266  74.9546636  61.4365171
  98.6926618  73.8325777  61.9937554  97.9659781  73.6981741  61.3854046
  98.2773905  74.1402605  62.7994272  86.5156794  77.5515706  69.7584927
  87.4359804  77.7294305  69.9524974  86.4806377  76.6071752  69.6064627
  84.8161019  71.4247936  48.2339156  83.9092474  71.1281049  48.3101869
  85.0937000  71.1277755  47.3673442  75.7338959  72.7454300  58.6838202
  75.4141743  71.8919608  58.3912576  75.1872387  72.9602878  59.4396169
  79.5118867  75.4616741  62.4007709  79.7304876  76.3933849  62.4195742
  79.9244640  75.1024715  63.1862512  86.4323084  65.9684826  54.3883397
  85.6223813  65.6231911  54.7638643  87.1207501  65.6592370  54.9771008
  88.3613633  65.0462873  56.0107694  88.9144671  65.4658326  56.6697717
  88.5983719  64.1198621  56.0530650  84.3846732  71.0349947  71.7910457
  84.2843459  71.9844304  71.7222549  84.1668274  70.7068186  70.9186528
  83.5859803  68.2834872  48.3751135  84.4478967  68.6089770  48.6346952
  83.7710147  67.4966368  47.8624201  75.6027219  76.3657211  60.6531324
  74.9090691  75.9511164  60.1401278  76.3500210  76.4077748  60.0564743
  91.7392440  67.1563398  55.5186358  91.1591109  67.8148202  55.1364410
  91.4728373  66.3340743  55.1073775  90.1896006  66.5568456  57.7207678
  90.6895785  66.6684990  56.9121997  90.8331614  66.2529509  58.3608487
  84.2478002  74.4647085  70.6075519  83.7645084  75.2647446  70.8139408
  84.3338941  74.4755030  69.6542963  80.1751340  78.3551620  62.6443953
  81.1294593  78.3235563  62.5773884  79.9763863  77.8942244  63.4594179
  80.7650722  76.9252736  65.2114751  81.5843611  77.4196815  65.2349588
  81.0387529  76.0084704  65.1832318  90.5217318  69.3163489  54.5742706
  89.6343173  69.6013139  54.3562901  90.9371307  69.1557252  53.7269983
  93.8731854  69.3410010  58.2897045  94.6492244  69.8306462  58.5621662
  93.1479988  69.7668064  58.7468915  96.3104413  70.0537629  59.3470986
  96.9048903  69.8133365  58.6364294  96.3830996  69.3344759  59.9744522
  78.5301568  83.8971240  59.6614151  78.3956036  83.1371641  59.0952149
  78.1133631  84.6212140  59.1942940  89.6660531  79.0808163  48.6690726
  90.3696381  79.2858166  49.2848382  88.9423180  79.6484925  48.9339810
  90.4958342  74.8318024  54.7892996  90.4393543  75.2886576  53.9500629
  91.0486684  74.0708709  54.6115839  94.3063147  70.6207756  55.6143116
  94.0500082  70.2204392  56.4451323  93.6816016  71.3351550  55.4893255
  98.6175485  73.3603830  58.1214407  98.0575043  73.4297019  58.8945969
  98.0118989  73.1844814  57.4013903  81.6870694  84.7940557  59.8732593
  81.5703078  85.7385989  59.7711284  80.8663140  84.4914118  60.2618393
  91.5747229  79.5190692  50.7189186  92.4092833  79.0871891  50.5366661
  91.4131572  79.3472706  51.6466081  91.2293121  76.0222806  52.0845525
  91.1741925  75.8567077  51.1433970  90.6039176  76.7298839  52.2407715
  76.0185636  71.2590870  65.9106948  76.6644499  70.7489824  66.3994173
  75.8102787  71.9959552  66.4850373  88.5439028  78.3271718  71.4099088
  89.4130188  78.5012370  71.0485723  88.0645780  79.1466134  71.2874818
  84.5389246  65.5230915  51.6630844  84.5267916  66.4672755  51.8199115
  85.4312668  65.3401060  51.3690305  82.7125208  85.4468819  63.0888522
  83.6152455  85.4792429  63.4055017  82.4862578  84.5169270  63.1034858
  84.4678810  84.1999805  59.7498600  83.5174441  84.2001667  59.6362973
  84.7711296  83.4532540  59.2334635  88.3541366  62.1173691  55.9176781
  87.5873762  61.5632178  56.0633463  88.7652071  62.1895560  56.7790932
 100.2031504  90.0360344  60.8144363 100.8409914  89.9167091  60.1107703
 100.0852347  90.9841187  60.8732315  97.0121210  89.9887772  60.7505888
  96.6739722  89.8728836  59.8626422  97.8810978  89.5878937  60.7306894
  92.8708026  91.8423248  56.7402779  92.3072891  91.7513185  55.9719066
  92.7560421  91.0223153  57.2205271  97.4940993  91.1422623  66.7092093
  97.4829634  90.7475422  65.8372597  97.6561633  90.4088696  67.3025865
  90.4172458  93.3374440  59.5786999  91.2093750  92.9965264  59.1633298
  90.6569108  93.4469415  60.4989152  98.4507585  95.5094216  52.0517243
  97.7995564  96.0948296  51.6651257  99.2451947  96.0400411  52.1112281
  92.3763212  92.5983353  52.4504378  93.1494088  92.0512340  52.3117254
  92.7288611  93.4627602  52.6618839  94.2148254  93.9259735  65.6571277
  93.9238120  94.8305366  65.5417943  94.8505239  93.9676263  66.3715347
  95.1404461  91.3036584  62.2472637  95.7368033  91.0792606  61.5329600
  95.1979433  90.5621329  62.8498085  94.7129489  88.7576019  50.0822828
  94.9655010  88.2357540  49.3206291  93.7754049  88.5942164  50.1849511
  99.7572772  87.7611797  57.8897571 100.5435862  87.3431221  57.5387988
 100.0211477  88.6657890  58.0579219  99.9282850  93.1984648  52.5886228
  99.2928683  93.2719274  53.3007132  99.5980256  93.7878247  51.9105307
 105.1581199  87.6987031  58.7930549 105.8906371  87.1286247  59.0268379
 104.4020555  87.3108631  59.2337055  94.4325778  90.6604125  52.2847203
  94.3162036  89.9849028  52.9528287  94.5428038  90.1736499  51.4679356
  96.7757319  90.1214272  55.9893892  96.4115526  89.5944893  56.7006813
  97.6324435  89.7312741  55.8160377 102.6806620  81.4108605  63.2525158
 102.3489945  82.2804016  63.0286373 102.0852233  81.0944889  63.9319188
  96.4162806  85.1504172  50.9855240  96.5837208  86.0184408  51.3525711
  96.2259975  85.3131453  50.0616530  99.1738139  93.6121151  62.6521071
  98.8738862  94.5146189  62.5436878  98.8289199  93.3453334  63.5042224
  92.6250621  90.0634948  58.6857775  91.7001117  89.9311162  58.8935467
  92.8735034  90.8429167  59.1827718 102.5735283  86.1303691  60.3318508
 101.6652160  86.0619099  60.0377269 102.5222879  86.6075636  61.1600334
  96.3952027  87.6061829  51.9701907  96.2751652  88.0518880  52.8087387
  95.7004615  87.9547147  51.4115445  89.9859432  89.7068221  59.5201564
  90.1151813  89.9602700  60.4340976  89.3056883  90.2995929  59.2006219
  94.1558919 100.3765471  55.6192038  94.0782949 101.3273296  55.6980519
  93.5520563 100.0311344  56.2766965  96.6476149  87.5493336  68.2753405
  95.8709483  88.1087257  68.2656270  97.2866712  88.0350119  68.7968275
 104.4396929  84.3320129  62.1096382 103.7971310  84.6252662  61.4636177
 103.9351858  84.2173050  62.9149579 102.0937093  88.0783302  52.7982241
 103.0054949  88.3110689  52.6229939 101.5846740  88.6620347  52.2357320
  94.9022521  90.3578790  67.8371372  95.6437206  90.8963834  67.5606196
  94.1959507  90.9845079  67.9942924 100.3777861  92.5007930  66.4343534
 100.7861217  92.0590341  65.6898166  99.6555122  91.9260558  66.6877727
  96.7308931  87.4380537  63.8077091  97.5770126  87.8619951  63.9511740
  96.6707569  86.7814161  64.5015654 100.7006675  93.0609121  60.1895823
 100.0715538  93.2254835  59.4871891 100.3132338  93.4750730  60.9606787
 104.5795907  93.9963559  57.5440186 103.8946946  94.3762460  56.9937220
 104.6639757  94.6058885  58.2772134  99.8808376  85.0984905  65.4658264
  99.6369308  85.8526966  64.9292540 100.1568307  85.4770253  66.3005511
 101.8346839  91.6423518  64.1435530 102.0463734  92.2855278  63.4669911
 101.7876587  90.8085834  63.6757460  99.4373068  84.2541338  61.0472102
  98.5757547  84.5522592  61.3388840  99.4635503  84.4711737  60.1153135
  96.2534637  92.7983529  57.4545908  96.7172983  93.0771232  56.6650530
  95.9891435  91.8966974  57.2718999  93.1458718  92.3455011  60.3925671
  93.7160075  92.7742279  59.7543156  93.7366830  92.0637595  61.0909857
  95.1903523  88.9206681  54.2635473  95.8927567  89.3727725  54.7309399
  94.8584152  88.2790500  54.8915366  93.6383885  87.5118438  68.6386682
  93.0082545  88.1934719  68.8722079  93.5319973  87.4001520  67.6939821
  88.9328857  87.1790234  59.5652607  88.1427911  87.4347763  59.0892717
  89.4240105  87.9938572  59.6704647 102.9492667  94.5195473  62.3157887
 103.7710111  94.1175660  62.0340569 102.9455070  94.4163707  63.2674003
  90.8843603  87.5434813  56.5236083  90.0874766  87.6553508  57.0419579
  90.6569195  87.8821465  55.6576974  96.7149270  94.0679517  64.4718598
  96.7793703  94.5299924  65.3076770  96.0060194  93.4376881  64.6000908
  87.2166560  87.4320724  61.9967597  87.4674599  88.3167734  62.2625173
  87.7526109  87.2525326  61.2242689 111.0398660  90.8634222  58.6642859
 110.2862368  90.2941620  58.5086863 111.1746201  90.8296886  59.6113494
  96.4297288  95.7347624  54.3397578  96.2942963  96.5799160  54.7682426
  96.9707101  95.9366902  53.5763512  92.9164628  81.8139204  71.0011933
  92.5231573  81.2605402  71.6759578  93.7330768  82.1249782  71.3918451
  89.8826685  93.2523062  54.9125503  90.3951206  94.0466312  55.0631068
  90.5349398  92.5549352  54.8459105  91.6921570  96.3688818  56.9948256
  91.8688198  97.2906783  56.8069240  92.4878404  96.0547238  57.4242636
  95.8332589  83.2297083  68.5932190  96.5742302  83.8304236  68.5136652
  96.0650511  82.4874721  68.0350233  90.9773927  88.4153450  66.8710420
  90.8627442  87.5138707  67.1717519  90.1218444  88.6617147  66.5195236
  98.0565764  96.3571190  68.4697920  97.6129619  95.5707569  68.1518825
  98.7182978  96.5450341  67.8041811  92.8152886  97.8866992  62.9958599
  93.3660311  97.7584055  62.2235593  91.9764361  98.1861881  62.6453492
 100.1547002  96.6373990  66.4979322 100.1365478  97.4582871  66.0059591
 101.0766923  96.5128066  66.7229463  96.6120057  94.1518120  67.3402830
  97.1448393  93.3906408  67.1102138  96.0834138  93.8591772  68.0826984
  99.7789752  79.2578186  62.8696472  99.4354021  80.1479828  62.7935582
 100.1468714  79.0679844  62.0066057  87.8475602  91.5811716  55.6885074
  88.6850824  91.9908725  55.4718782  88.0253870  90.6411158  55.6585268
  99.7440034  89.2486797  51.3768907  99.2286658  90.0191402  51.6157294
  99.4717343  88.5751933  52.0001968  97.3287145  84.0936498  56.4354145
  96.4728742  83.7043348  56.2559784  97.7414097  84.1728459  55.5753931
  98.8586292  81.6282841  60.8345705  98.3551088  81.5912976  60.0213510
  99.1516899  82.5375584  60.8942362  95.1029178  81.7121571  59.8411887
  95.9682175  81.5164379  59.4817776  95.1706687  81.4831923  60.7681243
 104.7174308  92.0019152  53.3122080 103.9403751  91.6630311  52.8677242
 105.3965789  92.0071775  52.6377045  99.5326337  87.1213889  53.2028688
  99.2276473  87.4360038  54.0538831 100.4856780  87.1995309  53.2456021
  97.9772769  93.2804112  54.8521642  97.4494131  92.5456872  54.5394879
  97.4760272  94.0578789  54.6061610 102.9565615  91.4753133  59.9688688
 102.2989290  92.1652394  60.0568817 103.7606015  91.8649565  60.3122675
  92.7091497  83.9423779  57.2128253  93.2835249  83.7198960  56.4801446
  93.2962479  84.0112473  57.9656855 101.7671074  89.8297506  58.0192630
 102.2802956  90.4627497  58.5214340 102.4172298  89.2298701  57.6535990
  93.0361084  85.9728240  51.2324139  92.1998396  86.3102926  51.5533413
  92.8965854  85.8377219  50.2951276  95.0114165  80.8165028  55.9403323
  94.3578577  80.5014045  55.3159938  94.9694639  80.1940768  56.6663146
  96.1225369  91.0984323  47.8556615  95.2152431  90.8673576  48.0547764
  96.6196401  90.3021942  48.0430596  99.0293448  99.8081830  50.7753301
  98.3555147 100.1113527  51.3838259  99.4159270 100.6110910  50.4258758
  98.2451905  87.3046961  60.2650970  97.3274466  87.5261908  60.1072659
  98.6612049  87.3793272  59.4062678  99.0286953  88.7038377  55.3953651
  99.7758772  89.2159774  55.0860773  99.2978542  88.3822430  56.2558044
  97.3013603  91.1996918  52.3780605  96.3924822  90.9155950  52.4753075
  97.3308687  91.6195996  51.5183912 102.5332870  94.8103507  56.1471773
 102.0795197  93.9694417  56.2036963 101.9026837  95.4464905  56.4846553
 101.4765790  85.7395493  57.3772440 100.7388547  85.2272879  57.7082683
 101.7292563  85.2995875  56.5655717 100.9765810  96.6480004  57.0821591
 101.2688784  97.2085061  56.3633956 101.4864430  96.9408565  57.8374750
 101.5777417  78.5171745  57.9714209 101.8836294  77.6569108  57.6840124
 102.3030022  79.1089365  57.7713203  87.8701773  88.9202432  56.3595807
  87.6726173  88.3271792  55.6346874  87.3148437  88.6154642  57.0771746
  95.8498497  88.8125538  58.4790400  95.9047107  87.8599375  58.4032877
  95.0389699  88.9684977  58.9631699  96.9989691  92.7405661  49.7168684
  96.5609121  92.0241520  49.2574321  97.7400132  92.9681776  49.1553775
  93.7890857  87.4302598  56.2380779  92.9758722  87.7296768  56.6445971
  94.2849851  87.0358287  56.9555262  95.9399435  97.4260355  58.1715044
  95.8975614  97.6521201  57.2423576  96.8562134  97.1923729  58.3200845
  99.3865069  87.8944422  65.0695673  99.7414456  88.1215895  65.9290139
 100.0337200  88.2262799  64.4472928 105.1162806  91.0162858  55.7745002
 104.9780704  91.2064454  54.8466191 104.7599024  91.7782241  56.2313053
  93.2804932  85.0020953  61.8542014  93.9204311  84.8609712  61.1564978
  92.4482462  84.7155467  61.4780616 105.1432185  93.0839385  60.7856274
 105.5768692  92.9914674  61.6339328 105.8563766  93.0596886  60.1476290
  94.0565236  94.3023384  57.9677007  94.8505834  93.8073704  57.7659582
  93.3456928  93.7741247  57.6044712  98.8760080  96.6841479  62.3189374
  98.9297102  97.2532416  63.0867090  98.0074861  96.8543364  61.9543411
  90.3647999  88.4466466  54.0436759  89.4345587  88.3850921  54.2606721
  90.4605471  87.9242418  53.2473401  90.2833548  84.9721278  56.6315001
  90.5440365  85.8866612  56.5224161  91.1050720  84.5045721  56.7811614
  91.7558473  86.3859036  63.8013826  92.4281527  86.1776398  63.1526474
  90.9288260  86.1881122  63.3619058 106.0047735  93.1263086  63.3189159
 106.1983625  94.0308896  63.5648434 105.9048353  92.6670505  64.1527744
  97.6584045  83.0120976  65.8179486  97.0111960  83.7110926  65.7243963
  98.4285061  83.4457120  66.1855735 101.0662843  93.2769829  68.8930040
 100.9148350  93.0480380  67.9760123 101.0567523  94.2340430  68.9061385
  97.8348180  90.8501741  63.8776306  98.7640240  91.0012901  63.7045273
  97.4139210  90.9385762  63.0224953  96.6336512  94.8752406  61.6474844
  96.4947597  94.5071190  62.5200782  95.8451108  95.3900045  61.4758802
  97.2284664  99.9761502  52.9900380  97.4036419  99.5049545  53.8046003
  96.5417452 100.6027268  53.2181641  98.1841727  94.2534008  59.0363682
  97.8491559  94.2134778  59.9321331  97.6845672  93.5878724  58.5634092
  92.1585971  89.6601639  64.5616263  92.0205769  88.9281877  65.1627802
  93.0690894  89.5710539  64.2800450 101.1200918  91.5990043  49.3100741
 100.5030089  90.8736871  49.2133794 100.6517407  92.3599403  48.9667815
  94.7868271  89.3721598  64.0499942  95.4967890  88.7314790  64.0086561
  94.7437579  89.6234493  64.9726123 102.7755050  96.3088951  66.9706522
 102.7167596  95.6248171  66.3037105 103.1774568  97.0507941  66.5187148
  93.4997205  86.3586816  65.8695582  92.9634562  85.9077554  66.5217178
  92.9113914  86.4932725  65.1266046  91.7945749 103.1250865  59.7640240
  92.0342347 103.7569389  60.4419259  90.9514945 102.7738905  60.0505600
  92.9099464  85.8175467  48.4322045  92.0328931  85.6964268  48.0684292
  93.3857217  85.0261545  48.1800934 102.7772457  94.2728535  65.2020501
 101.8899236  93.9354457  65.3246900 103.3471008  93.5411566  65.4389267
  84.4301604  90.6052627  58.5263553  85.1172644  90.2914357  57.9384568
  84.2749733  91.5093992  58.2530804  89.2336327  85.4942823  62.9548576
  89.1494515  84.8868493  62.2198986  88.4119033  85.9851842  62.9558073
  96.3073611  98.9329987  62.1681744  96.2343782  99.7384959  62.6801049
  95.8651004  99.1321953  61.3429766  96.0963390  98.1701758  55.6784566
  95.3130912  98.7123438  55.7722791  96.7956135  98.6875737  56.0778807
  99.4060040  83.9796387  58.3218771  99.9028740  83.2266349  58.0019842
  98.6347022  84.0160704  57.7561981 107.2589798  89.6836752  59.9637063
 107.2479674  90.5661468  59.5930996 106.3907177  89.3308303  59.7691600
  98.7672294  98.8316822  64.3239903  99.4800266  99.4664286  64.2515805
  98.2762323  98.9280687  63.5079905 100.4889821  92.7368074  55.8957195
  99.5546100  92.8569537  55.7261899 100.6666490  91.8340541  55.6317205
  95.9895009  86.1213770  58.0490456  95.6192797  85.5684810  58.7371362
  96.4854102  85.5171903  57.4965456 103.8762372  88.5785393  56.4307229
 104.3422825  89.4113385  56.3567532 104.3269873  88.1130375  57.1352487
  93.8184208  96.5811265  65.1445474  94.5193667  97.2147748  65.2974868
  93.3479323  96.9225997  64.3841113 101.9438604  94.9229215  53.4293381
 102.2198447  94.8085809  54.3387255 101.0743102  94.5246700  53.3905554
 101.8479035  80.9465980  60.4698130 100.9342115  81.1770207  60.6380337
 102.2772137  81.0304425  61.3212163 101.6185494  89.1355872  62.9698024
 100.9656944  89.3831780  62.3150477 101.9965874  88.3220011  62.6360502
  98.5792668  99.1715566  57.0726195  98.7615062  98.3537222  57.5353947
  99.4025654  99.3883258  56.6351085  98.9134833  98.0983751  54.3341243
  99.4422599  97.5876205  53.7211405  99.1763053  97.7826281  55.1986776
  97.6673067  89.8775683  69.4564061  96.9913704  89.7769813  70.1266437
  98.4900701  89.7214897  69.9200059  89.4151926  96.1147620  62.0776577
  90.0005363  95.3691308  62.2104481  89.2176764  96.4251577  62.9613241
  92.2690581  99.1498867  57.0939019  91.6000956  99.6344995  56.6103059
  92.1303451  99.3968088  58.0082398  84.0069581  88.6853220  60.7981020
  84.0453680  88.1516811  61.5918138  83.5009873  88.1588426  60.1791997
  96.4095850 101.1842611  63.6921677  96.9614158 101.3474232  64.4570763
  96.7502043 101.7747049  63.0201702  91.3860343  83.5317761  64.2943562
  91.4501669  84.3932592  63.8820960  91.3227463  82.9191762  63.5615921
  90.8612615  85.6040893  67.9416596  91.4884654  85.2217971  68.5554121
  90.0040534  85.3855095  68.3072289 101.2606724  96.0103868  69.5470332
 101.8046628  96.6233827  69.0525287 100.6793569  96.5683447  70.0637345
  87.6378158  87.4117322  53.8734951  87.9331599  86.5028001  53.8202005
  86.7366194  87.3905062  53.5515953  99.5464237  99.1324586  60.6785360
  99.4215376  98.3314326  60.1696305 100.2043328  99.6270780  60.1899329
  91.1672405  85.4873319  59.8562500  90.4458991  86.1009287  59.7169973
  91.9565661  86.0231084  59.7779146 101.6099145  96.9333607  62.3064910
 100.6629481  96.8138958  62.2343236 101.9581918  96.0456105  62.3891171
  93.9698719  82.8227745  66.1303152  94.4933120  83.0690042  66.8929461
  93.7511052  83.6547780  65.7106289  89.3666000  85.0931420  53.9974276
  89.0378706  84.2128799  53.8149382  89.7205370  85.0379089  54.8850666
  98.6145579  96.7286323  58.5069262  98.4670541  95.8003030  58.6876832
  99.4399072  96.7506413  58.0226337  92.4807823  85.3804390  54.3649754
  92.8203895  85.9090311  53.6428362  92.9279943  85.7184796  55.1408321
 102.2179700  97.5514881  59.5934135 103.1426248  97.3457743  59.4558586
 102.0495004  97.3031283  60.5023476  95.1751264  83.7641441  63.8152822
  94.8348084  82.9649254  64.2173502  94.4690270  84.0643151  63.2429655
  95.8267735  80.8490753  62.2680145  96.6493805  80.3751231  62.1459035
  96.0705799  81.6281237  62.7678831  94.4675970  83.8779011  52.5643047
  95.1884332  84.2560264  52.0606764  93.8441274  84.5967888  52.6678025
  98.6107093  84.5824160  53.5001379  98.8270707  85.4648798  53.1990207
  98.1301160  84.1910374  52.7707021  93.3506314  87.5409874  60.0772124
  93.2050895  87.8550177  60.9696405  92.8731518  88.1594774  59.5243022
  95.2102697  84.5312422  60.1253013  95.1964266  83.6353515  59.7885311
  95.9275125  84.5383085  60.7591299  97.0628828  84.9649762  62.1706141
  96.8046606  85.8866832  62.1690471  96.5313868  84.5680196  62.8606605
 102.0075017  98.0700549  54.9496226 102.1811894  97.5046971  54.1970078
 102.5003908  98.8701444  54.7675716  87.8251976  90.0815218  63.0159785
  87.2805444  90.8575026  63.1480059  88.7031326  90.4286022  62.8578906
  94.6139593  83.4126802  55.3940583  94.7355504  82.4843448  55.5931471
  94.3241635  83.4265488  54.4818899  97.4830783  81.0981712  58.5307303
  97.5052480  81.1621045  57.5759283  97.8998842  80.2586221  58.7247809
 107.8614408  90.8336972  56.5686526 108.3045554  90.0844297  56.1705649
 106.9840918  90.8247108  56.1860258 102.9950189  97.3867313  52.0493124
 103.6901094  98.0074006  52.2680439 103.3373339  96.5362665  52.3245502
  88.6117998  89.2085114  65.9089942  87.8699734  89.3567750  66.4954572
  88.2910743  89.4693380  65.0456691 104.8941612  94.8367019  53.5780455
 105.4192936  95.1754292  52.8529775 104.8063965  93.9014034  53.3943590
  96.5561661  98.7501093  65.7070332  96.8648787  98.5050239  66.5793031
  97.3537143  98.9547731  65.2189202  96.5782273 100.9039002  57.9375708
  96.1387263 100.4115381  58.6308565  97.3290390 100.3611970  57.6967784
  89.0574612  97.0950543  57.9400336  89.8832632  96.7954315  57.5598980
  88.7068664  96.3258165  58.3890125  94.0256145  96.4477011  60.0098010
  93.4036154  95.7847716  59.7100238  94.6961012  96.4738143  59.3271658
  87.2583217  95.0136869  58.8989270  86.4215125  94.5859044  58.7173271
  87.2306862  95.2069313  59.8360061  94.0980673  84.9258799  69.6030516
  94.1468828  85.8020922  69.2208286  94.6403187  84.3836192  69.0302159
 104.5835518  95.4699923  68.8831653 103.7931062  95.4524061  68.3436152
 104.3468873  96.0088216  69.6380690 104.7033393  92.3192389  66.1964382
 104.7531398  92.1542396  67.1379904 104.5947317  91.4519648  65.8062262
  93.5869652  94.9980935  53.4856470  93.7357772  95.6816399  52.8323143
  94.3936095  94.9786025  54.0005926 101.9937156  88.3023317  67.5123688
 102.8947018  88.1629782  67.2207686 102.0685130  88.4677772  68.4521866
  96.3279961  85.6790172  66.3576875  95.4583270  85.9723738  66.0859463
  96.5639441  86.2630617  67.0784138 106.2051590  94.7389330  66.4406403
 105.9136398  95.1019311  67.2769864 105.5923721  94.0256339  66.2619735
 107.4047272  92.3042210  58.9608973 108.2394164  92.7432014  59.1246534
 107.5406401  91.8280863  58.1417219 104.4538778  89.8621945  64.9086461
 104.9292900  90.0549591  64.1005312 103.5304344  89.9181131  64.6629845
  91.3422285  91.0246112  54.4917539  91.0968327  90.1208442  54.6897750
  91.5118200  91.0263263  53.5497017  99.0318995  81.8969789  63.8742295
  99.5500939  82.6330816  63.5488784  98.6774128  82.2033782  64.7089054
  90.6117933  86.7574470  51.9903701  89.9187177  86.8318825  51.3343737
  90.3669684  85.9934813  52.5125218  99.2831589  78.3170071  59.3943192
  99.5633343  77.6493260  60.0203618 100.0682196  78.5099167  58.8817855
  97.0865058  97.4929065  50.9568218  96.5139025  98.1119252  50.5038690
  97.6597851  98.0428427  51.4908140 103.1540447  86.7387705  63.1414767
 104.1057870  86.8385803  63.1626991 102.9843898  85.9465974  63.6512851
 101.1754827  83.8243288  63.3274168 100.5804759  84.1048301  62.6320656
 100.8904524  84.3137189  64.0990909 100.3062317  97.7766215  52.0876800
 101.2392990  97.7111777  52.2909676 100.2185530  98.6122482  51.6291333
 102.9350334  97.0932086  49.0480748 102.8563966  96.7591949  49.9416506
 103.7560001  97.5853853  49.0472220 105.6328525  89.9593825  62.2557066
 105.6004845  89.0209826  62.4416750 106.2429149  90.0377862  61.5222891
  97.4711856  88.8289878  48.2984270  98.4170961  88.6996086  48.3672688
  97.0926101  88.0904540  48.7753699 105.7823014  86.7504868  62.3015350
 105.2662062  85.9663325  62.1145278 106.6662962  86.4223585  62.4661869
 103.4433741  80.4945884  58.2611162 103.2458562  80.1860972  59.1454494
 104.0533446  81.2207523  58.3909092 111.4505075  91.0209832  61.3963103
 112.1808464  90.7595120  61.9570806 110.8412021  90.2838554  61.4365171
 109.5320372  89.1617694  61.9937554 108.8053536  89.0273659  61.3854046
 109.1167659  89.4694523  62.7994272  97.3550549  92.8807624  69.7584927
  98.2753558  93.0586223  69.9524974  97.3200132  91.9363669  69.6064627
  95.6554773  86.7539854  48.2339156  94.7486229  86.4572967  48.3101869
  95.9330754  86.4569672  47.3673442  86.5732714  88.0746218  58.6838202
  86.2535498  87.2211526  58.3912576  86.0266142  88.2894796  59.4396169
  90.3512621  90.7908659  62.4007709  90.5698631  91.7225766  62.4195742
  90.7638395  90.4316633  63.1862512  97.2716839  81.2976744  54.3883397
  96.4617567  80.9523829  54.7638643  97.9601256  80.9884288  54.9771008
  99.2007387  80.3754791  56.0107694  99.7538426  80.7950244  56.6697717
  99.4377474  79.4490539  56.0530650  95.2240486  86.3641864  71.7910457
  95.1237213  87.3136221  71.7222549  95.0062028  86.0360103  70.9186528
  94.4253558  83.6126789  48.3751135  95.2872722  83.9381688  48.6346952
  94.6103902  82.8258285  47.8624201  86.4420974  91.6949129  60.6531324
  85.7484445  91.2803082  60.1401278  87.1893965  91.7369666  60.0564743
 102.5786194  82.4855316  55.5186358 101.9984863  83.1440120  55.1364410
 102.3122127  81.6632660  55.1073775 101.0289761  81.8860374  57.7207678
 101.5289539  81.9976908  56.9121997 101.6725369  81.5821426  58.3608487
  95.0871757  89.7939003  70.6075519  94.6038838  90.5939363  70.8139408
  95.1732696  89.8046948  69.6542963  88.3557716  91.6267383  58.5297338
  88.3328404  91.7255070  57.5779222  88.6658353  92.4732534  58.8514505
  91.0145094  93.6843538  62.6443953  91.9688348  93.6527480  62.5773884
  90.8157618  93.2234162  63.4594179  91.6044476  92.2544654  65.2114751
  92.4237365  92.7488733  65.2349588  91.8781284  91.3376622  65.1832318
 101.3611072  84.6455406  54.5742706 100.4736927  84.9305057  54.3562901
 101.7765061  84.4849170  53.7269983 104.7125608  84.6701927  58.2897045
 105.4885999  85.1598380  58.5621662 103.9873743  85.0959981  58.7468915
 107.1498167  85.3829546  59.3470986 107.7442658  85.1425282  58.6364294
 107.2224751  84.6636677  59.9744522  89.3695323  99.2263157  59.6614151
  89.2349791  98.4663558  59.0952149  88.9527385  99.9504057  59.1942940
 100.5054286  94.4100081  48.6690726 101.2090136  94.6150083  49.2848382
  99.7816935  94.9776843  48.9339810 101.3352096  90.1609942  54.7892996
 101.2787297  90.6178494  53.9500629 101.8880439  89.4000627  54.6115839
 105.1456902  85.9499674  55.6143116 104.8893836  85.5496310  56.4451323
 104.5209770  86.6643468  55.4893255 109.4569240  88.6895747  58.1214407
 108.8968798  88.7588937  58.8945969 108.8512743  88.5136732  57.4013903
  92.5264449 100.1232474  59.8732593  92.4096833 101.0677907  59.7711284
  91.7056895  99.8206036  60.2618393 102.4140983  94.8482610  50.7189186
 103.2486587  94.4163809  50.5366661 102.2525326  94.6764624  51.6466081
 102.0686875  91.3514723  52.0845525 102.0135679  91.1858995  51.1433970
 101.4432931  92.0590756  52.2407715  86.8579390  86.5882788  65.9106948
  87.5038254  86.0781742  66.3994173  86.6496541  87.3251469  66.4850373
  99.3832783  93.6563635  71.4099088 100.2523942  93.8304288  71.0485723
  98.9039534  94.4758052  71.2874818  95.3783001  80.8522832  51.6630844
  95.3661671  81.7964672  51.8199115  96.2706423  80.6692978  51.3690305
  93.5518963 100.7760736  63.0888522  94.4546209 100.8084347  63.4055017
  93.3256333  99.8461187  63.1034858  95.3072565  99.5291723  59.7498600
  94.3568196  99.5293584  59.6362973  95.6105051  98.7824457  59.2334635
  99.1935120  77.4465609  55.9176781  98.4267516  76.8924096  56.0633463
  99.6045825  77.5187478  56.7790932  91.1976881  83.7350405  70.0081962
  92.0608343  83.3787210  70.2185286  90.6242292  83.3964300  70.6957366
 111.0425258 105.3652261  60.8144363 111.6803668 105.2459009  60.1107703
 110.9246101 106.3133105  60.8732315 107.8514965 105.3179689  60.7505888
 107.5133476 105.2020754  59.8626422 108.7204733 104.9170854  60.7306894
 103.7101780 107.1715166  56.7402779 103.1466645 107.0805103  55.9719066
 103.5954175 106.3515070  57.2205271 108.3334748 106.4714541  66.7092093
 108.3223388 106.0767339  65.8372597 108.4955387 105.7380614  67.3025865
 101.2566212 108.6666357  59.5786999 102.0487504 108.3257182  59.1633298
 101.4962862 108.7761332  60.4989152 103.2156966 107.9275271  52.4504378
 103.9887842 107.3804258  52.3117254 103.5682365 108.7919520  52.6618839
 105.0542009 109.2551653  65.6571277 104.7631875 110.1597284  65.5417943
 105.6898993 109.2968180  66.3715347 105.9798216 106.6328501  62.2472637
 106.5761788 106.4084524  61.5329600 106.0373187 105.8913247  62.8498085
 105.5523244 104.0867937  50.0822828 105.8048765 103.5649458  49.3206291
 104.6147803 103.9234082  50.1849511 110.5966527 103.0903715  57.8897571
 111.3829616 102.6723138  57.5387988 110.8605231 103.9949807  58.0579219
 105.2719533 105.9896043  52.2847203 105.1555791 105.3140946  52.9528287
 105.3821793 105.5028417  51.4679356 107.6151074 105.4506190  55.9893892
 107.2509281 104.9236811  56.7006813 108.4718190 105.0604659  55.8160377
 113.5200374  96.7400522  63.2525158 113.1883699  97.6095933  63.0286373
 112.9245988  96.4236806  63.9319188 107.2556561 100.4796089  50.9855240
 107.4230963 101.3476326  51.3525711 107.0653730 100.6423371  50.0616530
 103.4644375 105.3926865  58.6857775 102.5394872 105.2603079  58.8935467
 103.7128788 106.1721084  59.1827718 113.4129038 101.4595609  60.3318508
 112.5045915 101.3911017  60.0377269 113.3616633 101.9367553  61.1600334
 107.2345781 102.9353747  51.9701907 107.1145407 103.3810798  52.8087387
 106.5398370 103.2839065  51.4115445 100.8253186 105.0360139  59.5201564
 100.9545567 105.2894618  60.4340976 100.1450638 105.6287847  59.2006219
 107.4869903 102.8785254  68.2753405 106.7103237 103.4379174  68.2656270
 108.1260466 103.3642037  68.7968275 115.2790684  99.6612047  62.1096382
 114.6365064  99.9544580  61.4636177 114.7745613  99.5464967  62.9149579
 112.9330848 103.4075220  52.7982241 113.8448704 103.6402607  52.6229939
 112.4240495 103.9912264  52.2357320 105.7416276 105.6870707  67.8371372
 106.4830960 106.2255751  67.5606196 105.0353261 106.3136996  67.9942924
 107.5702685 102.7672455  63.8077091 108.4163881 103.1911868  63.9511740
 107.5101323 102.1106079  64.5015654 110.7202131 100.4276823  65.4658264
 110.4763063 101.1818884  64.9292540 110.9962061 100.8062171  66.3005511
 110.2766822  99.5833256  61.0472102 109.4151301  99.8814510  61.3388840
 110.3029257  99.8003655  60.1153135 107.0928392 108.1275447  57.4545908
 107.5566737 108.4063150  56.6650530 106.8285190 107.2258891  57.2718999
 103.9852473 107.6746928  60.3925671 104.5553830 108.1034197  59.7543156
 104.5760585 107.3929513  61.0909857 106.0297278 104.2498599  54.2635473
 106.7321321 104.7019643  54.7309399 105.6977906 103.6082418  54.8915366
 104.4777639 102.8410356  68.6386682 103.8476300 103.5226637  68.8722079
 104.3713727 102.7293437  67.6939821  99.7722612 102.5082152  59.5652607
  98.9821666 102.7639680  59.0892717 100.2633859 103.3230490  59.6704647
 101.7237357 102.8726731  56.5236083 100.9268520 102.9845425  57.0419579
 101.4962949 103.2113383  55.6576974  98.0560315 102.7612642  61.9967597
  98.3068353 103.6459652  62.2625173  98.5919863 102.5817244  61.2242689
 103.7558382  97.1431122  71.0011933 103.3625328  96.5897320  71.6759578
 104.5724522  97.4541700  71.3918451 100.7220440 108.5814980  54.9125503
 101.2344960 109.3758230  55.0631068 101.3743153 107.8841270  54.8459105
 106.6726343  98.5589001  68.5932190 107.4136056  99.1596154  68.5136652
 106.9044266  97.8166638  68.0350233 101.8167681 103.7445368  66.8710420
 101.7021196 102.8430625  67.1717519 100.9612199 103.9909065  66.5195236
 110.6183506  94.5870104  62.8696472 110.2747775  95.4771745  62.7935582
 110.9862469  94.3971761  62.0066057  98.6869357 106.9103634  55.6885074
  99.5244579 107.3200642  55.4718782  98.8647624 105.9703076  55.6585268
 110.5833789 104.5778715  51.3768907 110.0680412 105.3483319  51.6157294
 110.3111097 103.9043851  52.0001968 108.1680900  99.4228415  56.4354145
 107.3122496  99.0335266  56.2559784 108.5807852  99.5020376  55.5753931
 109.6980046  96.9574759  60.8345705 109.1944842  96.9204894  60.0213510
 109.9910653  97.8667501  60.8942362 105.9422932  97.0413488  59.8411887
 106.8075929  96.8456297  59.4817776 106.0100441  96.8123840  60.7681243
 110.3720092 102.4505807  53.2028688 110.0670228 102.7651956  54.0538831
 111.3250534 102.5287227  53.2456021 103.5485251  99.2715696  57.2128253
 104.1229003  99.0490878  56.4801446 104.1356234  99.3404391  57.9656855
 103.8754839 101.3020157  51.2324139 103.0392151 101.6394844  51.5533413
 103.7359608 101.1669137  50.2951276 105.8507919  96.1456945  55.9403323
 105.1972331  95.8305962  55.3159938 105.8088393  95.5232686  56.6663146
 106.9619124 106.4276240  47.8556615 106.0546186 106.1965494  48.0547764
 107.4590156 105.6313860  48.0430596 109.0845659 102.6338879  60.2650970
 108.1668221 102.8553826  60.1072659 109.5005803 102.7085189  59.4062678
 109.8680707 104.0330294  55.3953651 110.6152526 104.5451692  55.0860773
 110.1372297 103.7114347  56.2558044 108.1407357 106.5288835  52.3780605
 107.2318577 106.2447868  52.4753075 108.1702441 106.9487914  51.5183912
 112.3159544 101.0687411  57.3772440 111.5782301 100.5564797  57.7082683
 112.5686318 100.6287792  56.5655717 112.4171172  93.8463663  57.9714209
 112.7230049  92.9861026  57.6840124 113.1423777  94.4381283  57.7713203
  98.7095528 104.2494349  56.3595807  98.5119928 103.6563710  55.6346874
  98.1542192 103.9446560  57.0771746 106.6892251 104.1417456  58.4790400
 106.7440861 103.1891292  58.4032877 105.8783453 104.2976895  58.9631699
 104.6284611 102.7594516  56.2380779 103.8152477 103.0588686  56.6445971
 105.1243606 102.3650204  56.9555262 110.2258823 103.2236340  65.0695673
 110.5808211 103.4507813  65.9290139 110.8730954 103.5554717  64.4472928
 104.1198686 100.3312871  61.8542014 104.7598065 100.1901630  61.1564978
 103.2876217 100.0447384  61.4780616 104.8958990 109.6315301  57.9677007
 105.6899589 109.1365622  57.7659582 104.1850682 109.1033165  57.6044712
 101.2041754 103.7758383  54.0436759 100.2739342 103.7142839  54.2606721
 101.2999226 103.2534336  53.2473401 101.1227303 100.3013196  56.6315001
 101.3834120 101.2158529  56.5224161 101.9444475  99.8337639  56.7811614
 102.5952228 101.7150953  63.8013826 103.2675281 101.5068315  63.1526474
 101.7682014 101.5173039  63.3619058 108.4977800  98.3412894  65.8179486
 107.8505715  99.0402844  65.7243963 109.2678815  98.7749038  66.1855735
 108.6741934 106.1793659  63.8776306 109.6033994 106.3304819  63.7045273
 108.2532964 106.2677680  63.0224953 102.9979725 104.9893556  64.5616263
 102.8599523 104.2573795  65.1627802 103.9084649 104.9002456  64.2800450
 105.6262026 104.7013516  64.0499942 106.3361644 104.0606708  64.0086561
 105.5831334 104.9526410  64.9726123 104.3390960 101.6878733  65.8695582
 103.8028317 101.2369472  66.5217178 103.7507668 101.8224642  65.1266046
 103.7493219 101.1467385  48.4322045 102.8722685 101.0256186  48.0684292
 104.2250972 100.3553463  48.1800934  95.2695359 105.9344545  58.5263553
  95.9566399 105.6206275  57.9384568  95.1143488 106.8385909  58.2530804
 100.0730081 100.8234741  62.9548576  99.9888270 100.2160411  62.2198986
  99.2512787 101.3143759  62.9558073 110.2453795  99.3088305  58.3218771
 110.7422494  98.5558267  58.0019842 109.4740776  99.3452621  57.7561981
 106.8288764 101.4505688  58.0490456 106.4586551 100.8976728  58.7371362
 107.3247856 100.8463821  57.4965456 112.6872790  96.2757898  60.4698130
 111.7735869  96.5062125  60.6380337 113.1165891  96.3596342  61.3212163
 112.4579248 104.4647790  62.9698024 111.8050698 104.7123698  62.3150477
 112.8359628 103.6511928  62.6360502 108.5066821 105.2067601  69.4564061
 107.8307458 105.1061730  70.1266437 109.3294455 105.0506815  69.9200059
 100.2545680 111.4439538  62.0776577 100.8399117 110.6983226  62.2104481
 100.0570519 111.7543494  62.9613241  94.8463335 104.0145138  60.7981020
  94.8847435 103.4808729  61.5918138  94.3403628 103.4880343  60.1791997
 102.2254097  98.8609678  64.2943562 102.2895424  99.7224509  63.8820960
 102.1621218  98.2483680  63.5615921 101.7006370 100.9332811  67.9416596
 102.3278409 100.5509888  68.5554121 100.8434289 100.7147013  68.3072289
  98.4771913 102.7409240  53.8734951  98.7725354 101.8319918  53.8202005
  97.5759948 102.7196980  53.5515953 102.0066160 100.8165237  59.8562500
 101.2852745 101.4301204  59.7169973 102.7959415 101.3523001  59.7779146
 104.8092473  98.1519663  66.1303152 105.3326875  98.3981960  66.8929461
 104.5904806  98.9839698  65.7106289 100.2059754 100.4223338  53.9974276
  99.8772460  99.5420717  53.8149382 100.5599125 100.3671006  54.8850666
 103.3201577 100.7096308  54.3649754 103.6597650 101.2382229  53.6428362
 103.7673698 101.0476714  55.1408321 106.0145018  99.0933358  63.8152822
 105.6741839  98.2941171  64.2173502 105.3084024  99.3935069  63.2429655
 106.6661490  96.1782671  62.2680145 107.4887559  95.7043149  62.1459035
 106.9099554  96.9573154  62.7678831 105.3069724  99.2070929  52.5643047
 106.0278087  99.5852182  52.0606764 104.6835029  99.9259806  52.6678025
 109.4500847  99.9116078  53.5001379 109.6664462 100.7940716  53.1990207
 108.9694915  99.5202291  52.7707021 104.1900069 102.8701791  60.0772124
 104.0444649 103.1842094  60.9696405 103.7125272 103.4886692  59.5243022
 106.0496452  99.8604339  60.1253013 106.0358020  98.9645433  59.7885311
 106.7668880  99.8675003  60.7591299 107.9022582 100.2941679  62.1706141
 107.6440360 101.2158750  62.1690471 107.3707623  99.8972114  62.8606605
  98.6645731 105.4107136  63.0159785  98.1199199 106.1866944  63.1480059
  99.5425081 105.7577940  62.8578906 105.4533348  98.7418720  55.3940583
 105.5749259  97.8135366  55.5931471 105.1635390  98.7557406  54.4818899
 108.3224538  96.4273630  58.5307303 108.3446235  96.4912963  57.5759283
 108.7392597  95.5878139  58.7247809  99.4511753 104.5377032  65.9089942
  98.7093489 104.6859667  66.4954572  99.1304497 104.7985298  65.0456691
  99.8968366 112.4242461  57.9400336 100.7226386 112.1246233  57.5598980
  99.5462418 111.6550083  58.3890125  98.0976971 110.3428787  58.8989270
  97.2608880 109.9150962  58.7173271  98.0700617 110.5361230  59.8360061
 104.9374427 100.2550717  69.6030516 104.9862583 101.1312840  69.2208286
 105.4796941  99.7128110  69.0302159 112.8330910 103.6315235  67.5123688
 113.7340773 103.4921699  67.2207686 112.9078885 103.7969689  68.4521866
 107.1673716 101.0082089  66.3576875 106.2977025 101.3015655  66.0859463
 107.4033196 101.5922534  67.0784138 102.1816039 106.3538030  54.4917539
 101.9362081 105.4500360  54.6897750 102.3511954 106.3555180  53.5497017
 109.8712749  97.2261706  63.8742295 110.3894693  97.9622733  63.5488784
 109.5167882  97.5325700  64.7089054 101.4511687 102.0866387  51.9903701
 100.7580932 102.1610742  51.3343737 101.2063439 101.3226731  52.5125218
 110.1225344  93.6461989  59.3943192 110.4027097  92.9785178  60.0203618
 110.9075950  93.8391084  58.8817855 113.9934202 102.0679623  63.1414767
 114.9451625 102.1677720  63.1626991 113.8237652 101.2757891  63.6512851
 112.0148581  99.1535206  63.3274168 111.4198513  99.4340219  62.6320656
 111.7298278  99.6429107  64.0990909 108.3105611 104.1581795  48.2984270
 109.2564715 104.0288004  48.3672688 107.9319855 103.4196457  48.7753699
 116.6216768 102.0796786  62.3015350 116.1055817 101.2955243  62.1145278
 117.5056717 101.7515503  62.4661869 114.2827495  95.8237801  58.2611162
 114.0852316  95.5152890  59.1454494 114.8927201  96.5499440  58.3909092
 106.4948528 102.0831772  48.2339156 105.5879983 101.7864885  48.3101869
 106.7724509 101.7861590  47.3673442  97.4126468 103.4038135  58.6838202
  97.0929252 102.5503443  58.3912576  96.8659896 103.6186713  59.4396169
 101.1906376 106.1200576  62.4007709 101.4092385 107.0517684  62.4195742
 101.6032149 105.7608551  63.1862512 108.1110593  96.6268662  54.3883397
 107.3011322  96.2815747  54.7638643 108.7995010  96.3176205  54.9771008
 110.0401142  95.7046708  56.0107694 110.5932180  96.1242162  56.6697717
 110.2771228  94.7782456  56.0530650 106.0634241 101.6933782  71.7910457
 105.9630968 102.6428139  71.7222549 105.8455783 101.3652021  70.9186528
 105.2647312  98.9418707  48.3751135 106.1266476  99.2673605  48.6346952
 105.4497656  98.1550203  47.8624201  97.2814728 107.0241047  60.6531324
  96.5878200 106.6095000  60.1401278  98.0287719 107.0661583  60.0564743
 113.4179949  97.8147234  55.5186358 112.8378618  98.4732038  55.1364410
 113.1515881  96.9924578  55.1073775 111.8683515  97.2152291  57.7207678
 112.3683294  97.3268826  56.9121997 112.5119123  96.9113344  58.3608487
 105.9265511 105.1230921  70.6075519 105.4432593 105.9231281  70.8139408
 106.0126450 105.1338866  69.6542963  99.1951471 106.9559301  58.5297338
  99.1722159 107.0546988  57.5779222  99.5052107 107.8024451  58.8514505
 101.8538848 109.0135456  62.6443953 102.8082102 108.9819398  62.5773884
 101.6551372 108.5526079  63.4594179 102.4438231 107.5836572  65.2114751
 103.2631120 108.0780650  65.2349588 102.7175038 106.6668540  65.1832318
 112.2004827  99.9747324  54.5742706 111.3130682 100.2596975  54.3562901
 112.6158816  99.8141087  53.7269983 115.5519363  99.9993845  58.2897045
 116.3279753 100.4890297  58.5621662 114.8267497 100.4251899  58.7468915
 115.9850656 101.2791592  55.6143116 115.7287591 100.8788227  56.4451323
 115.3603525 101.9935386  55.4893255  97.6973145 101.9174705  65.9106948
  98.3432008 101.4073659  66.3994173  97.4890296 102.6543387  66.4850373
 106.2176755  96.1814750  51.6630844 106.2055425  97.1256590  51.8199115
 107.1100177  95.9984896  51.3690305 110.0328875  92.7757527  55.9176781
 109.2661271  92.2216013  56.0633463 110.4439580  92.8479395  56.7790932
 102.0370636  99.0642323  70.0081962 102.9002097  98.7079127  70.2185286
 101.4636047  98.7256217  70.6957366  38.6739255  -7.7974218  43.4648085
  38.1104120  -7.8884281  42.6964373  38.5591650  -8.6174313  43.9450578
  36.2203687  -6.3023026  46.3032306  37.0124978  -6.6432201  45.8878605
  36.4600337  -6.1928051  47.2234459  44.2538813  -4.1303250  38.7762550
  43.6026793  -3.5449170  38.3896564  45.0483176  -3.5997055  38.8357588
  38.1794440  -7.0414113  39.1749684  38.9525316  -7.5885126  39.0362560
  38.5319839  -6.1769864  39.3864146  40.0179483  -5.7137731  52.3816584
  39.7269349  -4.8092100  52.2663250  40.6536467  -5.6721203  53.0960653
  40.9435690  -8.3360882  48.9717943  41.5399262  -8.5604860  48.2574906
  41.0010661  -9.0776137  49.5743391  45.7314078  -6.4412818  39.3131534
  45.0959911  -6.3678192  40.0252439  45.4011485  -5.8519219  38.6350614
  40.2357007  -8.9793341  39.0092509  40.1193265  -9.6548437  39.6773594
  40.3459267  -9.4660967  38.1924662  44.9769368  -6.0276315  49.3766377
  44.6770091  -5.1251276  49.2682185  44.6320428  -6.2944132  50.2287530
  39.9590148   0.7368005  42.3437345  39.8814178   1.6875830  42.4225826
  39.3551791   0.3913878  43.0012271  40.7053750  -9.2818676  54.5616679
  41.4468434  -8.7433632  54.2851503  39.9990735  -8.6552387  54.7188231
  46.5037904  -6.5788345  46.9141129  45.8746767  -6.4142631  46.2117197
  46.1163566  -6.1646735  47.6852093  50.3827136  -5.6433907  44.2685493
  49.6978174  -5.2635006  43.7182526  50.4670985  -5.0338580  45.0017441
  42.0565866  -6.8413937  44.1791214  42.5204212  -6.5626234  43.3895837
  41.7922664  -7.7430492  43.9964305  38.9489947  -7.2942455  47.1170978
  39.5191304  -6.8655187  46.4788462  39.5398059  -7.5759871  47.8155163
  48.7523896  -5.1201993  49.0403194  49.5741339  -5.5221805  48.7585876
  48.7486299  -5.2233758  49.9919310  42.5180499  -5.5717949  51.1963904
  42.5824932  -5.1097542  52.0322076  41.8091423  -6.2020584  51.3246214
  42.2328517  -3.9049842  41.0642885  42.0974192  -3.0598306  41.4927733
  42.7738329  -3.7030564  40.3008819  35.6857914  -6.3874404  41.6370810
  36.1982435  -5.5931154  41.7876375  36.3380627  -7.0848113  41.5704411
  37.4952799  -3.2708647  43.7193563  37.6719427  -2.3490683  43.5314547
  38.2909632  -3.5850228  44.1487943  43.8596993  -3.2826275  55.1943227
  43.4160847  -4.0689897  54.8764131  44.5214207  -3.0947125  54.5287118
  38.6184114  -1.7530474  49.7203905  39.1691539  -1.8813410  48.9480899
  37.7795590  -1.4535585  49.3698798  45.9578231  -3.0023475  53.2224628
  45.9396707  -2.1814594  52.7304897  46.8798151  -3.1269400  53.4474769
  42.4151285  -5.4879346  54.0648137  42.9479622  -6.2491058  53.8347445
  41.8865367  -5.7805694  54.8072291  43.7803998  -6.3593353  41.5766949
  43.2525360  -7.0940594  41.2640186  43.2791501  -5.5818677  41.3306917
  44.8324677   0.1684364  37.4998608  44.1586376   0.4716061  38.1083566
  45.2190499   0.9713444  37.1504065  43.1044832  -8.4400548  39.1025912
  42.1956051  -8.7241515  39.1998381  43.1339916  -8.0201470  38.2429219
  48.3364099  -4.8293959  42.8717079  47.8826426  -5.6703049  42.9282270
  47.7058066  -4.1932560  43.2091859  46.7797038  -2.9917462  43.8066897
  47.0720013  -2.4312405  43.0879263  47.2895659  -2.6988901  44.5620056
  42.8020920  -6.8991805  36.4413990  42.3640349  -7.6155946  35.9819628
  43.5431360  -6.6715690  35.8799082  41.7430664  -2.2137111  44.8960351
  41.7006842  -1.9876265  43.9668883  42.6593362  -2.4473736  45.0446152
  39.8596464  -5.3374082  44.6922313  40.6537063  -5.8323762  44.4904888
  39.1488157  -5.8656219  44.3290019  44.6791309  -2.9555986  49.0434681
  44.7328331  -2.3865050  49.8112397  43.8106090  -2.7854101  48.6788718
  46.8694072  -6.3627637  55.6175346  46.7179579  -6.5917085  54.7005430
  46.8598752  -5.4057036  55.6306691  42.4367740  -4.7645060  48.3720150
  42.2978826  -5.1326276  49.2446089  41.6482337  -4.2497421  48.2004108
  43.0315892   0.3364036  39.7145687  43.2067648  -0.1347920  40.5291310
  42.3448680   0.9629803  39.9426948  43.9872956  -5.3863457  45.7608988
  43.6522788  -5.4262687  46.6566638  43.4876901  -6.0518741  45.2879398
  48.5786279  -3.3308515  53.6951828  48.5198825  -4.0149294  53.0282411
  48.9805797  -2.5889525  53.2432454  37.5976978   3.4853399  46.4885547
  37.8373576   4.1171923  47.1664566  36.7546174   3.1341439  46.7750906
  48.5803686  -5.3668931  51.9265808  47.6930465  -5.7043009  52.0492207
  49.1502237  -6.0985899  52.1634573  42.1104839  -0.7067478  48.8927051
  42.0375011   0.0987493  49.4046356  41.6682233  -0.5075512  48.0675072
  41.8994619  -1.4695708  42.4029873  41.1162141  -0.9274028  42.4968097
  42.5987364  -0.9521729  42.8024114  44.5703523  -0.8080644  51.0485210
  45.2831495  -0.1733179  50.9761111  44.0793552  -0.7116778  50.2325212
  39.6215437  -3.0586201  51.8690781  40.3224896  -2.4249718  52.0220175
  39.1510552  -2.7171469  51.1086420  47.7469832  -4.7168251  40.1538688
  48.0229676  -4.8311656  41.0632562  46.8774331  -5.1150766  40.1150861
  44.3823896  -0.4681900  43.7971501  44.5646291  -1.2860244  44.2599254
  45.2056882  -0.2514208  43.3596391  44.7166062  -1.5413715  41.0586550
  45.2453828  -2.0521260  40.4456712  44.9794281  -1.8571185  41.9232083
  35.2183155  -3.5249846  48.8021883  35.8036591  -4.2706158  48.9349787
  35.0207993  -3.2145889  49.6858547  38.0721810  -0.4898598  43.8184326
  37.4032185  -0.0052471  43.3348366  37.9334680  -0.2429378  44.7327704
  42.2127078   1.5445145  50.4166984  42.7645386   1.7076767  51.1816069
  42.5533272   2.1349583  49.7447009  47.0637953  -3.6293597  56.2715638
  47.6077857  -3.0163639  55.7770593  46.4824798  -3.0714019  56.7882651
  45.3495466  -0.5072879  47.4030666  45.2246605  -1.3083139  46.8941612
  46.0074557  -0.0126686  46.9144636  47.4130374  -2.7063859  49.0310216
  46.4660710  -2.8258508  48.9588543  47.7613147  -3.5941361  49.1136478
  44.4176807  -2.9111143  45.2314568  44.2701770  -3.8394436  45.4122139
  45.2430301  -2.8891052  44.7471644  48.0210929  -2.0882584  46.3179441
  48.9457477  -2.2939723  46.1803892  47.8526233  -2.3366183  47.2268783
  47.8106245  -1.5696917  41.6741533  47.9843123  -2.1350494  40.9215385
  48.3035137  -0.7696022  41.4921023  48.7981418  -2.2530152  38.7738431
  49.4932323  -1.6323460  38.9925746  49.1404568  -3.1034801  39.0490809
  50.6972841  -4.8030447  40.3025762  51.2224165  -4.4643174  39.5775082
  50.6095194  -5.7383432  40.1188896  42.3592890  -0.8896373  52.4315638
  42.6680016  -1.1347226  53.3038338  43.1568372  -0.6849735  51.9434509
  42.3813502   1.2641536  44.6621015  41.9418492   0.7717915  45.3553872
  43.1321619   0.7214504  44.4213090  34.8605841  -2.5446923  44.6645643
  35.6863861  -2.8443151  44.2844287  34.5099893  -3.3139300  45.1135432
  39.8287374  -3.1920455  46.7343317  39.2067383  -3.8549750  46.4345544
  40.4992241  -3.1659323  46.0516964  50.3866747  -4.1697543  55.6076960
  49.5962291  -4.1873404  55.0681459  50.1500102  -3.6309250  56.3625996
  39.3900881  -4.6416531  40.2101777  39.5389001  -3.9581067  39.5568450
  40.1967324  -4.6611441  40.7251233  52.0082819  -4.9008135  53.1651710
  51.7167627  -4.5378155  54.0015171  51.3954950  -5.6141127  52.9865042
  42.8896286  -2.1468401  37.6813525  42.3170253  -1.5278214  37.2283996
  43.4629080  -1.5969039  38.2153446  46.1093546  -1.8631251  38.8122107
  47.0424219  -1.9285689  39.0154982  46.0216759  -1.0274984  38.3536639
  48.7381563  -2.5465380  35.7726054  48.6595194  -2.8805517  36.6661812
  49.5591230  -2.0543612  35.7717527  43.1581777  -6.7589842  56.4830234
  44.0784787  -6.5811243  56.6770281  43.1231360  -7.7033797  56.3309933
  36.8176323  -5.9553928  49.3689260  37.7719576  -5.9869986  49.3019191
  36.6188846  -6.4163304  50.1839485  37.4075705  -7.3852812  51.9360057
  38.2268594  -6.8908733  51.9594894  37.6812513  -8.3020844  51.9077625
  35.1726552  -0.4134308  46.3859457  35.0381020  -1.1733908  45.8197455
  34.7558614   0.3106591  45.9188246  46.3085515  -5.2297385  35.3936033
  47.0121365  -5.0247382  36.0093688  45.5848163  -4.6620623  35.6585116
  38.3295677   0.4835009  46.5977900  38.2128062   1.4280441  46.4956590
  37.5088124   0.1808570  46.9863699  48.2172212  -4.7914856  37.4434493
  49.0517816  -5.2233657  37.2611968  48.0556555  -4.9632842  38.3711387
  45.1864011  -5.9833831  58.1344395  46.0555171  -5.8093178  57.7731030
  44.7070763  -5.1639414  58.0120124  39.3550192   1.1363270  49.8133828
  40.2577438   1.1686881  50.1300323  39.1287562   0.2063721  49.8280164
  41.1103794  -0.1105743  46.4743907  40.1599425  -0.1103881  46.3608279
  41.4136280  -0.8573008  45.9579942  56.8456487   5.7254795  47.5389670
  57.4834897   5.6061543  46.8353010  56.7277330   6.6735639  47.5977622
  53.6546193   5.6782224  47.4751194  53.3164705   5.5623288  46.5871729
  54.5235962   5.2773389  47.4552200  49.5133009   7.5317700  43.4648085
  48.9497874   7.4407637  42.6964373  49.3985404   6.7117604  43.9450578
  54.1365976   6.8317075  53.4337400  54.1254617   6.4369874  52.5617903
  54.2986616   6.0983148  54.0271171  47.0597441   9.0268892  46.3032306
  47.8518733   8.6859716  45.8878605  47.2994091   9.1363867  47.2234459
  55.0932568  11.1988668  38.7762550  54.4420548  11.7842748  38.3896564
  55.8876931  11.7294863  38.8357588  49.0188195   8.2877805  39.1749684
  49.7919071   7.7406792  39.0362560  49.3713594   9.1522054  39.3864146
  50.8573238   9.6154187  52.3816584  50.5663103  10.5199818  52.2663250
  51.4930222   9.6570715  53.0960653  51.7829444   6.9931036  48.9717943
  52.3793017   6.7687058  48.2574906  51.8404416   6.2515781  49.5743391
  51.3554473   4.4470471  36.8068134  51.6079993   3.9251992  36.0451597
  50.4179032   4.2836616  36.9094818  56.3997756   3.4506249  44.6142878
  57.1860845   3.0325672  44.2633295  56.6636460   4.3552341  44.7824526
  56.5707833   8.8879100  39.3131534  55.9353666   8.9613726  40.0252439
  56.2405239   9.4772698  38.6350614  61.8006183   3.3881482  45.5175856
  62.5331355   2.8180699  45.7513686  61.0445538   3.0003083  45.9582362
  51.0750762   6.3498577  39.0092509  50.9587020   5.6743480  39.6773594
  51.1853021   5.8630951  38.1924662  53.4182302   5.8108724  42.7139199
  53.0540510   5.2839345  43.4252120  54.2749418   5.4207193  42.5405684
  59.3231603  -2.8996943  49.9770465  58.9914928  -2.0301532  49.7531680
  58.7277216  -3.2160659  50.6564495  53.0587789   0.8398624  37.7100547
  53.2262192   1.7078860  38.0771018  52.8684958   1.0025905  36.7861836
  55.8163123   9.3015603  49.3766377  55.5163846  10.2040641  49.2682185
  55.4714182   9.0347786  50.2287530  49.2675604   5.7529399  45.4103082
  48.3426101   5.6205614  45.6180774  49.5160017   6.5323619  45.9073024
  59.2160266   1.8198143  47.0563815  58.3077144   1.7513551  46.7622576
  59.1647862   2.2970088  47.8845640  53.0377010   3.2956281  38.6947214
  52.9176635   3.7413332  39.5332694  52.3429599   3.6441599  38.1360752
  46.6284415   5.3962673  46.2446871  46.7576796   5.6497152  47.1586283
  45.9481866   5.9890381  45.9251526  50.7983902  16.0659923  42.3437345
  50.7207932  17.0167748  42.4225826  50.1945546  15.7205795  43.0012271
  53.2901132   3.2387788  54.9998712  52.5134466   3.7981708  54.9901577
  53.9291695   3.7244571  55.5213582  61.0821913   0.0214581  48.8341689
  60.4396293   0.3147114  48.1881483  60.5776841  -0.0932499  49.6394885
  58.7362076   3.7677754  39.5227548  59.6479933   4.0005141  39.3475245
  58.2271724   4.3514799  38.9602627  51.5447504   6.0473242  54.5616679
  52.2862189   6.5858286  54.2851503  50.8384490   6.6739530  54.7188231
  57.0202844   8.1902382  53.1588840  57.4286200   7.7484793  52.4143473
  56.2980106   7.6155010  53.4123033  53.3733914   3.1274989  50.5322397
  54.2195109   3.5514403  50.6757046  53.3132552   2.4708613  51.2260961
  57.3431659   8.7503573  46.9141129  56.7140521   8.9149287  46.2117197
  56.9557321   9.1645182  47.6852093  61.2220891   9.6858011  44.2685493
  60.5371929  10.0656912  43.7182526  61.3064740  10.2953337  45.0017441
  56.5233359   0.7879357  52.1903571  56.2794291   1.5421418  51.6537847
  56.7993290   1.1664705  53.0250818  58.4771822   7.3317970  50.8680837
  58.6888718   7.9749730  50.1915218  58.4301571   6.4980286  50.4002767
  56.0798051  -0.0564210  47.7717409  55.2182530   0.2417044  48.0634146
  56.1060486   0.1606189  46.8398441  52.8959621   8.4877981  44.1791214
  53.3597966   8.7665684  43.3895837  52.6316419   7.5861425  43.9964305
  49.7883702   8.0349462  47.1170978  50.3585059   8.4636731  46.4788462
  50.3791814   7.7532047  47.8155163  51.8328507   4.6101133  40.9880780
  52.5352550   5.0622177  41.4554706  51.5009135   3.9684952  41.6160673
  50.2808868   3.2012890  55.3631989  49.6507529   3.8829171  55.5967386
  50.1744956   3.0895971  54.4185127  45.5753841   2.8684686  46.2897913
  44.7852895   3.1242214  45.8138024  46.0665088   3.6833024  46.3949954
  59.5917650  10.2089925  49.0403194  60.4135094   9.8070112  48.7585876
  59.5880053  10.1058159  49.9919310  47.5268586   3.2329265  43.2481390
  46.7299749   3.3447959  43.7664886  47.2994178   3.5715917  42.3822280
  53.3574254   9.7573968  51.1963904  53.4218686  10.2194376  52.0322076
  52.6485178   9.1271333  51.3246214  43.8591544   3.1215176  48.7212904
  44.1099582   4.0062186  48.9870480  44.3951092   2.9419778  47.9487996
  67.6823643   6.5528674  45.3888165  66.9287352   5.9836072  45.2332170
  67.8171184   6.5191338  46.3358800  53.0722271  11.4242076  41.0642885
  52.9367946  12.2693612  41.4927733  53.6132084  11.6261354  40.3008819
  49.5589611  -2.4966344  57.7257240  49.1656557  -3.0500146  58.4004884
  50.3755751  -2.1855766  58.1163758  46.5251669   8.9417514  41.6370810
  47.0376189   9.7360764  41.7876375  47.1774382   8.2443804  41.5704411
  48.3346553  12.0583270  43.7193563  48.5113182  12.9801235  43.5314547
  49.1303387  11.7441689  44.1487943  52.4757572  -1.0808465  55.3177497
  53.2167285  -0.4801312  55.2381959  52.7075495  -1.8230827  54.7595539
  47.6198910   4.1047902  53.5955726  47.5052425   3.2033159  53.8962825
  46.7643428   4.3511599  53.2440543  54.6990748  12.0465642  55.1943227
  54.2554602  11.2602021  54.8764131  55.3607961  12.2344793  54.5287118
  49.4577869  13.5761444  49.7203905  50.0085294  13.4478507  48.9480899
  48.6189345  13.8756333  49.3698798  56.7971986  12.3268442  53.2224628
  56.7790461  13.1477323  52.7304897  57.7191906  12.2022518  53.4474769
  53.2545040   9.8412572  54.0648137  53.7873377   9.0800860  53.8347445
  52.7259121   9.5486224  54.8072291  44.4900585   7.2706168  42.4130380
  45.3275807   7.6803177  42.1964088  44.6678853   6.3305610  42.3830574
  56.3865018   4.9381249  38.1014213  55.8711641   5.7085854  38.3402601
  56.1142326   4.2646385  38.7247275  53.9712129  -0.2169050  43.1599452
  53.1153725  -0.6062200  42.9805090  54.3839080  -0.1377090  42.2999237
  55.5011275  -2.6822707  47.5591012  54.9976071  -2.7192572  46.7458817
  55.7941882  -1.7729964  47.6187668  51.7454161  -2.5983977  46.5657193
  52.6107158  -2.7941169  46.2063083  51.8131670  -2.8273626  47.4926550
  61.3599292   7.6913604  40.0367387  60.5828735   7.3524763  39.5922549
  62.0390773   7.6966227  39.3622352  56.1751321   2.8108341  39.9273995
  55.8701456   3.1254490  40.7784138  57.1281763   2.8889761  39.9701328
  54.6197753   8.9698564  41.5766949  54.0919114   8.2351324  41.2640186
  54.1185255   9.7473241  41.3306917  59.5990599   7.1647585  46.6933995
  58.9414273   7.8546846  46.7814123  60.4030998   7.5544017  47.0367981
  49.3516480  -0.3681769  43.9373560  49.9260232  -0.5906588  43.2046753
  49.9387463  -0.2993075  44.6902161  58.4096057   5.5191957  44.7437937
  58.9227939   6.1521949  45.2459646  59.0597281   4.9193153  44.3781297
  49.6786067   1.6622692  37.9569445  48.8423380   1.9997378  38.2778720
  49.5390837   1.5271671  37.0196582  51.6539148  -3.4940521  42.6648629
  51.0003560  -3.8091503  42.0405244  51.6119622  -4.1164780  43.3908452
  52.7650353   6.7878775  34.5801922  51.8577415   6.5568028  34.7793071
  53.2621385   5.9916394  34.7675903  55.6718432  15.4976282  37.4998608
  54.9980130  15.8007978  38.1083566  56.0584254  16.3005362  37.1504065
  54.8876888   2.9941413  46.9896277  53.9699450   3.2156360  46.8317965
  55.3037032   3.0687723  46.1307984  55.6711936   4.3932829  42.1198957
  56.4183755   4.9054226  41.8106079  55.9403526   4.0716881  42.9803351
  53.9438586   6.8891369  39.1025912  53.0349805   6.6050402  39.1998381
  53.9733670   7.3090448  38.2429219  59.1757854  10.4997959  42.8717079
  58.7220181   9.6588869  42.9282270  58.5451820  11.1359357  43.2091859
  58.1190773   1.4289945  44.1017747  57.3813530   0.9167331  44.4327989
  58.3717547   0.9890327  43.2901024  57.6190793  12.3374456  43.8066897
  57.9113767  12.8979513  43.0879263  58.1289413  12.6303017  44.5620056
  44.5126757   4.6096884  43.0841114  44.3151156   4.0166244  42.3592180
  43.9573421   4.3049094  43.8017053  52.4923480   4.5019990  45.2035707
  52.5472090   3.5493826  45.1278184  51.6814682   4.6579429  45.6877005
  53.6414674   8.4300113  36.4413990  53.2034104   7.7135972  35.9819628
  54.3825115   8.6576228  35.8799082  50.4315840   3.1197050  42.9626086
  49.6183706   3.4191220  43.3691278  50.9274834   2.7252739  43.6800568
  52.5824418  13.1154807  44.8960351  52.5400597  13.3415653  43.9668883
  53.4987117  12.8818181  45.0446152  56.0290052   3.5838874  51.7940980
  56.3839440   3.8110347  52.6535446  56.6762183   3.9157251  51.1718235
  61.7587789   6.7057310  42.4990309  61.6205687   6.8958906  41.5711498
  61.4024008   7.4676693  42.9558360  49.9229915   0.6915405  48.5787321
  50.5629294   0.5504164  47.8810284  49.0907446   0.4049919  48.2025923
  61.7857168   8.7733837  47.5101580  62.2193675   8.6809126  48.3584634
  62.4988749   8.7491338  46.8721596  50.6990219   9.9917836  44.6922313
  51.4930817   9.4968156  44.4904888  49.9881911   9.4635699  44.3290019
  55.5185063  12.3735931  49.0434681  55.5722086  12.9426868  49.8112397
  54.6499845  12.5437816  48.6788718  47.0072982   4.1360917  40.7682066
  46.0770570   4.0745373  40.9852028  47.1030454   3.6136870  39.9718707
  46.9258531   0.6615730  43.3560308  47.1865349   1.5761064  43.2469468
  47.7475704   0.1940173  43.5056920  48.3983457   2.0753487  50.5259132
  49.0706510   1.8670850  49.8771781  47.5713243   1.8775573  50.0864364
  62.6472718   8.8157538  50.0434466  62.8408608   9.7203348  50.2893741
  62.5473336   8.3564957  50.8773051  54.3009029  -1.2984572  52.5424793
  53.6536944  -0.5994622  52.4489269  55.0710044  -0.8648428  52.9101041
  57.7087827   8.9664281  55.6175346  57.5573333   8.7374832  54.7005430
  57.6992506   9.9234882  55.6306691  54.4773163   6.5396193  50.6021613
  55.4065223   6.6907353  50.4290580  54.0564193   6.6280214  49.7470259
  53.2761495  10.5646858  48.3720150  53.1372581  10.1965642  49.2446089
  52.4876091  11.0794497  48.2004108  53.8709647  15.6655954  39.7145687
  54.0461403  15.1943997  40.5291310  53.1842435  16.2921720  39.9426948
  54.8266710   9.9428460  45.7608988  54.4916543   9.9029230  46.6566638
  54.3270656   9.2773176  45.2879398  48.8010954   5.3496090  51.2861569
  48.6630752   4.6176329  51.8873108  49.7115877   5.2604991  51.0045757
  57.7625902   7.2884495  36.0346048  57.1455072   6.5631323  35.9379101
  57.2942390   8.0493855  35.6913122  51.4293255   5.0616050  50.7745249
  52.1392873   4.4209242  50.7331867  51.3862563   5.3128945  51.6971430
  59.4180033  11.9983403  53.6951828  59.3592579  11.3142623  53.0282411
  59.8199552  12.7402393  53.2432454  50.1422189   2.0481268  52.5940888
  49.6059546   1.5972006  53.2462485  49.5538897   2.1827176  51.8511353
  48.4370732  18.8145317  46.4885547  48.6767330  19.4463841  47.1664566
  47.5939929  18.4633357  46.7750906  49.5524448   1.5069919  35.1567352
  48.6753914   1.3858720  34.7929599  50.0282201   0.7155997  34.9046241
  59.4197441   9.9622987  51.9265808  58.5324219   9.6248909  52.0492207
  59.9895992   9.2306018  52.1634573  41.0726588   6.2947079  45.2508859
  41.7597628   5.9808809  44.6629875  40.9174716   7.1988443  44.9776111
  45.8761310   1.1837275  49.6793883  45.7919499   0.5762945  48.9444293
  45.0544016   1.6746294  49.6803379  52.9498594  14.6224439  48.8927051
  52.8768765  15.4279411  49.4046356  52.5075987  14.8216405  48.0675072
  52.7388374  13.8596209  42.4029873  51.9555895  14.4017890  42.4968097
  53.4381119  14.3770189  42.8024114  56.0485024  -0.3309161  45.0464078
  56.5453723  -1.0839199  44.7265148  55.2772005  -0.2944844  44.4807287
  63.9014781   5.3731204  46.6882370  63.8904657   6.2555920  46.3176303
  63.0332161   5.0202755  46.4936907  55.4097277  14.5211273  51.0485210
  56.1225250  15.1558738  50.9761111  54.9187306  14.6175139  50.2325212
  57.1314804   8.4262526  42.6202501  56.1971083   8.5463989  42.4507206
  57.3091473   7.5234993  42.3562511  52.6319992   1.8108222  44.7735763
  52.2617780   1.2579262  45.4616668  53.1279085   1.2066355  44.2210763
  60.5187356   4.2679845  43.1552536  60.9847808   5.1007837  43.0812838
  60.9694856   3.8024827  43.8597794  50.4609191  12.2705717  51.8690781
  51.1618651  12.9042200  52.0220175  49.9904306  12.6120448  51.1086420
  58.5863587  10.6123667  40.1538688  58.8623431  10.4980261  41.0632562
  57.7168086  10.2141152  40.1150861  58.2610477   4.8250324  49.6943331
  57.6081927   5.0726232  49.0395784  58.6390857   4.0114463  49.3605808
  55.2217651  14.8610017  43.7971501  55.4040045  14.0431673  44.2599254
  56.0450637  15.0777710  43.3596391  55.5559816  13.7878203  41.0586550
  56.0847583  13.2770657  40.4456712  55.8188036  13.4720733  41.9232083
  54.3098050   5.5670135  56.1809368  53.6338687   5.4664265  56.8511743
  55.1325684   5.4109349  56.6445365  46.0576909  11.8042072  48.8021883
  46.6430346  11.0585760  48.9349787  45.8601748  12.1146029  49.6858547
  48.9115564  14.8393319  43.8184326  48.2425940  15.3239447  43.3348366
  48.7728434  15.0862540  44.7327704  40.6494564   4.3747672  47.5226326
  40.6878663   3.8411263  48.3163444  40.1434857   3.8482878  46.9037304
  53.0520833  16.8737063  50.4166984  53.6039141  17.0368684  51.1816069
  53.3927026  17.4641501  49.7447009  48.0285326  -0.7787787  51.0188869
  48.0926653   0.0827044  50.6066266  47.9652446  -1.3913786  50.2861227
  47.5037599   1.2935345  54.6661903  48.1309637   0.9112422  55.2799427
  46.6465518   1.0749547  55.0317595  57.9031707  11.6998320  56.2715638
  58.4471611  12.3128279  55.7770593  57.3218552  12.2577899  56.7882651
  44.2803141   3.1011774  40.5980258  44.5756582   2.1922453  40.5447311
  43.3791177   3.0799514  40.2761260  56.1889220  14.8219038  47.4030666
  56.0640360  14.0208778  46.8941612  56.8468311  15.3165232  46.9144636
  47.8097388   1.1767771  46.5807806  47.0883974   1.7903739  46.4415280
  48.5990644   1.7125536  46.5024452  58.2524129  12.6228058  49.0310216
  57.3054464  12.5033410  48.9588543  58.6006902  11.7350556  49.1136478
  50.6123702  -1.4877803  52.8548458  51.1358104  -1.2415506  53.6174767
  50.3936035  -0.6557768  52.4351595  46.0090983   0.7825872  40.7219583
  45.6803689  -0.0976749  40.5394689  46.3630354   0.7273541  41.6095972
  55.2570562  12.4180775  45.2314568  55.1095524  11.4897482  45.4122139
  56.0824055  12.4400865  44.7471644  49.1232806   1.0698842  41.0895061
  49.4628879   1.5984763  40.3673669  49.5704927   1.4079248  41.8653627
  58.8604684  13.2409333  46.3179441  59.7851231  13.0352195  46.1803892
  58.6919987  12.9925735  47.2268783  51.8176247  -0.5464108  50.5398129
  51.4773067  -1.3456294  50.9418809  51.1115253  -0.2462397  49.9674962
  52.4692719  -3.4614795  48.9925452  53.2918788  -3.9354317  48.8704342
  52.7130782  -2.6824311  49.4924138  51.1100953  -0.4326537  39.2888353
  51.8309316  -0.0545284  38.7852070  50.4866257   0.2862340  39.3923331
  55.2532076   0.2718612  40.2246686  55.4695691   1.1543250  39.9235514
  54.7726143  -0.1195174  39.4952328  49.9931298   3.2304326  46.8017430
  49.8475878   3.5444629  47.6941712  49.5156501   3.8489226  46.2488329
  51.8527680   0.2206874  46.8498320  51.8389249  -0.6752033  46.5130618
  52.5700109   0.2277537  47.4836606  53.7053811   0.6544214  48.8951447
  53.4471589   1.5761284  48.8935778  53.1738852   0.2574648  49.5851911
  58.6500000  13.7595001  41.6741533  58.8236877  13.1941423  40.9215385
  59.1428891  14.5595896  41.4921023  44.4676960   5.7709670  49.7405091
  43.9230428   6.5469478  49.8725366  45.3456310   6.1180474  49.5824213
  51.2564576  -0.8978746  42.1185890  51.3780488  -1.8262100  42.3176777
  50.9666619  -0.8840060  41.2064205  54.1255767  -3.2123836  45.2552610
  54.1477464  -3.1484503  44.3004589  54.5423826  -4.0519327  45.4493116
  64.5039391   6.5231424  43.2931832  64.9470537   5.7738749  42.8950956
  63.6265901   6.5141560  42.9105564  59.6375172  13.0761765  38.7738431
  60.3326077  13.6968458  38.9925746  59.9798323  12.2257116  39.0490809
  45.2542982   4.8979566  52.6335248  44.5124718   5.0462202  53.2199879
  44.9335726   5.1587832  51.7701998  61.5366596  10.5261471  40.3025762
  62.0617920  10.8648744  39.5775082  61.4488948   9.5908486  40.1188896
  53.1986644  14.4395544  52.4315638  53.5073771  14.1944691  53.3038338
  53.9962126  14.6442183  51.9434509  53.2207256  16.5933454  44.6621015
  52.7812247  16.1009833  45.3553872  53.9715373  16.0506422  44.4213090
  45.6999595  12.7844995  44.6645643  46.5257615  12.4848767  44.2844287
  45.3493647  12.0152617  45.1135432  50.6681128  12.1371463  46.7343317
  50.0461138  11.4742168  46.4345544  51.3385995  12.1632595  46.0516964
  43.9008200  10.7031321  45.6234577  43.0640109  10.2753496  45.4418578
  43.8731846  10.8963765  46.5605368  50.7405656   0.6153251  56.3275823
  50.7893811   1.4915374  55.9453592  51.2828170   0.0730644  55.7547466
  61.2260502  11.1594374  55.6076960  60.4356045  11.1418513  55.0681459
  60.9893856  11.6982668  56.3625996  61.3458377   8.0086841  52.9209688
  61.3956382   7.8436848  53.8625211  61.2372300   7.1414100  52.5307569
  50.2294635  10.6875386  40.2101777  50.3782756  11.3710851  39.5568450
  51.0361079  10.6680477  40.7251233  58.6362139   3.9917769  54.2368995
  59.5372002   3.8524234  53.9452993  58.7110114   4.1572224  55.1767172
  52.9704944   1.3684624  53.0822181  52.1008254   1.6618190  52.8104770
  53.2064425   1.9525069  53.8029445  62.8476573  10.4283782  53.1651710
  62.5561382  10.7913763  54.0015171  62.2348705   9.7150791  52.9865042
  64.0472256   7.9936662  45.6854280  64.8819147   8.4326466  45.8491840
  64.1831385   7.5175315  44.8662526  61.0963762   5.5516397  51.6331768
  61.5717883   5.7444043  50.8250619  60.1729327   5.6075583  51.3875151
  47.9847268   6.7140564  41.2162846  47.7393310   5.8102894  41.4143056
  48.1543183   6.7157715  40.2742324  55.6743978  -2.4135760  50.5987602
  56.1925922  -1.6774733  50.2734090  55.3199111  -2.1071766  51.4334361
  47.2542916   2.4468922  38.7149007  46.5612161   2.5213277  38.0589043
  47.0094668   1.6829265  39.2370524  53.7290041  13.1823517  37.6813525
  53.1564008  13.8013704  37.2283996  54.3022835  13.7322879  38.2153446
  59.7965431   2.4282157  49.8660073  60.7482854   2.5280255  49.8872297
  59.6268881   1.6360426  50.3758158  57.8179810  -0.4862260  50.0519474
  57.2229742  -0.2057247  49.3565963  57.5329507   0.0031641  50.8236215
  56.9487301  13.4660667  38.8122107  57.8817974  13.4006229  39.0154982
  56.8610513  14.3016934  38.3536639  59.5775317  12.7826537  35.7726054
  59.4988949  12.4486401  36.6661812  60.3984984  13.2748305  35.7717527
  62.2753508   5.6488277  48.9802373  62.2429829   4.7104277  49.1662057
  62.8854132   5.7272313  48.2468198  54.1136839   4.5184330  35.0229577
  55.0595944   4.3890538  35.0917995  53.7351084   3.7798992  35.4999005
  62.4247997   2.4399320  49.0260656  61.9087046   1.6557777  48.8390585
  63.3087946   2.1118037  49.1907176  68.0930058   6.7104284  48.1208410
  68.8233447   6.4489572  48.6816113  67.4837004   5.9733005  48.1610478
  66.1745355   4.8512146  48.7182861  65.4478519   4.7168111  48.1099353
  65.7592642   5.1588975  49.5239579  53.9975532   8.5702076  56.4830234
  54.9178541   8.7480675  56.6770281  53.9625115   7.6258121  56.3309933
  52.2979757   2.4434306  34.9584462  51.3911212   2.1467419  35.0347176
  52.5755738   2.1464124  34.0918748  43.2157697   3.7640669  45.4083509
  42.8960481   2.9105978  45.1157883  42.6691125   3.9789248  46.1641476
  46.9937604   6.4803110  49.1253015  47.2123614   7.4120218  49.1441049
  47.4063378   6.1211085  49.9107819  53.9141822  -3.0128804  41.1128704
  53.1042551  -3.3581719  41.4883950  54.6026239  -3.3221260  41.7016315
  51.8665470   2.0536316  58.5155764  51.7662197   3.0030673  58.4467855
  51.6487012   1.7254555  57.6431834  51.0678541  -0.6978759  35.0996441
  51.9297705  -0.3723860  35.3592259  51.2528885  -1.4847263  34.5869507
  43.0845957   7.3843581  47.3776630  42.3909428   6.9697534  46.8646585
  43.8318948   7.4264117  46.7810049  59.2211178  -1.8250232  42.2431664
  58.6409847  -1.1665428  41.8609717  58.9547110  -2.6472888  41.8319082
  57.6714744  -2.4245175  44.4452985  58.1714522  -2.3128640  43.6367304
  58.3150352  -2.7284122  45.0853793  51.7296740   5.4833455  57.3320826
  51.2463822   6.2833815  57.5384715  51.8157679   5.4941400  56.3788270
  44.9982699   7.3161835  45.2542645  44.9753388   7.4149522  44.3024528
  45.3083336   8.1626986  45.5759811  47.6570077   9.3737990  49.3689260
  48.6113331   9.3421932  49.3019191  47.4582601   8.9128614  50.1839485
  48.2469459   7.9439106  51.9360057  49.0662348   8.4383184  51.9594894
  48.5206267   7.0271074  51.9077625  58.0036056   0.3349858  41.2988013
  57.1161911   0.6199509  41.0808207  58.4190045   0.1743621  40.4515290
  61.3550592   0.3596379  45.0142352  62.1310982   0.8492832  45.2866969
  60.6298726   0.7854433  45.4714221  63.7923150   1.0723998  46.0716293
  64.3867641   0.8319734  45.3609601  63.8649734   0.3531129  46.6989829
  46.0120306  14.9157609  46.3859457  45.8774774  14.1558010  45.8197455
  45.5952368  15.6398509  45.9188246  57.1479269  10.0994533  35.3936033
  57.8515119  10.3044535  36.0093688  56.4241918  10.6671295  35.6585116
  57.9777079   5.8504394  41.5138303  57.9212281   6.3072945  40.6745935
  58.5305422   5.0895079  41.3361146  61.7881885   1.6394126  42.3388422
  61.5318820   1.2390762  43.1696630  61.1634753   2.3537920  42.2138562
  66.0994223   4.3790199  44.8459714  65.5393781   4.4483388  45.6191276
  65.4937727   4.2031184  44.1259210  49.1689432  15.8126926  46.5977900
  49.0521816  16.7572359  46.4956590  48.3481878  15.5100488  46.9863699
  59.0565966  10.5377062  37.4434493  59.8911570  10.1058260  37.2611968
  58.8950309  10.3659076  38.3711387  58.7111859   7.0409175  38.8090832
  58.6560662   6.8753447  37.8679276  58.0857914   7.7485208  38.9653022
  43.5004374   2.2777240  52.6352254  44.1463237   1.7676194  53.1239479
  43.2921525   3.0145921  53.2095680  56.0257766   9.3458087  58.1344395
  56.8948925   9.5198739  57.7731030  55.5464517  10.1652504  58.0120124
  52.0207984  -3.4582716  38.3876150  52.0086654  -2.5140876  38.5444421
  52.9131406  -3.6412570  38.0935612  50.1943946  16.4655188  49.8133828
  51.0971193  16.4978798  50.1300323  49.9681316  15.5355639  49.8280164
  51.9497548  15.2186175  46.4743907  50.9993179  15.2188036  46.3608279
  52.2530034  14.4718909  45.9579942  47.8401865  -0.5755143  56.7327269
  48.7033326  -0.9318338  56.9430593  47.2667275  -0.9141248  57.4202673
  67.6850242  21.0546713  47.5389670  68.3228652  20.9353460  46.8353010
  67.5671084  22.0027557  47.5977622  64.4939948  21.0074141  47.4751194
  64.1558459  20.8915206  46.5871729  65.3629716  20.6065306  47.4552200
  60.3526764  22.8609618  43.4648085  59.7891629  22.7699555  42.6964373
  60.2379159  22.0409522  43.9450578  64.9759731  22.1608993  53.4337400
  64.9648372  21.7661791  52.5617903  65.1380370  21.4275066  54.0271171
  57.8991195  24.3560809  46.3032306  58.6912487  24.0151634  45.8878605
  58.1387846  24.4655784  47.2234459  65.9326322  26.5280585  38.7762550
  65.2814302  27.1134666  38.3896564  66.7270685  27.0586780  38.8357588
  59.8581949  23.6169722  39.1749684  60.6312825  23.0698710  39.0362560
  60.2107348  24.4813972  39.3864146  61.6966992  24.9446105  52.3816584
  61.4056858  25.8491736  52.2663250  62.3323976  24.9862632  53.0960653
  62.6223199  22.3222953  48.9717943  63.2186771  22.0978976  48.2574906
  62.6798170  21.5807699  49.5743391  62.1948227  19.7762389  36.8068134
  62.4473748  19.2543910  36.0451597  61.2572786  19.6128534  36.9094818
  67.2391510  18.7798167  44.6142878  68.0254599  18.3617590  44.2633295
  67.5030214  19.6844259  44.7824526  67.4101587  24.2171017  39.3131534
  66.7747420  24.2905644  40.0252439  67.0798994  24.8064616  38.6350614
  72.6399937  18.7173400  45.5175856  73.3725109  18.1472617  45.7513686
  71.8839293  18.3295001  45.9582362  61.9144516  21.6790495  39.0092509
  61.7980774  21.0035398  39.6773594  62.0246776  21.1922868  38.1924662
  64.2576057  21.1400642  42.7139199  63.8934264  20.6131263  43.4252120
  65.1143173  20.7499111  42.5405684  70.1625358  12.4294974  49.9770465
  69.8308682  13.2990385  49.7531680  69.5670971  12.1131258  50.6564495
  63.8981544  16.1690541  37.7100547  64.0655946  17.0370778  38.0771018
  63.7078713  16.3317823  36.7861836  66.6556877  24.6307520  49.3766377
  66.3557600  25.5332559  49.2682185  66.3107937  24.3639703  50.2287530
  60.1069359  21.0821317  45.4103082  59.1819855  20.9497531  45.6180774
  60.3553772  21.8615536  45.9073024  70.0554021  17.1490060  47.0563815
  69.1470898  17.0805469  46.7622576  70.0041617  17.6262005  47.8845640
  63.8770765  18.6248199  38.6947214  63.7570390  19.0705250  39.5332694
  63.1823353  18.9733517  38.1360752  57.4678170  20.7254591  46.2446871
  57.5970551  20.9789070  47.1586283  56.7875621  21.3182299  45.9251526
  61.6377657  31.3951841  42.3437345  61.5601687  32.3459666  42.4225826
  61.0339300  31.0497713  43.0012271  64.1294887  18.5679706  54.9998712
  63.3528221  19.1273626  54.9901577  64.7685450  19.0536489  55.5213582
  71.9215667  15.3506499  48.8341689  71.2790048  15.6439032  48.1881483
  71.4170596  15.2359419  49.6394885  69.5755831  19.0969672  39.5227548
  70.4873687  19.3297059  39.3475245  69.0665478  19.6806716  38.9602627
  62.3841259  21.3765159  54.5616679  63.1255943  21.9150203  54.2851503
  61.6778244  22.0031448  54.7188231  67.8596599  23.5194300  53.1588840
  68.2679955  23.0776710  52.4143473  67.1373860  22.9446927  53.4123033
  64.2127669  18.4566907  50.5322397  65.0588864  18.8806320  50.6757046
  64.1526306  17.8000531  51.2260961  68.1825413  24.0795490  46.9141129
  67.5534276  24.2441205  46.2117197  67.7951075  24.4937100  47.6852093
  72.0614645  25.0149928  44.2685493  71.3765683  25.3948830  43.7182526
  72.1458494  25.6245255  45.0017441  67.3627114  16.1171275  52.1903571
  67.1188046  16.8713336  51.6537847  67.6387044  16.4956623  53.0250818
  69.3165577  22.6609887  50.8680837  69.5282472  23.3041647  50.1915218
  69.2695325  21.8272204  50.4002767  66.9191806  15.2727708  47.7717409
  66.0576285  15.5708962  48.0634146  66.9454240  15.4898107  46.8398441
  63.7353375  23.8169899  44.1791214  64.1991721  24.0957602  43.3895837
  63.4710173  22.9153343  43.9964305  60.6277456  23.3641380  47.1170978
  61.1978813  23.7928648  46.4788462  61.2185568  23.0823965  47.8155163
  62.6722261  19.9393051  40.9880780  63.3746305  20.3914095  41.4554706
  62.3402890  19.2976870  41.6160673  61.1202623  18.5304808  55.3631989
  60.4901283  19.2121088  55.5967386  61.0138711  18.4187889  54.4185127
  56.4147595  18.1976604  46.2897913  55.6246649  18.4534132  45.8138024
  56.9058843  19.0124941  46.3949954  70.4311405  25.5381843  49.0403194
  71.2528848  25.1362030  48.7585876  70.4273808  25.4350077  49.9919310
  58.3662341  18.5621183  43.2481390  57.5693504  18.6739877  43.7664886
  58.1387933  18.9007835  42.3822280  64.1968008  25.0865886  51.1963904
  64.2612441  25.5486293  52.0322076  63.4878932  24.4563251  51.3246214
  54.6985298  18.4507094  48.7212904  54.9493337  19.3354104  48.9870480
  55.2344847  18.2711696  47.9487996  78.5217398  21.8820591  45.3888165
  77.7681106  21.3127989  45.2332170  78.6564939  21.8483256  46.3358800
  63.9116026  26.7533994  41.0642885  63.7761701  27.5985529  41.4927733
  64.4525838  26.9553271  40.3008819  60.3983365  12.8325573  57.7257240
  60.0050311  12.2791772  58.4004884  61.2149506  13.1436152  58.1163758
  57.3645423  24.2709432  41.6370810  57.8769944  25.0652682  41.7876375
  58.0168136  23.5735722  41.5704411  59.1740308  27.3875188  43.7193563
  59.3506936  28.3093153  43.5314547  59.9697141  27.0733607  44.1487943
  63.3151326  14.2483452  55.3177497  64.0561040  14.8490606  55.2381959
  63.5469249  13.5061090  54.7595539  58.4592664  19.4339820  53.5955726
  58.3446180  18.5325077  53.8962825  57.6037182  19.6803517  53.2440543
  65.5384502  27.3757560  55.1943227  65.0948356  26.5893939  54.8764131
  66.2001716  27.5636711  54.5287118  60.2971623  28.9053362  49.7203905
  60.8479048  28.7770425  48.9480899  59.4583099  29.2048251  49.3698798
  67.6365740  27.6560360  53.2224628  67.6184216  28.4769241  52.7304897
  68.5585660  27.5314435  53.4474769  64.0938794  25.1704489  54.0648137
  64.6267131  24.4092778  53.8347445  63.5652876  24.8778141  54.8072291
  67.2608489  10.2764555  49.5941778  66.9172759  11.1666197  49.5180889
  67.6287452  10.0866213  48.7311363  55.3294340  22.5998086  42.4130380
  56.1669562  23.0095094  42.1964088  55.5072608  21.6597528  42.3830574
  67.2258772  20.2673167  38.1014213  66.7105396  21.0377771  38.3402601
  66.9536081  19.5938303  38.7247275  64.8105883  15.1122867  43.1599452
  63.9547479  14.7229718  42.9805090  65.2232835  15.1914828  42.2999237
  66.3405030  12.6469211  47.5591012  65.8369825  12.6099346  46.7458817
  66.6335637  13.5561953  47.6187668  62.5847916  12.7307940  46.5657193
  63.4500912  12.5350749  46.2063083  62.6525425  12.5018292  47.4926550
  72.1993046  23.0205521  40.0367387  71.4222489  22.6816681  39.5922549
  72.8784527  23.0258144  39.3622352  67.0145075  18.1400259  39.9273995
  66.7095211  18.4546408  40.7784138  67.9675517  18.2181679  39.9701328
  65.4591507  24.2990482  41.5766949  64.9312869  23.5643242  41.2640186
  64.9579010  25.0765158  41.3306917  70.4384353  22.4939502  46.6933995
  69.7808028  23.1838764  46.7814123  71.2424752  22.8835934  47.0367981
  60.1910235  14.9610148  43.9373560  60.7653987  14.7385330  43.2046753
  60.7781217  15.0298843  44.6902161  69.2489812  20.8483875  44.7437937
  69.7621694  21.4813867  45.2459646  69.8991036  20.2485071  44.3781297
  60.5179822  16.9914609  37.9569445  59.6817134  17.3289296  38.2778720
  60.3784591  16.8563589  37.0196582  62.4932902  11.8351397  42.6648629
  61.8397315  11.5200414  42.0405244  62.4513377  11.2127138  43.3908452
  63.6044107  22.1170692  34.5801922  62.6971169  21.8859946  34.7793071
  64.1015139  21.3208311  34.7675903  66.5112186  30.8268199  37.4998608
  65.8373885  31.1299896  38.1083566  66.8978008  31.6297280  37.1504065
  65.7270643  18.3233331  46.9896277  64.8093204  18.5448278  46.8317965
  66.1430786  18.3979641  46.1307984  66.5105691  19.7224746  42.1198957
  67.2577509  20.2346144  41.8106079  66.7797280  19.4008799  42.9803351
  64.7832341  22.2183287  39.1025912  63.8743560  21.9342320  39.1998381
  64.8127425  22.6382366  38.2429219  70.0151608  25.8289877  42.8717079
  69.5613935  24.9880786  42.9282270  69.3845575  26.4651275  43.2091859
  68.9584528  16.7581863  44.1017747  68.2207284  16.2459249  44.4327989
  69.2111301  16.3182244  43.2901024  68.4584547  27.6666373  43.8066897
  68.7507522  28.2271430  43.0879263  68.9683168  27.9594934  44.5620056
  69.0596155   9.5358115  44.6959516  69.3655032   8.6755478  44.4085431
  69.7848760  10.1275735  44.4958510  55.3520511  19.9388801  43.0841114
  55.1544911  19.3458162  42.3592180  54.7967175  19.6341011  43.8017053
  63.3317235  19.8311908  45.2035707  63.3865845  18.8785744  45.1278184
  62.5208437  19.9871347  45.6877005  64.4808429  23.7592031  36.4413990
  64.0427858  23.0427890  35.9819628  65.2218869  23.9868146  35.8799082
  61.2709595  18.4488967  42.9626086  60.4577460  18.7483138  43.3691278
  61.7668589  18.0544656  43.6800568  63.4218173  28.4446724  44.8960351
  63.3794351  28.6707571  43.9668883  64.3380871  28.2110099  45.0446152
  66.8683806  18.9130792  51.7940980  67.2233194  19.1402265  52.6535446
  67.5155938  19.2449169  51.1718235  72.5981543  22.0349228  42.4990309
  72.4599442  22.2250824  41.5711498  72.2417762  22.7968611  42.9558360
  60.7623669  16.0207323  48.5787321  61.4023049  15.8796082  47.8810284
  59.9301200  15.7341836  48.2025923  72.6250923  24.1025755  47.5101580
  73.0587430  24.0101044  48.3584634  73.3382504  24.0783255  46.8721596
  61.5383973  25.3209753  44.6922313  62.3324572  24.8260074  44.4904888
  60.8275666  24.7927617  44.3290019  66.3578818  27.7027849  49.0434681
  66.4115840  28.2718785  49.8112397  65.4893599  27.8729734  48.6788718
  57.8466737  19.4652835  40.7682066  56.9164325  19.4037291  40.9852028
  57.9424209  18.9428788  39.9718707  57.7652286  15.9907648  43.3560308
  58.0259103  16.9052981  43.2469468  58.5869458  15.5232091  43.5056920
  59.2377211  17.4045405  50.5259132  59.9100265  17.1962767  49.8771781
  58.4106998  17.2067491  50.0864364  73.4866472  24.1449455  50.0434466
  73.6802363  25.0495266  50.2893741  73.3867091  23.6856875  50.8773051
  65.1402783  14.0307346  52.5424793  64.4930698  14.7297296  52.4489269
  65.9103799  14.4643490  52.9101041  68.5481581  24.2956198  55.6175346
  68.3967088  24.0666750  54.7005430  68.5386261  25.2526800  55.6306691
  65.3166918  21.8688111  50.6021613  66.2458978  22.0199271  50.4290580
  64.8957948  21.9572132  49.7470259  64.1155249  25.8938775  48.3720150
  63.9766335  25.5257560  49.2446089  63.3269846  26.4086415  48.2004108
  64.7103401  30.9947872  39.7145687  64.8855157  30.5235915  40.5291310
  64.0236189  31.6213638  39.9426948  65.6660464  25.2720378  45.7608988
  65.3310297  25.2321148  46.6566638  65.1664410  24.6065094  45.2879398
  59.6404708  20.6788008  51.2861569  59.5024506  19.9468247  51.8873108
  60.5509632  20.5896908  51.0045757  68.6019656  22.6176412  36.0346048
  67.9848827  21.8923241  35.9379101  68.1336145  23.3785773  35.6913122
  62.2687009  20.3907967  50.7745249  62.9786628  19.7501160  50.7331867
  62.2256317  20.6420862  51.6971430  70.2573788  27.3275321  53.6951828
  70.1986334  26.6434541  53.0282411  70.6593306  28.0694311  53.2432454
  60.9815943  17.3773185  52.5940888  60.4453300  16.9263924  53.2462485
  60.3932652  17.5119094  51.8511353  59.2764487  34.1437235  46.4885547
  59.5161085  34.7755759  47.1664566  58.4333683  33.7925275  46.7750906
  60.3918202  16.8361837  35.1567352  59.5147668  16.7150637  34.7929599
  60.8675955  16.0447915  34.9046241  70.2591195  25.2914905  51.9265808
  69.3717974  24.9540826  52.0492207  70.8289746  24.5597936  52.1634573
  51.9120342  21.6238996  45.2508859  52.5991382  21.3100726  44.6629875
  51.7568471  22.5280361  44.9776111  56.7155064  16.5129193  49.6793883
  56.6313253  15.9054863  48.9444293  55.8937771  17.0038211  49.6803379
  63.7892348  29.9516357  48.8927051  63.7162520  30.7571329  49.4046356
  63.3469742  30.1508323  48.0675072  63.5782128  29.1888127  42.4029873
  62.7949650  29.7309807  42.4968097  64.2774873  29.7062107  42.8024114
  66.8878778  14.9982757  45.0464078  67.3847478  14.2452719  44.7265148
  66.1165760  15.0347073  44.4807287  74.7408536  20.7023122  46.6882370
  74.7298412  21.5847837  46.3176303  73.8725915  20.3494673  46.4936907
  66.2491032  29.8503191  51.0485210  66.9619004  30.4850656  50.9761111
  65.7581061  29.9467057  50.2325212  67.9708559  23.7554444  42.6202501
  67.0364838  23.8755906  42.4507206  68.1485227  22.8526911  42.3562511
  63.4713747  17.1400140  44.7735763  63.1011534  16.5871180  45.4616668
  63.9672839  16.5358273  44.2210763  71.3581110  19.5971763  43.1552536
  71.8241562  20.4299755  43.0812838  71.8088611  19.1316745  43.8597794
  61.3002946  27.5997635  51.8690781  62.0012405  28.2334118  52.0220175
  60.8298061  27.9412366  51.1086420  69.4257341  25.9415584  40.1538688
  69.7017185  25.8272179  41.0632562  68.5561840  25.5433069  40.1150861
  69.3297773  11.9652350  47.1943437  68.4160853  12.1956577  47.3625644
  69.7590874  12.0490794  48.0457469  69.1004231  20.1542242  49.6943331
  68.4475682  20.4018149  49.0395784  69.4784611  19.3406380  49.3605808
  66.0611405  30.1901935  43.7971501  66.2433800  29.3723591  44.2599254
  66.8844391  30.4069627  43.3596391  66.3953571  29.1170120  41.0586550
  66.9241337  28.6062575  40.4456712  66.6581790  28.8012651  41.9232083
  65.1491805  20.8962053  56.1809368  64.4732442  20.7956182  56.8511743
  65.9719438  20.7401267  56.6445365  56.8970664  27.1333990  48.8021883
  57.4824100  26.3877677  48.9349787  56.6995502  27.4437946  49.6858547
  59.7509319  30.1685237  43.8184326  59.0819694  30.6531365  43.3348366
  59.6122188  30.4154457  44.7327704  51.4888318  19.7039590  47.5226326
  51.5272418  19.1703180  48.3163444  50.9828611  19.1774795  46.9037304
  63.8914587  32.2028980  50.4166984  64.4432895  32.3660602  51.1816069
  64.2320781  32.7933418  49.7447009  58.8679081  14.5504130  51.0188869
  58.9320407  15.4118961  50.6066266  58.8046201  13.9378132  50.2861227
  58.3431353  16.6227263  54.6661903  58.9703392  16.2404340  55.2799427
  57.4859272  16.4041465  55.0317595  68.7425462  27.0290238  56.2715638
  69.2865366  27.6420196  55.7770593  68.1612307  27.5869816  56.7882651
  55.1196896  18.4303692  40.5980258  55.4150337  17.5214370  40.5447311
  54.2184932  18.4091431  40.2761260  67.0282975  30.1510956  47.4030666
  66.9034114  29.3500696  46.8941612  67.6862066  30.6457149  46.9144636
  58.6491143  16.5059689  46.5807806  57.9277729  17.1195656  46.4415280
  59.4384399  17.0417453  46.5024452  69.0917883  27.9519976  49.0310216
  68.1448219  27.8325327  48.9588543  69.4400656  27.0642474  49.1136478
  61.4517456  13.8414115  52.8548458  61.9751858  14.0876412  53.6174767
  61.2329790  14.6734150  52.4351595  56.8484737  16.1117790  40.7219583
  56.5197444  15.2315169  40.5394689  57.2024108  16.0565458  41.6095972
  66.0964316  27.7472692  45.2314568  65.9489279  26.8189400  45.4122139
  66.9217810  27.7692783  44.7471644  59.9626561  16.3990759  41.0895061
  60.3022633  16.9276681  40.3673669  60.4098681  16.7371166  41.8653627
  69.6998438  28.5701251  46.3179441  70.6244986  28.3644112  46.1803892
  69.5313742  28.3217652  47.2268783  62.6570001  14.7827810  50.5398129
  62.3166822  13.9835623  50.9418809  61.9509008  15.0829521  49.9674962
  63.3086473  11.8677123  48.9925452  64.1312543  11.3937601  48.8704342
  63.5524537  12.6467606  49.4924138  61.9494708  14.8965381  39.2888353
  62.6703070  15.2746634  38.7852070  61.3260012  15.6154258  39.3923331
  66.0925831  15.6010530  40.2246686  66.3089445  16.4835168  39.9235514
  65.6119898  15.2096743  39.4952328  60.8325052  18.5596243  46.8017430
  60.6869633  18.8736546  47.6941712  60.3550256  19.1781144  46.2488329
  62.6921435  15.5498791  46.8498320  62.6783004  14.6539884  46.5130618
  63.4093863  15.5569455  47.4836606  64.5447566  15.9836131  48.8951447
  64.2865343  16.9053202  48.8935778  64.0132606  15.5866566  49.5851911
  69.4893754  29.0886918  41.6741533  69.6630632  28.5233341  40.9215385
  69.9822646  29.8887813  41.4921023  55.3070714  21.1001588  49.7405091
  54.7624182  21.8761396  49.8725366  56.1850064  21.4472392  49.5824213
  62.0958331  14.4313171  42.1185890  62.2174242  13.5029818  42.3176777
  61.8060373  14.4451857  41.2064205  64.9649521  12.1168082  45.2552610
  64.9871218  12.1807415  44.3004589  65.3817580  11.2772591  45.4493116
  75.3433146  21.8523341  43.2931832  75.7864292  21.1030667  42.8950956
  74.4659656  21.8433478  42.9105564  70.4768927  28.4053683  38.7738431
  71.1719832  29.0260376  38.9925746  70.8192077  27.5549034  39.0490809
  56.0936736  20.2271484  52.6335248  55.3518472  20.3754119  53.2199879
  55.7729480  20.4879749  51.7701998  72.3760350  25.8553388  40.3025762
  72.9011674  26.1940661  39.5775082  72.2882703  24.9200404  40.1188896
  64.0380399  29.7687462  52.4315638  64.3467525  29.5236609  53.3038338
  64.8355881  29.9734101  51.9434509  64.0601011  31.9225372  44.6621015
  63.6206001  31.4301750  45.3553872  64.8109128  31.3798339  44.4213090
  56.5393350  28.1136913  44.6645643  57.3651370  27.8140684  44.2844287
  56.1887402  27.3444535  45.1135432  61.5074883  27.4663381  46.7343317
  60.8854892  26.8034086  46.4345544  62.1779750  27.4924513  46.0516964
  54.7401955  26.0323239  45.6234577  53.9033863  25.6045413  45.4418578
  54.7125600  26.2255682  46.5605368  61.5799410  15.9445169  56.3275823
  61.6287566  16.8207292  55.9453592  62.1221925  15.4022562  55.7547466
  72.0654256  26.4886292  55.6076960  71.2749800  26.4710431  55.0681459
  71.8287611  27.0274586  56.3625996  72.1852131  23.3378758  52.9209688
  72.2350136  23.1728766  53.8625211  72.0766054  22.4706017  52.5307569
  61.0688390  26.0167304  40.2101777  61.2176510  26.7002769  39.5568450
  61.8754833  25.9972394  40.7251233  69.4755894  19.3209686  54.2368995
  70.3765756  19.1816151  53.9452993  69.5503868  19.4864141  55.1767172
  63.8098699  16.6976541  53.0822181  62.9402008  16.9910107  52.8104770
  64.0458179  17.2816986  53.8029445  73.6870328  25.7575700  53.1651710
  73.3955136  26.1205681  54.0015171  73.0742459  25.0442708  52.9865042
  74.8866010  23.3228580  45.6854280  75.7212902  23.7618384  45.8491840
  75.0225139  22.8467233  44.8662526  71.9357516  20.8808315  51.6331768
  72.4111638  21.0735961  50.8250619  71.0123082  20.9367500  51.3875151
  58.8241023  22.0432482  41.2162846  58.5787065  21.1394812  41.4143056
  58.9936937  22.0449632  40.2742324  66.5137733  12.9156158  50.5987602
  67.0319677  13.6517185  50.2734090  66.1592865  13.2220151  51.4334361
  58.0936670  17.7760839  38.7149007  57.4005915  17.8505194  38.0589043
  57.8488422  17.0121183  39.2370524  66.7650327   9.3356441  46.1188498
  67.0452081   8.6679630  46.7448925  67.5500934   9.5285536  45.6063162
  64.5683795  28.5115435  37.6813525  63.9957762  29.1305622  37.2283996
  65.1416589  29.0614796  38.2153446  70.6359185  17.7574075  49.8660073
  71.5876608  17.8572172  49.8872297  70.4662636  16.9652343  50.3758158
  68.6573565  14.8429658  50.0519474  68.0623497  15.1234671  49.3565963
  68.3723261  15.3323559  50.8236215  67.7881055  28.7952585  38.8122107
  68.7211728  28.7298146  39.0154982  67.7004268  29.6308852  38.3536639
  70.4169072  28.1118455  35.7726054  70.3382703  27.7778319  36.6661812
  71.2378739  28.6040223  35.7717527  73.1147263  20.9780194  48.9802373
  73.0823583  20.0396195  49.1662057  73.7247887  21.0564231  48.2468198
  64.9530594  19.8476247  35.0229577  65.8989699  19.7182455  35.0917995
  64.5744839  19.1090909  35.4999005  73.2641751  17.7691238  49.0260656
  72.7480800  16.9849694  48.8390585  74.1481700  17.4409954  49.1907176
  70.9252478  11.5132253  44.9856469  70.7277300  11.2047342  45.8699801
  71.5352184  12.2393892  45.1154399  78.9323813  22.0396201  48.1208410
  79.6627201  21.7781489  48.6816113  78.3230758  21.3024923  48.1610478
  77.0139110  20.1804064  48.7182861  76.2872274  20.0460029  48.1099353
  76.5986397  20.4880892  49.5239579  64.8369286  23.8993993  56.4830234
  65.7572296  24.0772592  56.6770281  64.8018869  22.9550039  56.3309933
  63.1373511  17.7726224  34.9584462  62.2304966  17.4759336  35.0347176
  63.4149492  17.4756042  34.0918748  54.0551451  19.0932587  45.4083509
  53.7354236  18.2397895  45.1157883  53.5084880  19.3081165  46.1641476
  57.8331359  21.8095028  49.1253015  58.0517369  22.7412136  49.1441049
  58.2457133  21.4503003  49.9107819  64.7535577  12.3163113  41.1128704
  63.9436305  11.9710198  41.4883950  65.4419994  12.0070657  41.7016315
  66.6826125  11.3941160  42.7353000  67.2357164  11.8136614  43.3943023
  66.9196211  10.4676908  42.7775956  62.7059224  17.3828234  58.5155764
  62.6055951  18.3322591  58.4467855  62.4880766  17.0546473  57.6431834
  61.9072296  14.6313159  35.0996441  62.7691460  14.9568057  35.3592259
  62.0922640  13.8444655  34.5869507  53.9239711  22.7135499  47.3776630
  53.2303183  22.2989451  46.8646585  54.6712702  22.7556035  46.7810049
  70.0604932  13.5041685  42.2431664  69.4803601  14.1626489  41.8609717
  69.7940865  12.6819030  41.8319082  68.5108498  12.9046743  44.4452985
  69.0108277  13.0163278  43.6367304  69.1544106  12.6007796  45.0853793
  62.5690494  20.8125373  57.3320826  62.0857576  21.6125733  57.5384715
  62.6551433  20.8233318  56.3788270  55.8376454  22.6453752  45.2542645
  55.8147142  22.7441440  44.3024528  56.1477090  23.4918903  45.5759811
  58.4963832  24.7029907  49.3689260  59.4507085  24.6713850  49.3019191
  58.2976355  24.2420531  50.1839485  59.0863214  23.2731023  51.9360057
  59.9056103  23.7675102  51.9594894  59.3600022  22.3562992  51.9077625
  68.8429810  15.6641776  41.2988013  67.9555665  15.9491426  41.0808207
  69.2583799  15.5035539  40.4515290  72.1944346  15.6888297  45.0142352
  72.9704736  16.1784749  45.2866969  71.4692480  16.1146351  45.4714221
  74.6316905  16.4015916  46.0716293  75.2261396  16.1611652  45.3609601
  74.7043489  15.6823047  46.6989829  56.8514061  30.2449527  46.3859457
  56.7168529  29.4849928  45.8197455  56.4346123  30.9690427  45.9188246
  67.9873024  25.4286450  35.3936033  68.6908874  25.6336453  36.0093688
  67.2635672  25.9963212  35.6585116  68.8170834  21.1796312  41.5138303
  68.7606035  21.6364863  40.6745935  69.3699176  20.4186996  41.3361146
  72.6275640  16.9686044  42.3388422  72.3712574  16.5682679  43.1696630
  72.0028508  17.6829838  42.2138562  76.9387978  19.7082117  44.8459714
  76.3787536  19.7775306  45.6191276  76.3331481  19.5323101  44.1259210
  60.0083186  31.1418844  46.5977900  59.8915571  32.0864276  46.4956590
  59.1875633  30.8392406  46.9863699  69.8959721  25.8668980  37.4434493
  70.7305325  25.4350178  37.2611968  69.7344064  25.6950993  38.3711387
  69.5505613  22.3701093  38.8090832  69.4954417  22.2045364  37.8679276
  68.9251668  23.0777126  38.9653022  54.3398128  17.6069157  52.6352254
  54.9856992  17.0968111  53.1239479  54.1315279  18.3437839  53.2095680
  66.8651520  24.6750005  58.1344395  67.7342680  24.8490657  57.7731030
  66.3858272  25.4944422  58.0120124  62.8601739  11.8709202  38.3876150
  62.8480408  12.8151042  38.5444421  63.7525160  11.6879347  38.0935612
  61.0337701  31.7947106  49.8133828  61.9364947  31.8270716  50.1300323
  60.8075071  30.8647557  49.8280164  62.7891303  30.5478092  46.4743907
  61.8386934  30.5479954  46.3608279  63.0923789  29.8010827  45.9579942
  66.6753858   8.4651979  42.6422087  65.9086254   7.9110465  42.7878770
  67.0864563   8.5373847  43.5036239  58.6795619  14.7536774  56.7327269
  59.5427081  14.3973579  56.9430593  58.1061030  14.4150669  57.4202673
  78.5243996  36.3838631  47.5389670  79.1622406  36.2645378  46.8353010
  78.4064839  37.3319475  47.5977622  75.3333702  36.3366059  47.4751194
  74.9952214  36.2207124  46.5871729  76.2023471  35.9357224  47.4552200
  71.1920518  38.1901535  43.4648085  70.6285383  38.0991472  42.6964373
  71.0772913  37.3701440  43.9450578  75.8153485  37.4900911  53.4337400
  75.8042126  37.0953709  52.5617903  75.9774125  36.7566983  54.0271171
  68.7384950  39.6852727  46.3032306  69.5306242  39.3443552  45.8878605
  68.9781600  39.7947702  47.2234459  76.7720077  41.8572503  38.7762550
  76.1208057  42.4426583  38.3896564  77.5664440  42.3878698  38.8357588
  70.6975704  38.9461640  39.1749684  71.4706580  38.3990627  39.0362560
  71.0501103  39.8105889  39.3864146  72.5360746  40.2738022  52.3816584
  72.2450612  41.1783653  52.2663250  73.1717731  40.3154550  53.0960653
  73.4616953  37.6514871  48.9717943  74.0580526  37.4270893  48.2574906
  73.5191925  36.9099616  49.5743391  73.0341982  35.1054306  36.8068134
  73.2867502  34.5835828  36.0451597  72.0966541  34.9420452  36.9094818
  78.0785265  34.1090085  44.6142878  78.8648354  33.6909508  44.2633295
  78.3423969  35.0136177  44.7824526  78.2495342  39.5462935  39.3131534
  77.6141175  39.6197561  40.0252439  77.9192748  40.1356534  38.6350614
  83.4793692  34.0465318  45.5175856  84.2118864  33.4764535  45.7513686
  82.7233047  33.6586918  45.9582362  72.7538270  37.0082412  39.0092509
  72.6374529  36.3327316  39.6773594  72.8640530  36.5214786  38.1924662
  75.0969811  36.4692559  42.7139199  74.7328019  35.9423180  43.4252120
  75.9536927  36.0791028  42.5405684  81.0019112  27.7586892  49.9770465
  80.6702437  28.6282303  49.7531680  80.4064725  27.4423176  50.6564495
  74.7375298  31.4982459  37.7100547  74.9049701  32.3662695  38.0771018
  74.5472467  31.6609741  36.7861836  77.4950632  39.9599438  49.3766377
  77.1951355  40.8624477  49.2682185  77.1501691  39.6931621  50.2287530
  70.9463113  36.4113235  45.4103082  70.0213610  36.2789449  45.6180774
  71.1947526  37.1907454  45.9073024  80.8947775  32.4781978  47.0563815
  79.9864653  32.4097387  46.7622576  80.8435371  32.9553923  47.8845640
  74.7164519  33.9540117  38.6947214  74.5964144  34.3997167  39.5332694
  74.0217108  34.3025434  38.1360752  68.3071924  36.0546508  46.2446871
  68.4364305  36.3080987  47.1586283  67.6269375  36.6474216  45.9251526
  72.4771411  46.7243758  42.3437345  72.3995441  47.6751583  42.4225826
  71.8733055  46.3789631  43.0012271  74.9688641  33.8971624  54.9998712
  74.1921975  34.4565544  54.9901577  75.6079204  34.3828407  55.5213582
  82.7609422  30.6798417  48.8341689  82.1183802  30.9730950  48.1881483
  82.2564350  30.5651337  49.6394885  80.4149585  34.4261590  39.5227548
  81.3267442  34.6588976  39.3475245  79.9059232  35.0098634  38.9602627
  73.2235013  36.7057077  54.5616679  73.9649698  37.2442121  54.2851503
  72.5171999  37.3323366  54.7188231  78.6990353  38.8486218  53.1588840
  79.1073709  38.4068628  52.4143473  77.9767615  38.2738845  53.4123033
  75.0521423  33.7858824  50.5322397  75.8982618  34.2098238  50.6757046
  74.9920061  33.1292449  51.2260961  79.0219168  39.4087408  46.9141129
  78.3928030  39.5733122  46.2117197  78.6344830  39.8229018  47.6852093
  82.9008400  40.3441846  44.2685493  82.2159438  40.7240747  43.7182526
  82.9852249  40.9537173  45.0017441  78.2020868  31.4463193  52.1903571
  77.9581800  32.2005253  51.6537847  78.4780799  31.8248540  53.0250818
  80.1559331  37.9901805  50.8680837  80.3676226  38.6333565  50.1915218
  80.1089079  37.1564122  50.4002767  77.7585560  30.6019626  47.7717409
  76.8970039  30.9000879  48.0634146  77.7847995  30.8190025  46.8398441
  74.5747130  39.1461816  44.1791214  75.0385475  39.4249519  43.3895837
  74.3103928  38.2445261  43.9964305  71.4671211  38.6933298  47.1170978
  72.0372568  39.1220566  46.4788462  72.0579323  38.4115882  47.8155163
  73.5116016  35.2684969  40.9880780  74.2140059  35.7206012  41.4554706
  73.1796644  34.6268787  41.6160673  71.9596377  33.8596725  55.3631989
  71.3295038  34.5413006  55.5967386  71.8532465  33.7479807  54.4185127
  67.2541350  33.5268521  46.2897913  66.4640404  33.7826050  45.8138024
  67.7452597  34.3416859  46.3949954  81.2705159  40.8673760  49.0403194
  82.0922603  40.4653948  48.7585876  81.2667562  40.7641995  49.9919310
  69.2056095  33.8913101  43.2481390  68.4087258  34.0031795  43.7664886
  68.9781687  34.2299753  42.3822280  75.0361763  40.4157804  51.1963904
  75.1006195  40.8778211  52.0322076  74.3272687  39.7855169  51.3246214
  65.5379053  33.7799012  48.7212904  65.7887091  34.6646022  48.9870480
  66.0738601  33.6003613  47.9487996  89.3611152  37.2112509  45.3888165
  88.6074861  36.6419907  45.2332170  89.4958693  37.1775173  46.3358800
  74.7509780  42.0825911  41.0642885  74.6155455  42.9277447  41.4927733
  75.2919593  42.2845189  40.3008819  71.2377120  28.1617491  57.7257240
  70.8444065  27.6083690  58.4004884  72.0543260  28.4728070  58.1163758
  68.2039178  39.6001349  41.6370810  68.7163698  40.3944600  41.7876375
  68.8561891  38.9027640  41.5704411  70.0134062  42.7167106  43.7193563
  70.1900691  43.6385070  43.5314547  70.8090896  42.4025525  44.1487943
  74.1545081  29.5775370  55.3177497  74.8954794  30.1782523  55.2381959
  74.3863004  28.8353008  54.7595539  69.2986419  34.7631737  53.5955726
  69.1839934  33.8616995  53.8962825  68.4430937  35.0095434  53.2440543
  76.3778257  42.7049478  55.1943227  75.9342111  41.9185856  54.8764131
  77.0395470  42.8928628  54.5287118  71.1365378  44.2345279  49.7203905
  71.6872803  44.1062343  48.9480899  70.2976854  44.5340168  49.3698798
  78.4759495  42.9852278  53.2224628  78.4577970  43.8061159  52.7304897
  79.3979415  42.8606353  53.4474769  74.9332549  40.4996407  54.0648137
  75.4660886  39.7384695  53.8347445  74.4046630  40.2070059  54.8072291
  78.1002244  25.6056473  49.5941778  77.7566513  26.4958115  49.5180889
  78.4681206  25.4158131  48.7311363  66.1688094  37.9290004  42.4130380
  67.0063316  38.3387012  42.1964088  66.3466362  36.9889446  42.3830574
  78.0652527  35.5965084  38.1014213  77.5499150  36.3669689  38.3402601
  77.7929835  34.9230220  38.7247275  75.6499638  30.4414785  43.1599452
  74.7941234  30.0521635  42.9805090  76.0626589  30.5206746  42.2999237
  77.1798784  27.9761128  47.5591012  76.6763580  27.9391263  46.7458817
  77.4729391  28.8853871  47.6187668  73.4241670  28.0599858  46.5657193
  74.2894667  27.8642667  46.2063083  73.4919179  27.8310210  47.4926550
  83.0386801  38.3497439  40.0367387  82.2616243  38.0108598  39.5922549
  83.7178282  38.3550062  39.3622352  77.8538830  33.4692176  39.9273995
  77.5488965  33.7838325  40.7784138  78.8069272  33.5473596  39.9701328
  76.2985262  39.6282400  41.5766949  75.7706623  38.8935159  41.2640186
  75.7972764  40.4057076  41.3306917  81.2778108  37.8231420  46.6933995
  80.6201782  38.5130682  46.7814123  82.0818507  38.2127852  47.0367981
  71.0303989  30.2902066  43.9373560  71.6047741  30.0677247  43.2046753
  71.6174972  30.3590760  44.6902161  80.0883566  36.1775793  44.7437937
  80.6015448  36.8105785  45.2459646  80.7384790  35.5776988  44.3781297
  71.3573576  32.3206527  37.9569445  70.5210889  32.6581213  38.2778720
  71.2178346  32.1855507  37.0196582  73.3326657  27.1643315  42.6648629
  72.6791069  26.8492332  42.0405244  73.2907131  26.5419055  43.3908452
  74.4437862  37.4462610  34.5801922  73.5364924  37.2151863  34.7793071
  74.9408894  36.6500229  34.7675903  77.3505941  46.1560117  37.4998608
  76.6767639  46.4591814  38.1083566  77.7371763  46.9589197  37.1504065
  76.5664397  33.6525248  46.9896277  75.6486959  33.8740195  46.8317965
  76.9824541  33.7271559  46.1307984  77.3499445  35.0516664  42.1198957
  78.0971264  35.5638061  41.8106079  77.6191035  34.7300717  42.9803351
  75.6226095  37.5475205  39.1025912  74.7137314  37.2634238  39.1998381
  75.6521179  37.9674283  38.2429219  80.8545363  41.1581794  42.8717079
  80.4007690  40.3172704  42.9282270  80.2239329  41.7943193  43.2091859
  79.7978282  32.0873780  44.1017747  79.0601039  31.5751167  44.4327989
  80.0505056  31.6474162  43.2901024  79.2978302  42.9958291  43.8066897
  79.5901276  43.5563348  43.0879263  79.8076922  43.2886852  44.5620056
  79.8989910  24.8650032  44.6959516  80.2048786  24.0047396  44.4085431
  80.6242514  25.4567652  44.4958510  66.1914266  35.2680719  43.0841114
  65.9938665  34.6750080  42.3592180  65.6360930  34.9632929  43.8017053
  74.1710989  35.1603825  45.2035707  74.2259599  34.2077662  45.1278184
  73.3602191  35.3163264  45.6877005  75.3202183  39.0883948  36.4413990
  74.8821613  38.3719807  35.9819628  76.0612624  39.3160063  35.8799082
  72.1103349  33.7780885  42.9626086  71.2971215  34.0775056  43.3691278
  72.6062343  33.3836574  43.6800568  74.2611927  43.7738642  44.8960351
  74.2188106  43.9999488  43.9668883  75.1774626  43.5402017  45.0446152
  77.7077561  34.2422710  51.7940980  78.0626949  34.4694183  52.6535446
  78.3549692  34.5741086  51.1718235  83.4375298  37.3641145  42.4990309
  83.2993196  37.5542741  41.5711498  83.0811517  38.1260528  42.9558360
  71.6017424  31.3499241  48.5787321  72.2416803  31.2088000  47.8810284
  70.7694954  31.0633754  48.2025923  83.4644677  39.4317672  47.5101580
  83.8981184  39.3392962  48.3584634  84.1776258  39.4075173  46.8721596
  72.3777728  40.6501671  44.6922313  73.1718326  40.1551991  44.4904888
  71.6669420  40.1219534  44.3290019  77.1972572  43.0319767  49.0434681
  77.2509595  43.6010703  49.8112397  76.3287354  43.2021652  48.6788718
  68.6860491  34.7944753  40.7682066  67.7558079  34.7329208  40.9852028
  68.7817963  34.2720706  39.9718707  68.6046040  31.3199566  43.3560308
  68.8652858  32.2344899  43.2469468  69.4263213  30.8524008  43.5056920
  70.0770966  32.7337323  50.5259132  70.7494019  32.5254685  49.8771781
  69.2500752  32.5359409  50.0864364  84.3260227  39.4741373  50.0434466
  84.5196117  40.3787184  50.2893741  84.2260845  39.0148792  50.8773051
  75.9796538  29.3599264  52.5424793  75.3324453  30.0589213  52.4489269
  76.7497553  29.7935408  52.9101041  79.3875336  39.6248116  55.6175346
  79.2360842  39.3958668  54.7005430  79.3780015  40.5818717  55.6306691
  76.1560672  37.1980029  50.6021613  77.0852732  37.3491188  50.4290580
  75.7351702  37.2864049  49.7470259  74.9549004  41.2230693  48.3720150
  74.8160090  40.8549477  49.2446089  74.1663600  41.7378332  48.2004108
  75.5497156  46.3239790  39.7145687  75.7248911  45.8527833  40.5291310
  74.8629944  46.9505556  39.9426948  76.5054219  40.6012296  45.7608988
  76.1704052  40.5613066  46.6566638  76.0058165  39.9357012  45.2879398
  70.4798463  36.0079926  51.2861569  70.3418261  35.2760165  51.8873108
  71.3903386  35.9188826  51.0045757  79.4413411  37.9468330  36.0346048
  78.8242581  37.2215158  35.9379101  78.9729899  38.7077690  35.6913122
  73.1080764  35.7199885  50.7745249  73.8180382  35.0793077  50.7331867
  73.0650072  35.9712780  51.6971430  81.0967542  42.6567238  53.6951828
  81.0380088  41.9726459  53.0282411  81.4987061  43.3986228  53.2432454
  71.8209698  32.7065103  52.5940888  71.2847055  32.2555841  53.2462485
  71.2326406  32.8411012  51.8511353  71.2311957  32.1653754  35.1567352
  70.3541423  32.0442555  34.7929599  71.7069710  31.3739833  34.9046241
  81.0984950  40.6206822  51.9265808  80.2111728  40.2832744  52.0492207
  81.6683501  39.8889854  52.1634573  62.7514097  36.9530914  45.2508859
  63.4385137  36.6392644  44.6629875  62.5962225  37.8572279  44.9776111
  67.5548819  31.8421111  49.6793883  67.4707008  31.2346780  48.9444293
  66.7331525  32.3330129  49.6803379  74.6286103  45.2808275  48.8927051
  74.5556274  46.0863246  49.4046356  74.1863496  45.4800241  48.0675072
  74.4175883  44.5180045  42.4029873  73.6343404  45.0601725  42.4968097
  75.1168628  45.0354024  42.8024114  77.7272533  30.3274674  45.0464078
  78.2241232  29.5744637  44.7265148  76.9559514  30.3638991  44.4807287
  85.5802290  36.0315040  46.6882370  85.5692166  36.9139755  46.3176303
  84.7119670  35.6786591  46.4936907  77.0884786  45.1795109  51.0485210
  77.8012759  45.8142574  50.9761111  76.5974815  45.2758975  50.2325212
  78.8102313  39.0846361  42.6202501  77.8758592  39.2047824  42.4507206
  78.9878982  38.1818828  42.3562511  74.3107501  32.4692057  44.7735763
  73.9405289  31.9163098  45.4616668  74.8066594  31.8650191  44.2210763
  82.1974865  34.9263681  43.1552536  82.6635317  35.7591672  43.0812838
  82.6482365  34.4608662  43.8597794  72.1396700  42.9289552  51.8690781
  72.8406160  43.5626035  52.0220175  71.6691815  43.2704284  51.1086420
  80.2651096  41.2707502  40.1538688  80.5410940  41.1564097  41.0632562
  79.3955595  40.8724987  40.1150861  80.1691527  27.2944268  47.1943437
  79.2554607  27.5248495  47.3625644  80.5984629  27.3782712  48.0457469
  79.9397986  35.4834160  49.6943331  79.2869436  35.7310067  49.0395784
  80.3178366  34.6698298  49.3605808  76.9005160  45.5193853  43.7971501
  77.0827554  44.7015509  44.2599254  77.7238146  45.7361545  43.3596391
  77.2347325  44.4462038  41.0586550  77.7635092  43.9354493  40.4456712
  77.4975545  44.1304568  41.9232083  75.9885559  36.2253971  56.1809368
  75.3126196  36.1248100  56.8511743  76.8113193  36.0693184  56.6445365
  70.5903073  45.4977155  43.8184326  69.9213449  45.9823282  43.3348366
  70.4515943  45.7446375  44.7327704  62.3282073  35.0331507  47.5226326
  62.3666172  34.4995098  48.3163444  61.8222366  34.5066713  46.9037304
  74.7308342  47.5320898  50.4166984  75.2826650  47.6952520  51.1816069
  75.0714535  48.1225336  49.7447009  69.7072835  29.8796048  51.0188869
  69.7714162  30.7410879  50.6066266  69.6439955  29.2670050  50.2861227
  69.1825108  31.9519181  54.6661903  69.8097146  31.5696258  55.2799427
  68.3253026  31.7333382  55.0317595  79.5819216  42.3582156  56.2715638
  80.1259120  42.9712114  55.7770593  79.0006061  42.9161734  56.7882651
  65.9590650  33.7595610  40.5980258  66.2544091  32.8506288  40.5447311
  65.0578686  33.7383349  40.2761260  77.8676729  45.4802874  47.4030666
  77.7427869  44.6792614  46.8941612  78.5255820  45.9749067  46.9144636
  69.4884897  31.8351606  46.5807806  68.7671483  32.4487574  46.4415280
  70.2778153  32.3709371  46.5024452  79.9311638  43.2811894  49.0310216
  78.9841973  43.1617245  48.9588543  80.2794411  42.3934392  49.1136478
  72.2911211  29.1706033  52.8548458  72.8145613  29.4168329  53.6174767
  72.0723544  30.0026068  52.4351595  67.6878492  31.4409707  40.7219583
  67.3591198  30.5607086  40.5394689  68.0417863  31.3857376  41.6095972
  76.9358071  43.0764610  45.2314568  76.7883033  42.1481317  45.4122139
  77.7611564  43.0984701  44.7471644  70.8020315  31.7282677  41.0895061
  71.1416388  32.2568598  40.3673669  71.2492436  32.0663083  41.8653627
  80.5392193  43.8993169  46.3179441  81.4638740  43.6936030  46.1803892
  80.3707496  43.6509570  47.2268783  73.4963756  30.1119728  50.5398129
  73.1560576  29.3127541  50.9418809  72.7902762  30.4121439  49.9674962
  74.1480228  27.1969040  48.9925452  74.9706297  26.7229518  48.8704342
  74.3918291  27.9759524  49.4924138  72.7888462  30.2257299  39.2888353
  73.5096825  30.6038551  38.7852070  72.1653766  30.9446175  39.3923331
  76.9319585  30.9302448  40.2246686  77.1483200  31.8127086  39.9235514
  76.4513652  30.5388661  39.4952328  71.6718807  33.8888161  46.8017430
  71.5263387  34.2028464  47.6941712  71.1944010  34.5073061  46.2488329
  73.5315189  30.8790709  46.8498320  73.5176758  29.9831802  46.5130618
  74.2487618  30.8861373  47.4836606  75.3841320  31.3128049  48.8951447
  75.1259098  32.2345120  48.8935778  74.8526361  30.9158484  49.5851911
  80.3287509  44.4178836  41.6741533  80.5024386  43.8525259  40.9215385
  80.8216400  45.2179731  41.4921023  66.1464469  36.4293505  49.7405091
  65.6017937  37.2053313  49.8725366  67.0243819  36.7764310  49.5824213
  72.9352085  29.7605089  42.1185890  73.0567997  28.8321735  42.3176777
  72.6454128  29.7743775  41.2064205  75.8043276  27.4460000  45.2552610
  75.8264973  27.5099333  44.3004589  76.2211335  26.6064508  45.4493116
  86.1826900  37.1815259  43.2931832  86.6258046  36.4322584  42.8950956
  85.3053410  37.1725395  42.9105564  81.3162681  43.7345601  38.7738431
  82.0113586  44.3552293  38.9925746  81.6585832  42.8840952  39.0490809
  66.9330491  35.5563402  52.6335248  66.1912227  35.7046037  53.2199879
  66.6123235  35.8171667  51.7701998  83.2154105  41.1845306  40.3025762
  83.7405429  41.5232579  39.5775082  83.1276457  40.2492321  40.1188896
  74.8994765  47.2517289  44.6621015  74.4599756  46.7593668  45.3553872
  75.6502882  46.7090257  44.4213090  72.3468637  42.7955298  46.7343317
  71.7248647  42.1326004  46.4345544  73.0173504  42.8216430  46.0516964
  72.4193165  31.2737087  56.3275823  72.4681320  32.1499209  55.9453592
  72.9615679  30.7314480  55.7547466  82.9048011  41.8178210  55.6076960
  82.1143554  41.8002349  55.0681459  82.6681365  42.3566503  56.3625996
  83.0245886  38.6670676  52.9209688  83.0743891  38.5020684  53.8625211
  82.9159809  37.7997935  52.5307569  71.9082144  41.3459222  40.2101777
  72.0570265  42.0294686  39.5568450  72.7148588  41.3264312  40.7251233
  80.3149648  34.6501604  54.2368995  81.2159511  34.5108069  53.9452993
  80.3897623  34.8156059  55.1767172  74.6492453  32.0268459  53.0822181
  73.7795763  32.3202025  52.8104770  74.8851934  32.6108904  53.8029445
  84.5264082  41.0867618  53.1651710  84.2348891  41.4497598  54.0015171
  83.9136214  40.3734626  52.9865042  85.7259765  38.6520497  45.6854280
  86.5606656  39.0910301  45.8491840  85.8618894  38.1759151  44.8662526
  82.7751271  36.2100232  51.6331768  83.2505392  36.4027879  50.8250619
  81.8516836  36.2659418  51.3875151  69.6634777  37.3724399  41.2162846
  69.4180819  36.4686729  41.4143056  69.8330692  37.3741550  40.2742324
  77.3531487  28.2448076  50.5987602  77.8713431  28.9809103  50.2734090
  76.9986620  28.5512069  51.4334361  68.9330425  33.1052757  38.7149007
  68.2399670  33.1797112  38.0589043  68.6882177  32.3413101  39.2370524
  77.6044081  24.6648358  46.1188498  77.8845835  23.9971547  46.7448925
  78.3894688  24.8577454  45.6063162  75.4077550  43.8407352  37.6813525
  74.8351517  44.4597539  37.2283996  75.9810344  44.3906714  38.2153446
  81.4752940  33.0865992  49.8660073  82.4270363  33.1864090  49.8872297
  81.3056390  32.2944261  50.3758158  79.4967319  30.1721576  50.0519474
  78.9017251  30.4526588  49.3565963  79.2117016  30.6615477  50.8236215
  78.6274810  44.1244502  38.8122107  79.5605483  44.0590064  39.0154982
  78.5398022  44.9600769  38.3536639  81.2562826  43.4410373  35.7726054
  81.1776458  43.1070236  36.6661812  82.0772493  43.9332141  35.7717527
  83.9541017  36.3072112  48.9802373  83.9217338  35.3688113  49.1662057
  84.5641641  36.3856149  48.2468198  75.7924348  35.1768165  35.0229577
  76.7383453  35.0474373  35.0917995  75.4138593  34.4382827  35.4999005
  84.1035506  33.0983155  49.0260656  83.5874555  32.3141612  48.8390585
  84.9875454  32.7701872  49.1907176  81.7646233  26.8424171  44.9856469
  81.5671054  26.5339259  45.8699801  82.3745938  27.5685810  45.1154399
  89.7717567  37.3688119  48.1208410  90.5020956  37.1073407  48.6816113
  89.1624513  36.6316841  48.1610478  87.8532864  35.5095981  48.7182861
  87.1266028  35.3751946  48.1099353  87.4380151  35.8172810  49.5239579
  75.6763041  39.2285911  56.4830234  76.5966050  39.4064510  56.6770281
  75.6412624  38.2841957  56.3309933  73.9767265  33.1018141  34.9584462
  73.0698721  32.8051254  35.0347176  74.2543246  32.8047959  34.0918748
  64.8945206  34.4224505  45.4083509  64.5747990  33.5689813  45.1157883
  64.3478634  34.6373083  46.1641476  68.6725113  37.1386946  49.1253015
  68.8911123  38.0704054  49.1441049  69.0850887  36.7794920  49.9107819
  75.5929331  27.6455031  41.1128704  74.7830060  27.3002116  41.4883950
  76.2813748  27.3362575  41.7016315  77.5219879  26.7233078  42.7353000
  78.0750918  27.1428531  43.3943023  77.7589966  25.7968826  42.7775956
  73.5452979  32.7120152  58.5155764  73.4449706  33.6614509  58.4467855
  73.3274521  32.3838390  57.6431834  72.7466050  29.9605077  35.0996441
  73.6085214  30.2859975  35.3592259  72.9316394  29.1736573  34.5869507
  64.7633466  38.0427416  47.3776630  64.0696937  37.6281369  46.8646585
  65.5106457  38.0847953  46.7810049  80.8998687  28.8333603  42.2431664
  80.3197356  29.4918407  41.8609717  80.6334619  28.0110948  41.8319082
  79.3502253  28.2338661  44.4452985  79.8502031  28.3455195  43.6367304
  79.9937861  27.9299714  45.0853793  73.4084249  36.1417290  57.3320826
  72.9251330  36.9417651  57.5384715  73.4945188  36.1525235  56.3788270
  66.6770208  37.9745670  45.2542645  66.6540897  38.0733357  44.3024528
  66.9870845  38.8210821  45.5759811  69.3357586  40.0321825  49.3689260
  70.2900840  40.0005767  49.3019191  69.1370110  39.5712449  50.1839485
  69.9256968  38.6022941  51.9360057  70.7449857  39.0967020  51.9594894
  70.1993776  37.6854909  51.9077625  79.6823565  30.9933693  41.2988013
  78.7949420  31.2783344  41.0808207  80.0977554  30.8327457  40.4515290
  83.0338101  31.0180214  45.0142352  83.8098491  31.5076667  45.2866969
  82.3086235  31.4438269  45.4714221  85.4710659  31.7307834  46.0716293
  86.0655150  31.4903570  45.3609601  85.5437243  31.0114964  46.6989829
  78.8266778  40.7578368  35.3936033  79.5302628  40.9628371  36.0093688
  78.1029427  41.3255130  35.6585116  79.6564588  36.5088229  41.5138303
  79.5999790  36.9656781  40.6745935  80.2092931  35.7478914  41.3361146
  83.4669394  32.2977961  42.3388422  83.2106328  31.8974597  43.1696630
  82.8422262  33.0121755  42.2138562  87.7781732  35.0374035  44.8459714
  87.2181290  35.1067224  45.6191276  87.1725235  34.8615019  44.1259210
  70.8476941  46.4710762  46.5977900  70.7309325  47.4156194  46.4956590
  70.0269387  46.1684323  46.9863699  80.7353475  41.1960897  37.4434493
  81.5699079  40.7642096  37.2611968  80.5737818  41.0242911  38.3711387
  80.3899368  37.6993011  38.8090832  80.3348171  37.5337282  37.8679276
  79.7645423  38.4069044  38.9653022  65.1791883  32.9361075  52.6352254
  65.8250746  32.4260029  53.1239479  64.9709034  33.6729757  53.2095680
  77.7045275  40.0041923  58.1344395  78.5736434  40.1782575  57.7731030
  77.2252026  40.8236339  58.0120124  73.6995493  27.2001120  38.3876150
  73.6874163  28.1442960  38.5444421  74.5918915  27.0171265  38.0935612
  71.8731455  47.1239024  49.8133828  72.7758702  47.1562634  50.1300323
  71.6468825  46.1939474  49.8280164  73.6285057  45.8770010  46.4743907
  72.6780688  45.8771872  46.3608279  73.9317543  45.1302745  45.9579942
  77.5147613  23.7943896  42.6422087  76.7480008  23.2402383  42.7878770
  77.9258318  23.8665765  43.5036239  69.5189374  30.0828692  56.7327269
  70.3820835  29.7265497  56.9430593  68.9454784  29.7442587  57.4202673
  89.3637751  51.7130548  47.5389670  90.0016161  51.5937296  46.8353010
  89.2458593  52.6611392  47.5977622  86.1727457  51.6657977  47.4751194
  85.8345968  51.5499041  46.5871729  87.0417225  51.2649142  47.4552200
  82.0314273  53.5193453  43.4648085  81.4679138  53.4283390  42.6964373
  81.9166668  52.6993357  43.9450578  86.6547240  52.8192828  53.4337400
  86.6435881  52.4245627  52.5617903  86.8167879  52.0858901  54.0271171
  79.5778704  55.0144645  46.3032306  80.3699996  54.6735469  45.8878605
  79.8175355  55.1239620  47.2234459  87.6113831  57.1864421  38.7762550
  86.9601811  57.7718501  38.3896564  88.4058194  57.7170616  38.8357588
  81.5369458  54.2753558  39.1749684  82.3100334  53.7282545  39.0362560
  81.8894857  55.1397807  39.3864146  83.3754501  55.6029940  52.3816584
  83.0844367  56.5075571  52.2663250  84.0111485  55.6446468  53.0960653
  84.3010708  52.9806789  48.9717943  84.8974280  52.7562811  48.2574906
  84.3585679  52.2391534  49.5743391  83.8735736  50.4346224  36.8068134
  84.1261257  49.9127745  36.0451597  82.9360295  50.2712369  36.9094818
  88.9179019  49.4382002  44.6142878  89.7042108  49.0201425  44.2633295
  89.1817723  50.3428094  44.7824526  89.0889096  54.8754853  39.3131534
  88.4534929  54.9489479  40.0252439  88.7586503  55.4648451  38.6350614
  94.3187446  49.3757236  45.5175856  95.0512618  48.8056452  45.7513686
  93.5626802  48.9878836  45.9582362  83.5932025  52.3374330  39.0092509
  83.4768283  51.6619233  39.6773594  83.7034285  51.8506704  38.1924662
  85.9363566  51.7984477  42.7139199  85.5721773  51.2715098  43.4252120
  86.7930682  51.4082946  42.5405684  91.8412867  43.0878810  49.9770465
  91.5096191  43.9574221  49.7531680  91.2458480  42.7715094  50.6564495
  85.5769053  46.8274377  37.7100547  85.7443455  47.6954613  38.0771018
  85.3866222  46.9901658  36.7861836  88.3344386  55.2891356  49.3766377
  88.0345109  56.1916394  49.2682185  87.9895446  55.0223539  50.2287530
  81.7856868  51.7405152  45.4103082  80.8607364  51.6081367  45.6180774
  82.0341281  52.5199372  45.9073024  91.7341530  47.8073896  47.0563815
  90.8258407  47.7389304  46.7622576  91.6829126  48.2845841  47.8845640
  85.5558274  49.2832034  38.6947214  85.4357899  49.7289085  39.5332694
  84.8610862  49.6317352  38.1360752  79.1465679  51.3838426  46.2446871
  79.2758060  51.6372905  47.1586283  78.4663130  51.9766134  45.9251526
  83.3165166  62.0535676  42.3437345  83.2389196  63.0043501  42.4225826
  82.7126809  61.7081548  43.0012271  85.8082396  49.2263541  54.9998712
  85.0315730  49.7857462  54.9901577  86.4472959  49.7120324  55.5213582
  93.6003176  46.0090334  48.8341689  92.9577556  46.3022867  48.1881483
  93.0958105  45.8943255  49.6394885  91.2543340  49.7553507  39.5227548
  92.1661196  49.9880894  39.3475245  90.7452987  50.3390552  38.9602627
  84.0628768  52.0348995  54.5616679  84.8043452  52.5734039  54.2851503
  83.3565753  52.6615283  54.7188231  89.5384108  54.1778135  53.1588840
  89.9467464  53.7360546  52.4143473  88.8161369  53.6030763  53.4123033
  85.8915178  49.1150742  50.5322397  86.7376373  49.5390156  50.6757046
  85.8313815  48.4584366  51.2260961  89.8612922  54.7379326  46.9141129
  89.2321785  54.9025040  46.2117197  89.4738584  55.1520935  47.6852093
  93.7402154  55.6733764  44.2685493  93.0553192  56.0532665  43.7182526
  93.8246003  56.2829090  45.0017441  89.0414623  46.7755110  52.1903571
  88.7975555  47.5297171  51.6537847  89.3174553  47.1540458  53.0250818
  90.9953086  53.3193723  50.8680837  91.2069981  53.9625483  50.1915218
  90.9482834  52.4856039  50.4002767  88.5979315  45.9311543  47.7717409
  87.7363794  46.2292797  48.0634146  88.6241749  46.1481942  46.8398441
  85.4140884  54.4753734  44.1791214  85.8779230  54.7541437  43.3895837
  85.1497682  53.5737178  43.9964305  82.3064965  54.0225215  47.1170978
  82.8766322  54.4512484  46.4788462  82.8973077  53.7407800  47.8155163
  84.3509770  50.5976886  40.9880780  85.0533813  51.0497930  41.4554706
  84.0190399  49.9560705  41.6160673  82.7990132  49.1888643  55.3631989
  82.1688792  49.8704924  55.5967386  82.6926220  49.0771725  54.4185127
  78.0935104  48.8560439  46.2897913  77.3034158  49.1117967  45.8138024
  78.5846351  49.6708777  46.3949954  92.1098914  56.1965678  49.0403194
  92.9316357  55.7945865  48.7585876  92.1061317  56.0933912  49.9919310
  80.0449849  49.2205018  43.2481390  79.2481013  49.3323712  43.7664886
  79.8175442  49.5591670  42.3822280  85.8755517  55.7449721  51.1963904
  85.9399950  56.2070129  52.0322076  85.1666441  55.1147086  51.3246214
  76.3772807  49.1090929  48.7212904  76.6280846  49.9937939  48.9870480
  76.9132355  48.9295531  47.9487996 100.2004907  52.5404427  45.3888165
  99.4468615  51.9711825  45.2332170 100.3352448  52.5067091  46.3358800
  85.5903535  57.4117829  41.0642885  85.4549210  58.2569365  41.4927733
  86.1313347  57.6137107  40.3008819  82.0770874  43.4909409  57.7257240
  81.6837820  42.9375607  58.4004884  82.8937015  43.8019987  58.1163758
  79.0432932  54.9293267  41.6370810  79.5557453  55.7236517  41.7876375
  79.6955645  54.2319557  41.5704411  80.8527817  58.0459023  43.7193563
  81.0294445  58.9676988  43.5314547  81.6484650  57.7317442  44.1487943
  84.9938835  44.9067288  55.3177497  85.7348549  45.5074441  55.2381959
  85.2256758  44.1644926  54.7595539  80.1380173  50.0923655  53.5955726
  80.0233689  49.1908912  53.8962825  79.2824691  50.3387352  53.2440543
  87.2172011  58.0341395  55.1943227  86.7735865  57.2477774  54.8764131
  87.8789225  58.2220546  54.5287118  81.9759132  59.5637197  49.7203905
  82.5266557  59.4354260  48.9480899  81.1370608  59.8632086  49.3698798
  89.3153249  58.3144195  53.2224628  89.2971725  59.1353076  52.7304897
  90.2373169  58.1898271  53.4474769  85.7726303  55.8288325  54.0648137
  86.3054640  55.0676613  53.8347445  85.2440384  55.5361977  54.8072291
  88.9395998  40.9348391  49.5941778  88.5960268  41.8250032  49.5180889
  89.3074961  40.7450048  48.7311363  77.0081849  53.2581921  42.4130380
  77.8457071  53.6678930  42.1964088  77.1860117  52.3181363  42.3830574
  88.9046281  50.9257002  38.1014213  88.3892905  51.6961607  38.3402601
  88.6323590  50.2522138  38.7247275  86.4893392  45.7706703  43.1599452
  85.6334988  45.3813553  42.9805090  86.9020344  45.8498663  42.2999237
  88.0192539  43.3053046  47.5591012  87.5157334  43.2683181  46.7458817
  88.3123146  44.2145789  47.6187668  84.2635425  43.3891776  46.5657193
  85.1288421  43.1934584  46.2063083  84.3312934  43.1602127  47.4926550
  93.8780555  53.6789357  40.0367387  93.1009998  53.3400516  39.5922549
  94.5572036  53.6841980  39.3622352  88.6932584  48.7984094  39.9273995
  88.3882720  49.1130243  40.7784138  89.6463026  48.8765514  39.9701328
  87.1379016  54.9574317  41.5766949  86.6100378  54.2227077  41.2640186
  86.6366519  55.7348994  41.3306917  92.1171862  53.1523338  46.6933995
  91.4595537  53.8422599  46.7814123  92.9212261  53.5419770  47.0367981
  81.8697744  45.6193984  43.9373560  82.4441496  45.3969165  43.2046753
  82.4568726  45.6882678  44.6902161  90.9277321  51.5067710  44.7437937
  91.4409203  52.1397702  45.2459646  91.5778545  50.9068906  44.3781297
  82.1967331  47.6498445  37.9569445  81.3604643  47.9873131  38.2778720
  82.0572100  47.5147424  37.0196582  84.1720411  42.4935232  42.6648629
  83.5184824  42.1784250  42.0405244  84.1300886  41.8710973  43.3908452
  85.2831616  52.7754528  34.5801922  84.3758678  52.5443781  34.7793071
  85.7802648  51.9792147  34.7675903  88.1899695  61.4852035  37.4998608
  87.5161394  61.7883732  38.1083566  88.5765517  62.2881115  37.1504065
  87.4058152  48.9817166  46.9896277  86.4880713  49.2032113  46.8317965
  87.8218295  49.0563477  46.1307984  88.1893200  50.3808582  42.1198957
  88.9365018  50.8929979  41.8106079  88.4584789  50.0592634  42.9803351
  86.4619850  52.8767122  39.1025912  85.5531069  52.5926155  39.1998381
  86.4914934  53.2966201  38.2429219  91.6939117  56.4873712  42.8717079
  91.2401444  55.6464622  42.9282270  91.0633084  57.1235110  43.2091859
  90.6372037  47.4165698  44.1017747  89.8994793  46.9043084  44.4327989
  90.8898810  46.9766080  43.2901024  90.1372056  58.3250209  43.8066897
  90.4295031  58.8855266  43.0879263  90.6470677  58.6178770  44.5620056
  90.7383664  40.1941950  44.6959516  91.0442541  39.3339313  44.4085431
  91.4636269  40.7859570  44.4958510  77.0308020  50.5972637  43.0841114
  76.8332420  50.0041997  42.3592180  76.4754684  50.2924847  43.8017053
  85.0104744  50.4895743  45.2035707  85.0653354  49.5369579  45.1278184
  84.1995946  50.6455182  45.6877005  86.1595938  54.4175866  36.4413990
  85.7215367  53.7011725  35.9819628  86.9006378  54.6451981  35.8799082
  82.9497104  49.1072803  42.9626086  82.1364969  49.4066973  43.3691278
  83.4456098  48.7128492  43.6800568  85.1005682  59.1030560  44.8960351
  85.0581860  59.3291406  43.9668883  86.0168380  58.8693934  45.0446152
  88.5471315  49.5714627  51.7940980  88.9020703  49.7986100  52.6535446
  89.1943447  49.9033004  51.1718235  94.2769052  52.6933063  42.4990309
  94.1386951  52.8834659  41.5711498  93.9205271  53.4552446  42.9558360
  82.4411178  46.6791158  48.5787321  83.0810558  46.5379917  47.8810284
  81.6088709  46.3925672  48.2025923  94.3038432  54.7609590  47.5101580
  94.7374939  54.6684879  48.3584634  95.0170013  54.7367091  46.8721596
  83.2171482  55.9793589  44.6922313  84.0112081  55.4843909  44.4904888
  82.5063175  55.4511452  44.3290019  88.0366327  58.3611684  49.0434681
  88.0903349  58.9302621  49.8112397  87.1681108  58.5313569  48.6788718
  79.5254246  50.1236670  40.7682066  78.5951834  50.0621126  40.9852028
  79.6211718  49.6012623  39.9718707  79.4439795  46.6491483  43.3560308
  79.7046612  47.5636817  43.2469468  80.2656967  46.1815926  43.5056920
  80.9164720  48.0629240  50.5259132  81.5887774  47.8546603  49.8771781
  80.0894507  47.8651326  50.0864364  95.1653981  54.8033291  50.0434466
  95.3589872  55.7079101  50.2893741  95.0654600  54.3440710  50.8773051
  86.8190292  44.6891181  52.5424793  86.1718207  45.3881131  52.4489269
  87.5891308  45.1227325  52.9101041  90.2269090  54.9540034  55.6175346
  90.0754597  54.7250585  54.7005430  90.2173770  55.9110635  55.6306691
  86.9954427  52.5271946  50.6021613  87.9246487  52.6783106  50.4290580
  86.5745457  52.6155967  49.7470259  85.7942758  56.5522611  48.3720150
  85.6553844  56.1841395  49.2446089  85.0057355  57.0670250  48.2004108
  86.3890910  61.6531707  39.7145687  86.5642666  61.1819750  40.5291310
  85.7023698  62.2797473  39.9426948  87.3447973  55.9304213  45.7608988
  87.0097806  55.8904983  46.6566638  86.8451919  55.2648929  45.2879398
  81.3192217  51.3371843  51.2861569  81.1812015  50.6052082  51.8873108
  82.2297141  51.2480744  51.0045757  90.2807165  53.2760248  36.0346048
  89.6636336  52.5507076  35.9379101  89.8123654  54.0369608  35.6913122
  83.9474518  51.0491803  50.7745249  84.6574137  50.4084995  50.7331867
  83.9043826  51.3004698  51.6971430  91.9361297  57.9859156  53.6951828
  91.8773843  57.3018376  53.0282411  92.3380815  58.7278146  53.2432454
  82.6603452  48.0357021  52.5940888  82.1240809  47.5847759  53.2462485
  82.0720161  48.1702929  51.8511353  82.0705711  47.4945672  35.1567352
  81.1935177  47.3734473  34.7929599  82.5463464  46.7031750  34.9046241
  91.9378704  55.9498740  51.9265808  91.0505483  55.6124662  52.0492207
  92.5077255  55.2181771  52.1634573  73.5907851  52.2822832  45.2508859
  74.2778891  51.9684562  44.6629875  73.4355980  53.1864196  44.9776111
  78.3942573  47.1713028  49.6793883  78.3100762  46.5638698  48.9444293
  77.5725280  47.6622047  49.6803379  85.4679857  60.6100192  48.8927051
  85.3950029  61.4155164  49.4046356  85.0257251  60.8092158  48.0675072
  85.2569637  59.8471962  42.4029873  84.4737159  60.3893643  42.4968097
  85.9562382  60.3645942  42.8024114  88.5666287  45.6566592  45.0464078
  89.0634987  44.9036554  44.7265148  87.7953269  45.6930909  44.4807287
  96.4196045  51.3606957  46.6882370  96.4085921  52.2431673  46.3176303
  95.5513424  51.0078508  46.4936907  87.9278541  60.5087026  51.0485210
  88.6406513  61.1434491  50.9761111  87.4368570  60.6050892  50.2325212
  89.6496068  54.4138279  42.6202501  88.7152347  54.5339742  42.4507206
  89.8272736  53.5110746  42.3562511  85.1501256  47.7983975  44.7735763
  84.7799043  47.2455015  45.4616668  85.6460348  47.1942108  44.2210763
  93.0368619  50.2555598  43.1552536  93.5029071  51.0883590  43.0812838
  93.4876120  49.7900580  43.8597794  82.9790454  58.2581470  51.8690781
  83.6799914  58.8917953  52.0220175  82.5085569  58.5996201  51.1086420
  91.1044850  56.5999420  40.1538688  91.3804694  56.4856014  41.0632562
  90.2349349  56.2016905  40.1150861  91.0085282  42.6236185  47.1943437
  90.0948362  42.8540412  47.3625644  91.4378383  42.7074629  48.0457469
  90.7791740  50.8126077  49.6943331  90.1263191  51.0601985  49.0395784
  91.1572120  49.9990216  49.3605808  87.7398914  60.8485771  43.7971501
  87.9221309  60.0307426  44.2599254  88.5631900  61.0653463  43.3596391
  88.0741080  59.7753956  41.0586550  88.6028846  59.2646410  40.4456712
  88.3369299  59.4596486  41.9232083  86.8279313  51.5545888  56.1809368
  86.1519951  51.4540018  56.8511743  87.6506947  51.3985102  56.6445365
  81.4296828  60.8269072  43.8184326  80.7607203  61.3115200  43.3348366
  81.2909697  61.0738293  44.7327704  73.1675827  50.3623425  47.5226326
  73.2059927  49.8287016  48.3163444  72.6616120  49.8358631  46.9037304
  85.5702096  62.8612816  50.4166984  86.1220404  63.0244437  51.1816069
  85.9108290  63.4517254  49.7447009  80.5466590  45.2087966  51.0188869
  80.6107916  46.0702797  50.6066266  80.4833710  44.5961967  50.2861227
  90.4212971  57.6874073  56.2715638  90.9652875  58.3004032  55.7770593
  89.8399816  58.2453652  56.7882651  76.7984405  49.0887527  40.5980258
  77.0937846  48.1798206  40.5447311  75.8972441  49.0675267  40.2761260
  88.7070484  60.8094791  47.4030666  88.5821623  60.0084531  46.8941612
  89.3649575  61.3040985  46.9144636  80.3278652  47.1643524  46.5807806
  79.6065238  47.7779492  46.4415280  81.1171908  47.7001289  46.5024452
  90.7705392  58.6103811  49.0310216  89.8235728  58.4909163  48.9588543
  91.1188165  57.7226310  49.1136478  83.1304965  44.4997950  52.8548458
  83.6539367  44.7460247  53.6174767  82.9117299  45.3317985  52.4351595
  78.5272246  46.7701625  40.7219583  78.1984953  45.8899004  40.5394689
  78.8811617  46.7149294  41.6095972  87.7751825  58.4056528  45.2314568
  87.6276788  57.4773235  45.4122139  88.6005319  58.4276618  44.7471644
  81.6414070  47.0574595  41.0895061  81.9810142  47.5860516  40.3673669
  82.0886190  47.3955001  41.8653627  91.3785947  59.2285086  46.3179441
  92.3032495  59.0227948  46.1803892  91.2101251  58.9801488  47.2268783
  84.3357510  45.4411645  50.5398129  83.9954331  44.6419459  50.9418809
  83.6296517  45.7413356  49.9674962  84.9873982  42.5260958  48.9925452
  85.8100052  42.0521436  48.8704342  85.2312046  43.3051442  49.4924138
  83.6282217  45.5549216  39.2888353  84.3490579  45.9330469  38.7852070
  83.0047521  46.2738093  39.3923331  87.7713340  46.2594365  40.2246686
  87.9876954  47.1419003  39.9235514  87.2907407  45.8680579  39.4952328
  82.5112561  49.2180079  46.8017430  82.3657142  49.5320382  47.6941712
  82.0337765  49.8364979  46.2488329  84.3708944  46.2082627  46.8498320
  84.3570513  45.3123720  46.5130618  85.0881372  46.2153290  47.4836606
  86.2235075  46.6419967  48.8951447  85.9652852  47.5637037  48.8935778
  85.6920115  46.2450401  49.5851911  91.1681263  59.7470754  41.6741533
  91.3418141  59.1817176  40.9215385  91.6610155  60.5471649  41.4921023
  76.9858223  51.7585423  49.7405091  76.4411691  52.5345231  49.8725366
  77.8637573  52.1056227  49.5824213  83.7745840  45.0897007  42.1185890
  83.8961751  44.1613653  42.3176777  83.4847882  45.1035693  41.2064205
  86.6437030  42.7751917  45.2552610  86.6658727  42.8391250  44.3004589
  87.0605089  41.9356426  45.4493116  97.0220655  52.5107177  43.2931832
  97.4651801  51.7614502  42.8950956  96.1447165  52.5017313  42.9105564
  92.1556436  59.0637518  38.7738431  92.8507340  59.6844211  38.9925746
  92.4979586  58.2132869  39.0490809  94.0547859  56.5137224  40.3025762
  94.5799183  56.8524497  39.5775082  93.9670212  55.5784239  40.1188896
  85.7167908  60.4271297  52.4315638  86.0255034  60.1820444  53.3038338
  86.5143390  60.6317936  51.9434509  85.7388520  62.5809207  44.6621015
  85.2993510  62.0885586  45.3553872  86.4896637  62.0382175  44.4213090
  78.2180859  58.7720748  44.6645643  79.0438879  58.4724520  44.2844287
  77.8674911  58.0028370  45.1135432  83.1862392  58.1247216  46.7343317
  82.5642401  57.4617921  46.4345544  83.8567259  58.1508348  46.0516964
  83.2586919  46.6029004  56.3275823  83.3075075  47.4791127  55.9453592
  83.8009434  46.0606397  55.7547466  93.7441765  57.1470127  55.6076960
  92.9537309  57.1294266  55.0681459  93.5075120  57.6858421  56.3625996
  93.8639640  53.9962594  52.9209688  93.9137645  53.8312601  53.8625211
  93.7553563  53.1289853  52.5307569  82.7475899  56.6751140  40.2101777
  82.8964019  57.3586604  39.5568450  83.5542342  56.6556230  40.7251233
  91.1543403  49.9793522  54.2368995  92.0553265  49.8399987  53.9452993
  91.2291377  50.1447977  55.1767172  85.4886208  47.3560377  53.0822181
  84.6189517  47.6493943  52.8104770  85.7245688  47.9400822  53.8029445
  95.3657837  56.4159535  53.1651710  95.0742645  56.7789516  54.0015171
  94.7529968  55.7026544  52.9865042  96.5653519  53.9812415  45.6854280
  97.4000411  54.4202219  45.8491840  96.7012648  53.5051068  44.8662526
  93.6145025  51.5392150  51.6331768  94.0899147  51.7319796  50.8250619
  92.6910591  51.5951336  51.3875151  80.5028532  52.7016317  41.2162846
  80.2574574  51.7978647  41.4143056  80.6724446  52.7033468  40.2742324
  88.1925242  43.5739994  50.5987602  88.7107186  44.3101020  50.2734090
  87.8380374  43.8803987  51.4334361  79.7724179  48.4344675  38.7149007
  79.0793424  48.5089030  38.0589043  79.5275931  47.6705018  39.2370524
  88.4437836  39.9940276  46.1188498  88.7239590  39.3263465  46.7448925
  89.2288443  40.1869372  45.6063162  86.2471304  59.1699270  37.6813525
  85.6745271  59.7889457  37.2283996  86.8204098  59.7198632  38.2153446
  92.3146694  48.4157910  49.8660073  93.2664117  48.5156008  49.8872297
  92.1450145  47.6236179  50.3758158  90.3361074  45.5013493  50.0519474
  89.7411006  45.7818506  49.3565963  90.0510770  45.9907394  50.8236215
  89.4668564  59.4536420  38.8122107  90.3999237  59.3881982  39.0154982
  89.3791777  60.2892687  38.3536639  92.0956581  58.7702290  35.7726054
  92.0170212  58.4362154  36.6661812  92.9166248  59.2624058  35.7717527
  94.7934772  51.6364030  48.9802373  94.7611092  50.6980030  49.1662057
  95.4035396  51.7148066  48.2468198  86.6318103  50.5060083  35.0229577
  87.5777208  50.3766291  35.0917995  86.2532348  49.7674745  35.4999005
  94.9429260  48.4275073  49.0260656  94.4268309  47.6433530  48.8390585
  95.8269209  48.0993790  49.1907176  92.6039987  42.1716089  44.9856469
  92.4064809  41.8631177  45.8699801  93.2139693  42.8977728  45.1154399
 100.6111322  52.6980037  48.1208410 101.3414710  52.4365325  48.6816113
 100.0018267  51.9608759  48.1610478  98.6926619  50.8387899  48.7182861
  97.9659783  50.7043864  48.1099353  98.2773906  51.1464728  49.5239579
  86.5156795  54.5577829  56.4830234  87.4359805  54.7356428  56.6770281
  86.4806378  53.6133874  56.3309933  84.8161020  48.4310059  34.9584462
  83.9092475  48.1343172  35.0347176  85.0937001  48.1339877  34.0918748
  75.7338960  49.7516423  45.4083509  75.4141745  48.8981731  45.1157883
  75.1872389  49.9665001  46.1641476  79.5118868  52.4678863  49.1253015
  79.7304878  53.3995971  49.1441049  79.9244642  52.1086838  49.9107819
  86.4323086  42.9746949  41.1128704  85.6223814  42.6294034  41.4883950
  87.1207503  42.6654493  41.7016315  88.3613634  42.0524996  42.7353000
  88.9144673  42.4720449  43.3943023  88.5983720  41.1260744  42.7775956
  84.3846733  48.0412069  58.5155764  84.2843460  48.9906426  58.4467855
  84.1668275  47.7130308  57.6431834  83.5859805  45.2896994  35.0996441
  84.4478969  45.6151893  35.3592259  83.7710149  44.5028490  34.5869507
  75.6027220  53.3719334  47.3776630  74.9090692  52.9573287  46.8646585
  76.3500211  53.4139871  46.7810049  91.7392441  44.1625521  42.2431664
  91.1591110  44.8210325  41.8609717  91.4728374  43.3402865  41.8319082
  90.1896007  43.5630578  44.4452985  90.6895786  43.6747113  43.6367304
  90.8331615  43.2591631  45.0853793  84.2478003  51.4709208  57.3320826
  83.7645085  52.2709568  57.5384715  84.3338942  51.4817153  56.3788270
  77.5163963  53.3037588  45.2542645  77.4934651  53.4025275  44.3024528
  77.8264599  54.1502739  45.5759811  80.1751341  55.3613743  49.3689260
  81.1294594  55.3297685  49.3019191  79.9763864  54.9004367  50.1839485
  80.7650723  53.9314859  51.9360057  81.5843612  54.4258938  51.9594894
  81.0387531  53.0146827  51.9077625  90.5217319  46.3225611  41.2988013
  89.6343174  46.6075262  41.0808207  90.9371308  46.1619375  40.4515290
  93.8731855  46.3472132  45.0142352  94.6492245  46.8368585  45.2866969
  93.1479989  46.7730186  45.4714221  96.3104414  47.0599751  46.0716293
  96.9048905  46.8195487  45.3609601  96.3830998  46.3406882  46.6989829
  89.6660533  56.0870286  35.3936033  90.3696383  56.2920288  36.0093688
  88.9423181  56.6547048  35.6585116  90.4958343  51.8380147  41.5138303
  90.4393544  52.2948699  40.6745935  91.0486685  51.0770832  41.3361146
  94.3063149  47.6269879  42.3388422  94.0500083  47.2266515  43.1696630
  93.6816017  48.3413673  42.2138562  98.6175487  50.3665952  44.8459714
  98.0575045  50.4359142  45.6191276  98.0118990  50.1906937  44.1259210
  81.6870695  61.8002679  46.5977900  81.5703080  62.7448112  46.4956590
  80.8663142  61.4976241  46.9863699  91.5747230  56.5252815  37.4434493
  92.4092834  56.0934014  37.2611968  91.4131573  56.3534829  38.3711387
  91.2293122  53.0284928  38.8090832  91.1741926  52.8629200  37.8679276
  90.6039177  53.7360961  38.9653022  88.5439029  55.3333840  58.1344395
  89.4130189  55.5074492  57.7731030  88.0645781  56.1528257  58.0120124
  84.5389248  42.5293037  38.3876150  84.5267917  43.4734877  38.5444421
  85.4312669  42.3463183  38.0935612  82.7125210  62.4530941  49.8133828
  83.6152456  62.4854551  50.1300323  82.4862580  61.5231392  49.8280164
  84.4678812  61.2061928  46.4743907  83.5174443  61.2063789  46.3608279
  84.7711298  60.4594662  45.9579942  88.3541367  39.1235814  42.6422087
  87.5873763  38.5694301  42.7878770  88.7652072  39.1957683  43.5036239
  80.3583128  45.4120610  56.7327269  81.2214590  45.0557415  56.9430593
  79.7848539  45.0734505  57.4202673 100.2031505  67.0422466  47.5389670
 100.8409915  66.9229213  46.8353010 100.0852348  67.9903310  47.5977622
  97.0121211  66.9949894  47.4751194  96.6739723  66.8790959  46.5871729
  97.8810980  66.5941059  47.4552200  92.8708027  68.8485371  43.4648085
  92.3072892  68.7575308  42.6964373  92.7560422  68.0285275  43.9450578
  97.4940994  68.1484746  53.4337400  97.4829635  67.7537544  52.5617903
  97.6561634  67.4150819  54.0271171  90.4172459  70.3436562  46.3032306
  91.2093751  70.0027387  45.8878605  90.6569109  70.4531537  47.2234459
  98.4507586  72.5156338  38.7762550  97.7995566  73.1010419  38.3896564
  99.2451949  73.0462533  38.8357588  92.3763213  69.6045476  39.1749684
  93.1494089  69.0574463  39.0362560  92.7288612  70.4689725  39.3864146
  94.2148255  70.9321858  52.3816584  93.9238121  71.8367489  52.2663250
  94.8505240  70.9738385  53.0960653  95.1404462  68.3098706  48.9717943
  95.7368035  68.0854729  48.2574906  95.1979434  67.5683452  49.5743391
  94.7129491  65.7638142  36.8068134  94.9655011  65.2419663  36.0451597
  93.7754050  65.6004287  36.9094818  99.7572774  64.7673920  44.6142878
 100.5435863  64.3493343  44.2633295 100.0211478  65.6720012  44.7824526
  99.9282851  70.2046770  39.3131534  99.2928684  70.2781397  40.0252439
  99.5980257  70.7940369  38.6350614 105.1581201  64.7049153  45.5175856
 105.8906373  64.1348370  45.7513686 104.4020556  64.3170754  45.9582362
  94.4325779  67.6666248  39.0092509  94.3162038  66.9911151  39.6773594
  94.5428039  67.1798622  38.1924662  96.7757320  67.1276395  42.7139199
  96.4115528  66.6007016  43.4252120  97.6324436  66.7374864  42.5405684
 102.6806621  58.4170727  49.9770465 102.3489946  59.2866138  49.7531680
 102.0852234  58.1007011  50.6564495  96.4162807  62.1566294  37.7100547
  96.5837210  63.0246531  38.0771018  96.2259976  62.3193576  36.7861836
  99.1738141  70.6183273  49.3766377  98.8738864  71.5208312  49.2682185
  98.8289200  70.3515456  50.2287530  92.6250622  67.0697070  45.4103082
  91.7001119  66.9373284  45.6180774  92.8735035  67.8491289  45.9073024
 102.5735284  63.1365813  47.0563815 101.6652162  63.0681222  46.7622576
 102.5222880  63.6137758  47.8845640  96.3952028  64.6123952  38.6947214
  96.2751653  65.0581003  39.5332694  95.7004617  64.9609270  38.1360752
  89.9859433  66.7130344  46.2446871  90.1151814  66.9664823  47.1586283
  89.3056884  67.3058052  45.9251526  94.1558920  77.3827594  42.3437345
  94.0782950  78.3335419  42.4225826  93.5520564  77.0373466  43.0012271
  96.6476150  64.5555459  54.9998712  95.8709484  65.1149379  54.9901577
  97.2866713  65.0412242  55.5213582 104.4396931  61.3382252  48.8341689
 103.7971311  61.6314785  48.1881483 103.9351859  61.2235172  49.6394885
 102.0937094  65.0845425  39.5227548 103.0054951  65.3172812  39.3475245
 101.5846741  65.6682469  38.9602627  94.9022522  67.3640912  54.5616679
  95.6437207  67.9025956  54.2851503  94.1959508  67.9907201  54.7188231
 100.3777862  69.5070053  53.1588840 100.7861218  69.0652463  52.4143473
  99.6555124  68.9322680  53.4123033  96.7308932  64.4442660  50.5322397
  97.5770127  64.8682073  50.6757046  96.6707570  63.7876284  51.2260961
 100.7006677  70.0671244  46.9141129 100.0715539  70.2316958  46.2117197
 100.3132339  70.4812853  47.6852093 104.5795909  71.0025681  44.2685493
 103.8946947  71.3824583  43.7182526 104.6639758  71.6121008  45.0017441
  99.8808377  62.1047028  52.1903571  99.6369309  62.8589089  51.6537847
 100.1568308  62.4832376  53.0250818 101.8346840  68.6485640  50.8680837
 102.0463735  69.2917400  50.1915218 101.7876588  67.8147957  50.4002767
  99.4373069  61.2603461  47.7717409  98.5757548  61.5584715  48.0634146
  99.4635504  61.4773860  46.8398441  96.2534639  69.8045652  44.1791214
  96.7172984  70.0833355  43.3895837  95.9891437  68.9029096  43.9964305
  93.1458720  69.3517133  47.1170978  93.7160077  69.7804402  46.4788462
  93.7366832  69.0699718  47.8155163  95.1903525  65.9268804  40.9880780
  95.8927568  66.3789848  41.4554706  94.8584153  65.2852623  41.6160673
  93.6383886  64.5180561  55.3631989  93.0082547  65.1996841  55.5967386
  93.5319974  64.4063642  54.4185127  88.9328859  64.1852357  46.2897913
  88.1427913  64.4409885  45.8138024  89.4240106  65.0000694  46.3949954
 102.9492668  71.5257596  49.0403194 103.7710112  71.1237783  48.7585876
 102.9455071  71.4225830  49.9919310  90.8843604  64.5496936  43.2481390
  90.0874767  64.6615630  43.7664886  90.6569196  64.8883588  42.3822280
  96.7149272  71.0741639  51.1963904  96.7793704  71.5362046  52.0322076
  96.0060195  70.4439004  51.3246214  87.2166562  64.4382847  48.7212904
  87.4674600  65.3229857  48.9870480  87.7526110  64.2587449  47.9487996
 111.0398661  67.8696344  45.3888165 110.2862370  67.3003742  45.2332170
 111.1746202  67.8359009  46.3358800  96.4297289  72.7409747  41.0642885
  96.2942964  73.5861282  41.4927733  96.9707102  72.9429024  40.3008819
  92.9164629  58.8201326  57.7257240  92.5231574  58.2667525  58.4004884
  93.7330769  59.1311905  58.1163758  89.8826687  70.2585185  41.6370810
  90.3951207  71.0528435  41.7876375  90.5349399  69.5611475  41.5704411
  91.6921571  73.3750941  43.7193563  91.8688200  74.2968906  43.5314547
  92.4878405  73.0609360  44.1487943  95.8332590  60.2359206  55.3177497
  96.5742303  60.8366359  55.2381959  96.0650513  59.4936843  54.7595539
  90.9773928  65.4215573  53.5955726  90.8627443  64.5200830  53.8962825
  90.1218446  65.6679270  53.2440543  98.0565766  73.3633313  55.1943227
  97.6129620  72.5769692  54.8764131  98.7182979  73.5512464  54.5287118
  92.8152887  74.8929115  49.7203905  93.3660312  74.7646178  48.9480899
  91.9764363  75.1924004  49.3698798 100.1547004  73.6436113  53.2224628
 100.1365479  74.4644994  52.7304897 101.0766924  73.5190188  53.4474769
  96.6120058  71.1580243  54.0648137  97.1448395  70.3968531  53.8347445
  96.0834139  70.8653894  54.8072291  99.7789753  56.2640308  49.5941778
  99.4354022  57.1541950  49.5180889 100.1468715  56.0741966  48.7311363
  87.8475603  68.5873839  42.4130380  88.6850825  68.9970847  42.1964088
  88.0253871  67.6473281  42.3830574  99.7440036  66.2548920  38.1014213
  99.2286659  67.0253524  38.3402601  99.4717344  65.5814056  38.7247275
  97.3287147  61.0998620  43.1599452  96.4728743  60.7105471  42.9805090
  97.7414098  61.1790581  42.2999237  98.8586293  58.6344964  47.5591012
  98.3551089  58.5975099  46.7458817  99.1516900  59.5437706  47.6187668
  95.1029179  58.7183693  46.5657193  95.9682176  58.5226502  46.2063083
  95.1706688  58.4894045  47.4926550 104.7174310  69.0081274  40.0367387
 103.9403752  68.6692434  39.5922549 105.3965791  69.0133897  39.3622352
  99.5326339  64.1276012  39.9273995  99.2276474  64.4422161  40.7784138
 100.4856781  64.2057432  39.9701328  97.9772771  70.2866235  41.5766949
  97.4494132  69.5518995  41.2640186  97.4760273  71.0640911  41.3306917
 102.9565617  68.4815255  46.6933995 102.2989291  69.1714517  46.7814123
 103.7606016  68.8711687  47.0367981  92.7091498  60.9485901  43.9373560
  93.2835250  60.7261083  43.2046753  93.2962481  61.0174596  44.6902161
 101.7671075  66.8359628  44.7437937 102.2802957  67.4689620  45.2459646
 102.4172299  66.2360824  44.3781297  93.0361085  62.9790362  37.9569445
  92.1998398  63.3165049  38.2778720  92.8965855  62.8439342  37.0196582
  95.0114166  57.8227150  42.6648629  94.3578578  57.5076167  42.0405244
  94.9694640  57.2002891  43.3908452  96.1225371  68.1046445  34.5801922
  95.2152432  67.8735699  34.7793071  96.6196403  67.3084065  34.7675903
  99.0293450  76.8143952  37.4998608  98.3555148  77.1175649  38.1083566
  99.4159272  77.6173033  37.1504065  98.2451906  64.3109084  46.9896277
  97.3274468  64.5324031  46.8317965  98.6612050  64.3855394  46.1307984
  99.0286954  65.7100499  42.1198957  99.7758773  66.2221897  41.8106079
  99.2978544  65.3884552  42.9803351  97.3013604  68.2059040  39.1025912
  96.3924823  67.9218073  39.1998381  97.3308688  68.6258119  38.2429219
 102.5332872  71.8165630  42.8717079 102.0795199  70.9756539  42.9282270
 101.9026838  72.4527028  43.2091859 101.4765791  62.7457616  44.1017747
 100.7388548  62.2335002  44.4327989 101.7292565  62.3057997  43.2901024
 100.9765811  73.6542126  43.8066897 101.2688785  74.2147183  43.0879263
 101.4864431  73.9470687  44.5620056 101.5777418  55.5233868  44.6959516
 101.8836295  54.6631231  44.4085431 102.3030023  56.1151488  44.4958510
  87.8701775  65.9264554  43.0841114  87.6726174  65.3333915  42.3592180
  87.3148439  65.6216764  43.8017053  95.8498498  65.8187661  45.2035707
  95.9047108  64.8661497  45.1278184  95.0389700  65.9747100  45.6877005
  96.9989692  69.7467784  36.4413990  96.5609122  69.0303643  35.9819628
  97.7400133  69.9743899  35.8799082  93.7890858  64.4364720  42.9626086
  92.9758724  64.7358891  43.3691278  94.2849852  64.0420409  43.6800568
  95.9399436  74.4322477  44.8960351  95.8975615  74.6583324  43.9668883
  96.8562135  74.1985852  45.0446152  99.3865070  64.9006545  51.7940980
  99.7414458  65.1278018  52.6535446 100.0337201  65.2324922  51.1718235
 105.1162807  68.0224981  42.4990309 104.9780705  68.2126577  41.5711498
 104.7599026  68.7844364  42.9558360  93.2804933  62.0083076  48.5787321
  93.9204312  61.8671835  47.8810284  92.4482463  61.7217589  48.2025923
 105.1432186  70.0901508  47.5101580 105.5768693  69.9976797  48.3584634
 105.8563767  70.0659008  46.8721596  94.0565237  71.3085506  44.6922313
  94.8505835  70.8135827  44.4904888  93.3456929  70.7803370  44.3290019
  98.8760081  73.6903602  49.0434681  98.9297104  74.2594538  49.8112397
  98.0074863  73.8605487  48.6788718  90.3648000  65.4528588  40.7682066
  89.4345588  65.3913044  40.9852028  90.4605472  64.9304541  39.9718707
  90.2833549  61.9783401  43.3560308  90.5440367  62.8928734  43.2469468
  91.1050722  61.5107844  43.5056920  91.7558475  63.3921158  50.5259132
  92.4281528  63.1838520  49.8771781  90.9288261  63.1943244  50.0864364
 106.0047736  70.1325208  50.0434466 106.1983626  71.0371019  50.2893741
 105.9048354  69.6732628  50.8773051  97.6584047  60.0183099  52.5424793
  97.0111962  60.7173049  52.4489269  98.4285062  60.4519243  52.9101041
 101.0662845  70.2831951  55.6175346 100.9148351  70.0542503  54.7005430
 101.0567524  71.2402553  55.6306691  97.8348181  67.8563864  50.6021613
  98.7640241  68.0075024  50.4290580  97.4139211  67.9447885  49.7470259
  96.6336513  71.8814528  48.3720150  96.4947599  71.5133313  49.2446089
  95.8451109  72.3962168  48.2004108  97.2284665  76.9823625  39.7145687
  97.4036420  76.5111668  40.5291310  96.5417453  77.6089391  39.9426948
  98.1841728  71.2596131  45.7608988  97.8491561  71.2196901  46.6566638
  97.6845674  70.5940847  45.2879398  92.1585972  66.6663761  51.2861569
  92.0205770  65.9344000  51.8873108  93.0690895  66.5772661  51.0045757
 101.1200920  68.6052165  36.0346048 100.5030090  67.8798994  35.9379101
 100.6517408  69.3661526  35.6913122  94.7868273  66.3783720  50.7745249
  95.4967891  65.7376913  50.7331867  94.7437581  66.6296615  51.6971430
 102.7755051  73.3151074  53.6951828 102.7167597  72.6310294  53.0282411
 103.1774570  74.0570064  53.2432454  93.4997207  63.3648938  52.5940888
  92.9634564  62.9139677  53.2462485  92.9113915  63.4994847  51.8511353
  91.7945750  80.1312988  46.4885547  92.0342348  80.7631512  47.1664566
  90.9514947  79.7801028  46.7750906  92.9099466  62.8237590  35.1567352
  92.0328932  62.7026391  34.7929599  93.3857219  62.0323668  34.9046241
 102.7772459  71.2790658  51.9265808 101.8899237  70.9416580  52.0492207
 103.3471010  70.5473689  52.1634573  84.4301606  67.6114749  45.2508859
  85.1172645  67.2976479  44.6629875  84.2749734  68.5156114  44.9776111
  89.2336328  62.5004946  49.6793883  89.1494517  61.8930616  48.9444293
  88.4119034  62.9913964  49.6803379  96.3073612  75.9392110  48.8927051
  96.2343783  76.7447082  49.4046356  95.8651005  76.1384076  48.0675072
  96.0963392  75.1763880  42.4029873  95.3130913  75.7185560  42.4968097
  96.7956137  75.6937860  42.8024114  99.4060042  60.9858510  45.0464078
  99.9028741  60.2328472  44.7265148  98.6347023  61.0222826  44.4807287
 107.2589799  66.6898875  46.6882370 107.2479675  67.5723591  46.3176303
 106.3907179  66.3370426  46.4936907  98.7672295  75.8378944  51.0485210
  99.4800268  76.4726409  50.9761111  98.2762324  75.9342810  50.2325212
 100.4889822  69.7430197  42.6202501  99.5546101  69.8631659  42.4507206
 100.6666491  68.8402664  42.3562511  95.9895010  63.1275893  44.7735763
  95.6192798  62.5746933  45.4616668  96.4854103  62.5234026  44.2210763
 103.8762374  65.5847516  43.1552536 104.3422826  66.4175508  43.0812838
 104.3269874  65.1192498  43.8597794  93.8184209  73.5873388  51.8690781
  94.5193668  74.2209871  52.0220175  93.3479324  73.9288119  51.1086420
 101.9438605  71.9291337  40.1538688 102.2198449  71.8147932  41.0632562
 101.0743104  71.5308822  40.1150861 101.8479036  57.9528103  47.1943437
 100.9342116  58.1832330  47.3625644 102.2772138  58.0366547  48.0457469
 101.6185495  66.1417995  49.6943331 100.9656945  66.3893902  49.0395784
 101.9965875  65.3282133  49.3605808  98.5792669  76.1777688  43.7971501
  98.7615063  75.3599344  44.2599254  99.4025655  76.3945380  43.3596391
  98.9134834  75.1045873  41.0586550  99.4422601  74.5938328  40.4456712
  99.1763054  74.7888404  41.9232083  97.6673068  66.8837806  56.1809368
  96.9913705  66.7831935  56.8511743  98.4900702  66.7277020  56.6445365
  89.4151927  73.1209743  48.8021883  90.0005364  72.3753431  48.9349787
  89.2176766  73.4313699  49.6858547  92.2690582  76.1560990  43.8184326
  91.6000958  76.6407118  43.3348366  92.1303452  76.4030210  44.7327704
  84.0069582  65.6915343  47.5226326  84.0453681  65.1578934  48.3163444
  83.5009875  65.1650548  46.9037304  96.4095851  78.1904734  50.4166984
  96.9614159  78.3536355  51.1816069  96.7502044  78.7809171  49.7447009
  91.3860344  60.5379883  51.0188869  91.4501671  61.3994714  50.6066266
  91.3227464  59.9253885  50.2861227  90.8612617  62.6103016  54.6661903
  91.4884655  62.2280093  55.2799427  90.0040535  62.3917218  55.0317595
 101.2606725  73.0165991  56.2715638 101.8046629  73.6295949  55.7770593
 100.6793570  73.5745569  56.7882651  87.6378159  64.4179445  40.5980258
  87.9331600  63.5090123  40.5447311  86.7366195  64.3967184  40.2761260
  99.5464238  76.1386709  47.4030666  99.4215378  75.3376449  46.8941612
 100.2043329  76.6332902  46.9144636  91.1672406  62.4935442  46.5807806
  90.4458992  63.1071409  46.4415280  91.9565662  63.0293206  46.5024452
 101.6099147  73.9395729  49.0310216 100.6629482  73.8201080  48.9588543
 101.9581920  73.0518227  49.1136478  93.9698720  59.8289868  52.8548458
  94.4933122  60.0752165  53.6174767  93.7511053  60.6609903  52.4351595
  89.3666001  62.0993543  40.7219583  89.0378707  61.2190922  40.5394689
  89.7205372  62.0441211  41.6095972  98.6145580  73.7348445  45.2314568
  98.4670542  72.8065153  45.4122139  99.4399073  73.7568536  44.7471644
  92.4807824  62.3866512  41.0895061  92.8203897  62.9152434  40.3673669
  92.9279945  62.7246919  41.8653627 102.2179702  74.5577004  46.3179441
 103.1426249  74.3519865  46.1803892 102.0495005  74.3093405  47.2268783
  95.1751265  60.7703563  50.5398129  94.8348085  59.9711376  50.9418809
  94.4690271  61.0705274  49.9674962  95.8267737  57.8552876  48.9925452
  96.6493806  57.3813354  48.8704342  96.0705800  58.6343359  49.4924138
  94.4675971  60.8841134  39.2888353  95.1884334  61.2622387  38.7852070
  93.8441275  61.6030011  39.3923331  98.6107094  61.5886283  40.2246686
  98.8270709  62.4710921  39.9235514  98.1301161  61.1972496  39.4952328
  93.3506316  64.5471996  46.8017430  93.2050896  64.8612299  47.6941712
  92.8731519  65.1656897  46.2488329  95.2102698  61.5374544  46.8498320
  95.1964267  60.6415638  46.5130618  95.9275127  61.5445208  47.4836606
  97.0628829  61.9711884  48.8951447  96.8046607  62.8928955  48.8935778
  96.5313869  61.5742319  49.5851911 102.0075018  75.0762672  41.6741533
 102.1811895  74.5109094  40.9215385 102.5003909  75.8763566  41.4921023
  87.8251978  67.0877341  49.7405091  87.2805446  67.8637149  49.8725366
  88.7031328  67.4348145  49.5824213  94.6139594  60.4188924  42.1185890
  94.7355506  59.4905571  42.3176777  94.3241637  60.4327610  41.2064205
  97.4830785  58.1043835  45.2552610  97.5052482  58.1683168  44.3004589
  97.8998844  57.2648344  45.4493116 107.8614409  67.8399094  43.2931832
 108.3045555  67.0906420  42.8950956 106.9840919  67.8309231  42.9105564
 102.9950190  74.3929436  38.7738431 103.6901095  75.0136129  38.9925746
 103.3373340  73.5424787  39.0490809  88.6118000  66.2147237  52.6335248
  87.8699736  66.3629872  53.2199879  88.2910744  66.4755502  51.7701998
 104.8941613  71.8429141  40.3025762 105.4192938  72.1816414  39.5775082
 104.8063966  70.9076157  40.1188896  96.5561662  75.7563215  52.4315638
  96.8648789  75.5112362  53.3038338  97.3537144  75.9609854  51.9434509
  96.5782274  77.9101125  44.6621015  96.1387265  77.4177503  45.3553872
  97.3290391  77.3674092  44.4213090  89.0574613  74.1012666  44.6645643
  89.8832633  73.8016437  44.2844287  88.7068665  73.3320288  45.1135432
  94.0256146  73.4539134  46.7343317  93.4036156  72.7909839  46.4345544
  94.6961013  73.4800266  46.0516964  87.2583218  72.0198992  45.6234577
  86.4215127  71.5921166  45.4418578  87.2306864  72.2131435  46.5605368
  94.0980674  61.9320922  56.3275823  94.1468829  62.8083045  55.9453592
  94.6403188  61.3898315  55.7547466 104.5835520  72.4762045  55.6076960
 103.7931063  72.4586184  55.0681459 104.3468874  73.0150339  56.3625996
 104.7033395  69.3254511  52.9209688 104.7531400  69.1604519  53.8625211
 104.5947318  68.4581771  52.5307569  93.5869653  72.0043057  40.2101777
  93.7357774  72.6878522  39.5568450  94.3936097  71.9848147  40.7251233
 101.9937157  65.3085440  54.2368995 102.8947020  65.1691904  53.9452993
 102.0685131  65.4739894  55.1767172  96.3279962  62.6852294  53.0822181
  95.4583272  62.9785860  52.8104770  96.5639443  63.2692739  53.8029445
 106.2051591  71.7451453  53.1651710 105.9136400  72.1081434  54.0015171
 105.5923723  71.0318461  52.9865042 107.4047274  69.3104333  45.6854280
 108.2394165  69.7494137  45.8491840 107.5406403  68.8342986  44.8662526
 104.4538780  66.8684068  51.6331768 104.9292901  67.0611714  50.8250619
 103.5304345  66.9243253  51.3875151  91.3422286  68.0308235  41.2162846
  91.0968328  67.1270565  41.4143056  91.5118201  68.0325385  40.2742324
  99.0318996  58.9031911  50.5987602  99.5500940  59.6392938  50.2734090
  98.6774129  59.2095904  51.4334361  90.6117934  63.7636592  38.7149007
  89.9187179  63.8380947  38.0589043  90.3669686  62.9996936  39.2370524
  99.2831590  55.3232194  46.1188498  99.5633344  54.6555383  46.7448925
 100.0682197  55.5161289  45.6063162  97.0865059  74.4991188  37.6813525
  96.5139026  75.1181375  37.2283996  97.6597852  75.0490549  38.2153446
 103.1540449  63.7449828  49.8660073 104.1057872  63.8447925  49.8872297
 102.9843899  62.9528096  50.3758158 101.1754828  60.8305411  50.0519474
 100.5804760  61.1110424  49.3565963 100.8904525  61.3199312  50.8236215
 100.3062319  74.7828338  38.8122107 101.2392992  74.7173899  39.0154982
 100.2185531  75.6184605  38.3536639 102.9350335  74.0994208  35.7726054
 102.8563967  73.7654072  36.6661812 103.7560002  74.5915976  35.7717527
 105.6328526  66.9655947  48.9802373 105.6004847  66.0271948  49.1662057
 106.2429150  67.0439984  48.2468198  97.4711857  65.8352000  35.0229577
  98.4170962  65.7058208  35.0917995  97.0926102  65.0966662  35.4999005
 105.7823015  63.7566991  49.0260656 105.2662064  62.9725447  48.8390585
 106.6662963  63.4285707  49.1907176 103.4433742  57.5008006  44.9856469
 103.2458563  57.1923095  45.8699801 104.0533447  58.2269645  45.1154399
 111.4505076  68.0271954  48.1208410 112.1808465  67.7657242  48.6816113
 110.8412022  67.2900676  48.1610478 109.5320373  66.1679817  48.7182861
 108.8053537  66.0335782  48.1099353 109.1167660  66.4756645  49.5239579
  97.3550550  69.8869747  56.4830234  98.2753559  70.0648346  56.6770281
  97.3200133  68.9425792  56.3309933  95.6554774  63.7601977  34.9584462
  94.7486230  63.4635089  35.0347176  95.9330755  63.4631795  34.0918748
  86.5732715  65.0808340  45.4083509  86.2535499  64.2273648  45.1157883
  86.0266143  65.2956918  46.1641476  90.3512622  67.7970781  49.1253015
  90.5698632  68.7287889  49.1441049  90.7638396  67.4378756  49.9107819
  97.2716840  58.3038866  41.1128704  96.4617569  57.9585951  41.4883950
  97.9601257  57.9946410  41.7016315  99.2007388  57.3816913  42.7353000
  99.7538427  57.8012367  43.3943023  99.4377475  56.4552661  42.7775956
  95.2240488  63.3703987  58.5155764  95.1237215  64.3198344  58.4467855
  95.0062030  63.0422226  57.6431834  94.4253559  60.6188912  35.0996441
  95.2872723  60.9443810  35.3592259  94.6103903  59.8320408  34.5869507
  86.4420975  68.7011252  47.3776630  85.7484446  68.2865204  46.8646585
  87.1893966  68.7431788  46.7810049 102.5786196  59.4917438  42.2431664
 101.9984865  60.1502242  41.8609717 102.3122128  58.6694783  41.8319082
 101.0289762  58.8922496  44.4452985 101.5289540  59.0039031  43.6367304
 101.6725370  58.5883549  45.0853793  95.0871758  66.8001126  57.3320826
  94.6038839  67.6001486  57.5384715  95.1732697  66.8109071  56.3788270
  88.3557717  68.6329505  45.2542645  88.3328405  68.7317193  44.3024528
  88.6658354  69.4794656  45.5759811  91.0145095  70.6905660  49.3689260
  91.9688349  70.6589603  49.3019191  90.8157619  70.2296284  50.1839485
  91.6044477  69.2606777  51.9360057  92.4237366  69.7550855  51.9594894
  91.8781285  68.3438745  51.9077625 101.3611074  61.6517529  41.2988013
 100.4736929  61.9367179  41.0808207 101.7765063  61.4911292  40.4515290
 104.7125610  61.6764050  45.0142352 105.4886000  62.1660502  45.2866969
 103.9873744  62.1022104  45.4714221 107.1498168  62.3891669  46.0716293
 107.7442659  62.1487405  45.3609601 107.2224752  61.6698800  46.6989829
  89.3695324  76.2325280  46.3859457  89.2349792  75.4725681  45.8197455
  88.9527386  76.9566180  45.9188246 100.5054287  71.4162203  35.3936033
 101.2090137  71.6212206  36.0093688  99.7816936  71.9838965  35.6585116
 101.3352097  67.1672065  41.5138303 101.2787299  67.6240616  40.6745935
 101.8880440  66.4062749  41.3361146 105.1456903  62.9561797  42.3388422
 104.8893837  62.5558432  43.1696630 104.5209771  63.6705591  42.2138562
 109.4569241  65.6957870  44.8459714 108.8968799  65.7651059  45.6191276
 108.8512744  65.5198854  44.1259210  92.5264450  77.1294597  46.5977900
  92.4096834  78.0740029  46.4956590  91.7056896  76.8268159  46.9863699
 102.4140984  71.8544733  37.4434493 103.2486588  71.4225931  37.2611968
 102.2525327  71.6826746  38.3711387 102.0686877  68.3576846  38.8090832
 102.0135680  68.1921117  37.8679276 101.4432932  69.0652879  38.9653022
  86.8579392  63.5944910  52.6352254  87.5038255  63.0843864  53.1239479
  86.6496543  64.3313592  53.2095680  99.3832784  70.6625758  58.1344395
 100.2523943  70.8366410  57.7731030  98.9039535  71.4820175  58.0120124
  95.3783002  57.8584955  38.3876150  95.3661672  58.8026795  38.5444421
  96.2706424  57.6755100  38.0935612  93.5518964  77.7822859  49.8133828
  94.4546211  77.8146469  50.1300323  93.3256334  76.8523310  49.8280164
  95.3072566  76.5353845  46.4743907  94.3568197  76.5355707  46.3608279
  95.6105052  75.7886580  45.9579942  99.1935122  54.4527732  42.6422087
  98.4267517  53.8986218  42.7878770  99.6045827  54.5249600  43.5036239
  91.1976883  60.7412527  56.7327269  92.0608344  60.3849332  56.9430593
  90.6242293  60.4026422  57.4202673 111.0425260  82.3714384  47.5389670
 111.6803669  82.2521131  46.8353010 110.9246102  83.3195228  47.5977622
 107.8514966  82.3241812  47.4751194 107.5133477  82.2082877  46.5871729
 108.7204734  81.9232977  47.4552200 103.7101782  84.1777288  43.4648085
 103.1466647  84.0867225  42.6964373 103.5954177  83.3577193  43.9450578
 108.3334749  83.4776664  53.4337400 108.3223390  83.0829462  52.5617903
 108.4955388  82.7442736  54.0271171 101.2566213  85.6728480  46.3032306
 102.0487505  85.3319305  45.8878605 101.4962864  85.7823455  47.2234459
 109.2901340  87.8448256  38.7762550 108.6389320  88.4302336  38.3896564
 110.0845703  88.3754451  38.8357588 103.2156967  84.9337393  39.1749684
 103.9887843  84.3866380  39.0362560 103.5682366  85.7981642  39.3864146
 105.0542010  86.2613775  52.3816584 104.7631876  87.1659406  52.2663250
 105.6898994  86.3030303  53.0960653 105.9798217  83.6390624  48.9717943
 106.5761789  83.4146646  48.2574906 106.0373188  82.8975369  49.5743391
 105.5523245  81.0930059  36.8068134 105.8048766  80.5711581  36.0451597
 104.6147804  80.9296205  36.9094818 110.5966528  80.0965838  44.6142878
 111.3829617  79.6785261  44.2633295 110.8605232  81.0011930  44.7824526
 110.7676605  85.5338688  39.3131534 110.1322438  85.6073314  40.0252439
 110.4374012  86.1232287  38.6350614 115.9974955  80.0341071  45.5175856
 116.7300127  79.4640288  45.7513686 115.2414311  79.6462671  45.9582362
 105.2719534  82.9958165  39.0092509 105.1555792  82.3203069  39.6773594
 105.3821794  82.5090539  38.1924662 107.6151075  82.4568312  42.7139199
 107.2509282  81.9298933  43.4252120 108.4718191  82.0666781  42.5405684
 113.5200376  73.7462645  49.9770465 113.1883700  74.6158056  49.7531680
 112.9245989  73.4298929  50.6564495 107.2556562  77.4858212  37.7100547
 107.4230964  78.3538448  38.0771018 107.0653731  77.6485494  36.7861836
 110.0131895  85.9475191  49.3766377 109.7132618  86.8500230  49.2682185
 109.6682955  85.6807374  50.2287530 103.4644377  82.3988988  45.4103082
 102.5394873  82.2665202  45.6180774 103.7128790  83.1783207  45.9073024
 113.4129039  78.4657731  47.0563815 112.5045916  78.3973140  46.7622576
 113.3616635  78.9429676  47.8845640 107.2345783  79.9415870  38.6947214
 107.1145408  80.3872920  39.5332694 106.5398371  80.2901187  38.1360752
 100.8253188  82.0422261  46.2446871 100.9545569  82.2956740  47.1586283
 100.1450639  82.6349969  45.9251526 104.9952675  92.7119511  42.3437345
 104.9176705  93.6627336  42.4225826 104.3914318  92.3665384  43.0012271
 107.4869905  79.8847377  54.9998712 106.7103239  80.4441297  54.9901577
 108.1260468  80.3704160  55.5213582 115.2790685  76.6674170  48.8341689
 114.6365065  76.9606703  48.1881483 114.7745614  76.5527090  49.6394885
 112.9330849  80.4137343  39.5227548 113.8448705  80.6464729  39.3475245
 112.4240496  80.9974387  38.9602627 105.7416277  82.6932830  54.5616679
 106.4830961  83.2317874  54.2851503 105.0353262  83.3199119  54.7188231
 111.2171617  84.8361971  53.1588840 111.6254973  84.3944381  52.4143473
 110.4948878  84.2614598  53.4123033 107.5702687  79.7734577  50.5322397
 108.4163882  80.1973991  50.6757046 107.5101324  79.1168202  51.2260961
 111.5400431  85.3963161  46.9141129 110.9109294  85.5608875  46.2117197
 111.1526093  85.8104771  47.6852093 115.4189663  86.3317599  44.2685493
 114.7340701  86.7116500  43.7182526 115.5033512  86.9412926  45.0017441
 110.7202132  77.4338946  52.1903571 110.4763064  78.1881006  51.6537847
 110.9962062  77.8124293  53.0250818 112.6740595  83.9777558  50.8680837
 112.8857490  84.6209318  50.1915218 112.6270343  83.1439875  50.4002767
 110.2766824  76.5895379  47.7717409 109.4151303  76.8876632  48.0634146
 110.3029258  76.8065778  46.8398441 107.0928393  85.1337569  44.1791214
 107.5566739  85.4125272  43.3895837 106.8285191  84.2321014  43.9964305
 103.9852474  84.6809051  47.1170978 104.5553831  85.1096319  46.4788462
 104.5760586  84.3991636  47.8155163 106.0297279  81.2560722  40.9880780
 106.7321322  81.7081765  41.4554706 105.6977908  80.6144541  41.6160673
 104.4777641  79.8472478  55.3631989 103.8476301  80.5288759  55.5967386
 104.3713729  79.7355560  54.4185127  99.7722613  79.5144274  46.2897913
  98.9821667  79.7701803  45.8138024 100.2633860  80.3292612  46.3949954
 113.7886423  86.8549513  49.0403194 114.6103866  86.4529701  48.7585876
 113.7848826  86.7517748  49.9919310 101.7237358  79.8788854  43.2481390
 100.9268522  79.9907548  43.7664886 101.4962951  80.2175506  42.3822280
 107.5543026  86.4033557  51.1963904 107.6187459  86.8653964  52.0322076
 106.8453950  85.7730922  51.3246214  98.0560316  79.7674765  48.7212904
  98.3068354  80.6521775  48.9870480  98.5919864  79.5879366  47.9487996
 107.2691044  88.0701664  41.0642885 107.1336719  88.9153200  41.4927733
 107.8100856  88.2720942  40.3008819 103.7558383  74.1493244  57.7257240
 103.3625329  73.5959443  58.4004884 104.5724524  74.4603823  58.1163758
 100.7220441  85.5877102  41.6370810 101.2344962  86.3820353  41.7876375
 101.3743154  84.8903393  41.5704411 102.5315326  88.7042859  43.7193563
 102.7081954  89.6260823  43.5314547 103.3272159  88.3901278  44.1487943
 106.6726344  75.5651123  55.3177497 107.4136058  76.1658276  55.2381959
 106.9044267  74.8228761  54.7595539 101.8167682  80.7507490  53.5955726
 101.7021198  79.8492748  53.8962825 100.9612200  80.9971187  53.2440543
 108.8959520  88.6925231  55.1943227 108.4523374  87.9061609  54.8764131
 109.5576734  88.8804381  54.5287118 103.6546641  90.2221032  49.7203905
 104.2054066  90.0938096  48.9480899 102.8158117  90.5215921  49.3698798
 110.9940758  88.9728031  53.2224628 110.9759234  89.7936912  52.7304897
 111.9160678  88.8482106  53.4474769 107.4513812  86.4872160  54.0648137
 107.9842149  85.7260448  53.8347445 106.9227893  86.1945812  54.8072291
 110.6183507  71.5932226  49.5941778 110.2747777  72.4833868  49.5180889
 110.9862470  71.4033884  48.7311363  98.6869358  83.9165757  42.4130380
  99.5244580  84.3262765  42.1964088  98.8647626  82.9765199  42.3830574
 110.5833790  81.5840837  38.1014213 110.0680413  82.3545442  38.3402601
 110.3111098  80.9105973  38.7247275 108.1680901  76.4290538  43.1599452
 107.3122497  76.0397388  42.9805090 108.5807853  76.5082499  42.2999237
 109.6980048  73.9636881  47.5591012 109.1944843  73.9267016  46.7458817
 109.9910655  74.8729624  47.6187668 105.9422934  74.0475611  46.5657193
 106.8075930  73.8518420  46.2063083 106.0100443  73.8185963  47.4926550
 115.5568064  84.3373192  40.0367387 114.7797507  83.9984351  39.5922549
 116.2359545  84.3425815  39.3622352 110.3720093  79.4567929  39.9273995
 110.0670229  79.7714079  40.7784138 111.3250535  79.5349349  39.9701328
 108.8166525  85.6158153  41.5766949 108.2887887  84.8810912  41.2640186
 108.3154028  86.3932829  41.3306917 113.7959371  83.8107173  46.6933995
 113.1383046  84.5006435  46.7814123 114.5999770  84.2003605  47.0367981
 103.5485253  76.2777819  43.9373560 104.1229005  76.0553000  43.2046753
 104.1356235  76.3466513  44.6902161 112.6064830  82.1651546  44.7437937
 113.1196712  82.7981538  45.2459646 113.2566054  81.5652741  44.3781297
 103.8754840  78.3082280  37.9569445 103.0392152  78.6456967  38.2778720
 103.7359609  78.1731260  37.0196582 105.8507920  73.1519068  42.6648629
 105.1972333  72.8368085  42.0405244 105.8088395  72.5294808  43.3908452
 106.9619125  83.4338363  34.5801922 106.0546187  83.2027616  34.7793071
 107.4590157  82.6375982  34.7675903 109.8687204  92.1435870  37.4998608
 109.1948903  92.4467567  38.1083566 110.2553026  92.9464950  37.1504065
 109.0845661  79.6401001  46.9896277 108.1668222  79.8615948  46.8317965
 109.5005804  79.7147312  46.1307984 109.8680709  81.0392417  42.1198957
 110.6152527  81.5513814  41.8106079 110.1372298  80.7176470  42.9803351
 108.1407359  83.5350958  39.1025912 107.2318578  83.2509991  39.1998381
 108.1702442  83.9550036  38.2429219 113.3726626  87.1457547  42.8717079
 112.9188953  86.3048457  42.9282270 112.7420593  87.7818946  43.2091859
 112.3159546  78.0749533  44.1017747 111.5782302  77.5626920  44.4327989
 112.5686319  77.6349915  43.2901024 111.8159565  88.9834044  43.8066897
 112.1082540  89.5439101  43.0879263 112.3258186  89.2762605  44.5620056
 112.4171173  70.8525785  44.6959516 112.7230050  69.9923149  44.4085431
 113.1423778  71.4443406  44.4958510  98.7095529  81.2556472  43.0841114
  98.5119929  80.6625833  42.3592180  98.1542193  80.9508682  43.8017053
 106.6892253  81.1479578  45.2035707 106.7440863  80.1953415  45.1278184
 105.8783455  81.3039017  45.6877005 107.8383446  85.0759701  36.4413990
 107.4002876  84.3595560  35.9819628 108.5793887  85.3035816  35.8799082
 104.6284613  79.7656638  42.9626086 103.8152478  80.0650809  43.3691278
 105.1243607  79.3712327  43.6800568 106.7793191  89.7614395  44.8960351
 106.7369369  89.9875241  43.9668883 107.6955889  89.5277770  45.0446152
 110.2258824  80.2298463  51.7940980 110.5808212  80.4569936  52.6535446
 110.8730956  80.5616839  51.1718235 115.9556561  83.3516898  42.4990309
 115.8174460  83.5418494  41.5711498 115.5992780  84.1136281  42.9558360
 104.1198687  77.3374994  48.5787321 104.7598067  77.1963753  47.8810284
 103.2876218  77.0509507  48.2025923 115.9825941  85.4193426  47.5101580
 116.4162448  85.3268715  48.3584634 116.6957522  85.3950926  46.8721596
 104.8958991  86.6377424  44.6922313 105.6899590  86.1427744  44.4904888
 104.1850684  86.1095287  44.3290019 109.7153836  89.0195520  49.0434681
 109.7690858  89.5886456  49.8112397 108.8468617  89.1897405  48.6788718
 101.2041755  80.7820506  40.7682066 100.2739343  80.7204961  40.9852028
 101.2999227  80.2596459  39.9718707 101.1227304  77.3075319  43.3560308
 101.3834121  78.2220652  43.2469468 101.9444476  76.8399761  43.5056920
 102.5952229  78.7213076  50.5259132 103.2675283  78.5130438  49.8771781
 101.7682016  78.5235162  50.0864364 116.8441490  85.4617126  50.0434466
 117.0377381  86.3662937  50.2893741 116.7442109  85.0024545  50.8773051
 108.4977801  75.3475017  52.5424793 107.8505716  76.0464966  52.4489269
 109.2678817  75.7811161  52.9101041 111.9056599  85.6123869  55.6175346
 111.7542106  85.3834421  54.7005430 111.8961279  86.5694470  55.6306691
 108.6741936  83.1855782  50.6021613 109.6033996  83.3366941  50.4290580
 108.2532966  83.2739802  49.7470259 107.4730267  87.2106446  48.3720150
 107.3341353  86.8425230  49.2446089 106.6844864  87.7254085  48.2004108
 108.0678419  92.3115543  39.7145687 108.2430175  91.8403586  40.5291310
 107.3811207  92.9381309  39.9426948 109.0235482  86.5888049  45.7608988
 108.6885315  86.5488819  46.6566638 108.5239428  85.9232765  45.2879398
 102.9979726  81.9955679  51.2861569 102.8599524  81.2635918  51.8873108
 103.9084650  81.9064579  51.0045757 111.9594674  83.9344083  36.0346048
 111.3423845  83.2090911  35.9379101 111.4911163  84.6953443  35.6913122
 105.6262027  81.7075638  50.7745249 106.3361646  81.0668830  50.7331867
 105.5831335  81.9588533  51.6971430 113.6148806  88.6442991  53.6951828
 113.5561352  87.9602212  53.0282411 114.0168324  89.3861981  53.2432454
 104.3390961  78.6940856  52.5940888 103.8028318  78.2431594  53.2462485
 103.7507670  78.8286765  51.8511353 102.6339505  95.4604905  46.4885547
 102.8736103  96.0923429  47.1664566 101.7908701  95.1092945  46.7750906
 103.7493220  78.1529507  35.1567352 102.8722686  78.0318308  34.7929599
 104.2250973  77.3615586  34.9046241 113.6166213  86.6082575  51.9265808
 112.7292992  86.2708497  52.0492207 114.1864764  85.8765607  52.1634573
  95.2695360  82.9406667  45.2508859  95.9566400  82.6268397  44.6629875
  95.1143489  83.8448032  44.9776111 100.0730082  77.8296864  49.6793883
  99.9888271  77.2222533  48.9444293  99.2512789  78.3205882  49.6803379
 107.1467366  91.2684028  48.8927051 107.0737538  92.0738999  49.4046356
 106.7044760  91.4675994  48.0675072 106.9357146  90.5055798  42.4029873
 106.1524668  91.0477478  42.4968097 107.6349891  91.0229777  42.8024114
 110.2453796  76.3150427  45.0464078 110.7422496  75.5620390  44.7265148
 109.4740778  76.3514744  44.4807287 118.0983554  82.0190793  46.6882370
 118.0873430  82.9015508  46.3176303 117.2300933  81.6662344  46.4936907
 109.6066050  91.1670862  51.0485210 110.3194022  91.8018327  50.9761111
 109.1156079  91.2634728  50.2325212 111.3283577  85.0722114  42.6202501
 110.3939856  85.1923577  42.4507206 111.5060245  84.1694581  42.3562511
 106.8288765  78.4567810  44.7735763 106.4586552  77.9038851  45.4616668
 107.3247857  77.8525944  44.2210763 114.7156128  80.9139434  43.1552536
 115.1816580  81.7467425  43.0812838 115.1663629  80.4484415  43.8597794
 104.6577963  88.9165305  51.8690781 105.3587423  89.5501788  52.0220175
 104.1873078  89.2580037  51.1086420 112.7832359  87.2583255  40.1538688
 113.0592203  87.1439850  41.0632562 111.9136858  86.8600740  40.1150861
 112.6872791  73.2820021  47.1943437 111.7735871  73.5124248  47.3625644
 113.1165892  73.3658465  48.0457469 112.4579249  81.4709913  49.6943331
 111.8050700  81.7185820  49.0395784 112.8359629  80.6574051  49.3605808
 109.4186423  91.5069606  43.7971501 109.6008818  90.6891262  44.2599254
 110.2419409  91.7237298  43.3596391 109.7528589  90.4337791  41.0586550
 110.2816355  89.9230246  40.4456712 110.0156808  90.1180321  41.9232083
 108.5066822  82.2129724  56.1809368 107.8307459  82.1123853  56.8511743
 109.3294456  82.0568937  56.6445365 100.2545682  88.4501660  48.8021883
 100.8399118  87.7045348  48.9349787 100.0570520  88.7605617  49.6858547
 103.1084337  91.4852908  43.8184326 102.4394712  91.9699035  43.3348366
 102.9697206  91.7322128  44.7327704  94.8463336  81.0207261  47.5226326
  94.8847436  80.4870851  48.3163444  94.3403629  80.4942466  46.9037304
 107.2489605  93.5196651  50.4166984 107.8007913  93.6828273  51.1816069
 107.5895799  94.1101089  49.7447009 102.2254099  75.8671801  51.0188869
 102.2895425  76.7286632  50.6066266 102.1621219  75.2545803  50.2861227
 101.7006371  77.9394934  54.6661903 102.3278410  77.5572011  55.2799427
 100.8434290  77.7209135  55.0317595 112.1000480  88.3457909  56.2715638
 112.6440384  88.9587867  55.7770593 111.5187325  88.9037487  56.7882651
  98.4771914  79.7471363  40.5980258  98.7725355  78.8382041  40.5447311
  97.5759950  79.7259102  40.2761260 110.3857993  91.4678627  47.4030666
 110.2609132  90.6668367  46.8941612 111.0437084  91.9624820  46.9144636
 102.0066161  77.8227359  46.5807806 101.2852747  78.4363327  46.4415280
 102.7959417  78.3585124  46.5024452 112.4492901  89.2687647  49.0310216
 111.5023237  89.1492998  48.9588543 112.7975674  88.3810145  49.1136478
 104.8092474  75.1581786  52.8548458 105.3326876  75.4044082  53.6174767
 104.5904808  75.9901821  52.4351595 100.2059755  77.4285460  40.7219583
  99.8772462  76.5482839  40.5394689 100.5599126  77.3733129  41.6095972
 109.4539334  89.0640363  45.2314568 109.3064297  88.1357070  45.4122139
 110.2792828  89.0860454  44.7471644 103.3201579  77.7158430  41.0895061
 103.6597651  78.2444351  40.3673669 103.7673699  78.0538836  41.8653627
 113.0573456  89.8868922  46.3179441 113.9820004  89.6811783  46.1803892
 112.8888760  89.6385323  47.2268783 106.0145019  76.0995481  50.5398129
 105.6741840  75.3003294  50.9418809 105.3084026  76.3997192  49.9674962
 106.6661491  73.1844793  48.9925452 107.4887561  72.7105271  48.8704342
 106.9099555  73.9635277  49.4924138 105.3069726  76.2133052  39.2888353
 106.0278088  76.5914304  38.7852070 104.6835030  76.9321929  39.3923331
 109.4500849  76.9178201  40.2246686 109.6664463  77.8002839  39.9235514
 108.9694916  76.5264414  39.4952328 104.1900070  79.8763914  46.8017430
 104.0444651  80.1904217  47.6941712 103.7125274  80.4948814  46.2488329
 106.0496453  76.8666462  46.8498320 106.0358022  75.9707555  46.5130618
 106.7668881  76.8737126  47.4836606 107.9022584  77.3003802  48.8951447
 107.6440361  78.2220873  48.8935778 107.3707624  76.9034237  49.5851911
 112.8468772  90.4054589  41.6741533 113.0205650  89.8401012  40.9215385
 113.3397664  91.2055484  41.4921023  98.6645732  82.4169258  49.7405091
  98.1199200  83.1929066  49.8725366  99.5425082  82.7640063  49.5824213
 105.4533349  75.7480842  42.1185890 105.5749260  74.8197488  42.3176777
 105.1635391  75.7619528  41.2064205 108.3224539  73.4335753  45.2552610
 108.3446236  73.4975086  44.3004589 108.7392598  72.5940261  45.4493116
 113.8343945  89.7221354  38.7738431 114.5294849  90.3428046  38.9925746
 114.1767095  88.8716705  39.0490809  99.4511754  81.5439155  52.6335248
  98.7093490  81.6921790  53.2199879  99.1304498  81.8047420  51.7701998
 115.7335368  87.1721059  40.3025762 116.2586692  87.5108332  39.5775082
 115.6457721  86.2368074  40.1188896 107.3955417  91.0855133  52.4315638
 107.7042543  90.8404280  53.3038338 108.1930899  91.2901771  51.9434509
 107.4176029  93.2393042  44.6621015 106.9781019  92.7469421  45.3553872
 108.1684146  92.6966010  44.4213090  99.8968368  89.4304583  44.6645643
 100.7226388  89.1308355  44.2844287  99.5462420  88.6612206  45.1135432
 104.8649901  88.7831052  46.7343317 104.2429910  88.1201757  46.4345544
 105.5354768  88.8092183  46.0516964  98.0976973  87.3490910  45.6234577
  97.2608881  86.9213084  45.4418578  98.0700618  87.5423353  46.5605368
 104.9374428  77.2612840  56.3275823 104.9862584  78.1374962  55.9453592
 105.4796943  76.7190233  55.7547466 115.4229274  87.8053963  55.6076960
 114.6324818  87.7878102  55.0681459 115.1862629  88.3442256  56.3625996
 115.5427149  84.6546429  52.9209688 115.5925154  84.4896437  53.8625211
 115.4341072  83.7873688  52.5307569 104.4263408  87.3334975  40.2101777
 104.5751528  88.0170439  39.5568450 105.2329851  87.3140065  40.7251233
 112.8330911  80.6377357  54.2368995 113.7340774  80.4983822  53.9452993
 112.9078886  80.8031812  55.1767172 107.1673717  78.0144212  53.0822181
 106.2977026  78.3077778  52.8104770 107.4033197  78.5984657  53.8029445
 117.0445346  87.0743371  53.1651710 116.7530154  87.4373351  54.0015171
 116.4317477  86.3610379  52.9865042 115.2932534  82.1975985  51.6331768
 115.7686656  82.3903632  50.8250619 114.3698100  82.2535171  51.3875151
 102.1816041  83.3600152  41.2162846 101.9362083  82.4562482  41.4143056
 102.3511955  83.3617303  40.2742324 109.8712751  74.2323829  50.5987602
 110.3894695  74.9684856  50.2734090 109.5167883  74.5387822  51.4334361
 101.4511688  79.0928510  38.7149007 100.7580933  79.1672865  38.0589043
 101.2063440  78.3288854  39.2370524 110.1225345  70.6524111  46.1188498
 110.4027099  69.9847300  46.7448925 110.9075952  70.8453207  45.6063162
 107.9258813  89.8283105  37.6813525 107.3532780  90.4473292  37.2283996
 108.4991607  90.3782467  38.2153446 113.9934203  79.0741745  49.8660073
 114.9451626  79.1739843  49.8872297 113.8237654  78.2820014  50.3758158
 112.0148583  76.1597329  50.0519474 111.4198515  76.4402341  49.3565963
 111.7298279  76.6491230  50.8236215 111.1456073  90.1120255  38.8122107
 112.0786746  90.0465817  39.0154982 111.0579286  90.9476522  38.3536639
 113.7744090  89.4286126  35.7726054 113.6957721  89.0945989  36.6661812
 114.5953757  89.9207894  35.7717527 116.4722281  82.2947865  48.9802373
 116.4398601  81.3563866  49.1662057 117.0822905  82.3731902  48.2468198
 108.3105612  81.1643918  35.0229577 109.2564717  81.0350126  35.0917995
 107.9319857  80.4258580  35.4999005 116.6216769  79.0858909  49.0260656
 116.1055818  78.3017365  48.8390585 117.5056718  78.7577625  49.1907176
 114.2827496  72.8299924  44.9856469 114.0852317  72.5215012  45.8699801
 114.8927202  73.5561563  45.1154399 108.1944304  85.2161664  56.4830234
 109.1147314  85.3940263  56.6770281 108.1593887  84.2717710  56.3309933
 106.4948529  79.0893894  34.9584462 105.5879984  78.7927007  35.0347176
 106.7724510  78.7923713  34.0918748  97.4126469  80.4100258  45.4083509
  97.0929254  79.5565566  45.1157883  96.8659898  80.6248836  46.1641476
 101.1906377  83.1262699  49.1253015 101.4092387  84.0579807  49.1441049
 101.6032151  82.7670673  49.9107819 108.1110595  73.6330784  41.1128704
 107.3011323  73.2877869  41.4883950 108.7995012  73.3238328  41.7016315
 110.0401143  72.7108831  42.7353000 110.5932182  73.1304284  43.3943023
 110.2771229  71.7844579  42.7775956 106.0634242  78.6995905  58.5155764
 105.9630969  79.6490262  58.4467855 105.8455784  78.3714144  57.6431834
 105.2647314  75.9480830  35.0996441 106.1266478  76.2735728  35.3592259
 105.4497658  75.1612326  34.5869507  97.2814729  84.0303169  47.3776630
  96.5878201  83.6157122  46.8646585  98.0287720  84.0723706  46.7810049
 113.4179950  74.8209356  42.2431664 112.8378619  75.4794160  41.8609717
 113.1515883  73.9986701  41.8319082 111.8683516  74.2214414  44.4452985
 112.3683295  74.3330948  43.6367304 112.5119124  73.9175467  45.0853793
 105.9265512  82.1293043  57.3320826 105.4432594  82.9293404  57.5384715
 106.0126451  82.1400988  56.3788270  99.1951472  83.9621423  45.2542645
  99.1722160  84.0609110  44.3024528  99.5052108  84.8086574  45.5759811
 101.8538850  86.0197578  49.3689260 102.8082103  85.9881520  49.3019191
 101.6551373  85.5588202  50.1839485 102.4438232  84.5898694  51.9360057
 103.2631121  85.0842773  51.9594894 102.7175040  83.6730662  51.9077625
 112.2004828  76.9809447  41.2988013 111.3130683  77.2659097  41.0808207
 112.6158817  76.8203210  40.4515290 115.5519364  77.0055967  45.0142352
 116.3279754  77.4952420  45.2866969 114.8267498  77.4314022  45.4714221
 100.2089079  91.5617198  46.3859457 100.0743546  90.8017599  45.8197455
  99.7921141  92.2858097  45.9188246 111.3448042  86.7454121  35.3936033
 112.0483892  86.9504124  36.0093688 110.6210690  87.3130883  35.6585116
 112.1745852  82.4963982  41.5138303 112.1181053  82.9532534  40.6745935
 112.7274194  81.7354667  41.3361146 115.9850658  78.2853714  42.3388422
 115.7287592  77.8850350  43.1696630 115.3603526  78.9997508  42.2138562
 103.3658204  92.4586515  46.5977900 103.2490589  93.4031947  46.4956590
 102.5450651  92.1560076  46.9863699 113.2534739  87.1836650  37.4434493
 114.0880343  86.7517849  37.2611968 113.0919082  87.0118664  38.3711387
 112.9080631  83.6868764  38.8090832 112.8529435  83.5213035  37.8679276
 112.2826686  84.3944797  38.9653022  97.6973146  78.9236828  52.6352254
  98.3432010  78.4135782  53.1239479  97.4890297  79.6605510  53.2095680
 110.2226538  85.9917676  58.1344395 111.0917698  86.1658328  57.7731030
 109.7433290  86.8112092  58.0120124 106.2176757  73.1876873  38.3876150
 106.2055426  74.1318713  38.5444421 107.1100178  73.0047018  38.0935612
 104.3912719  93.1114777  49.8133828 105.2939965  93.1438387  50.1300323
 104.1650089  92.1815228  49.8280164 106.1466321  91.8645763  46.4743907
 105.1961952  91.8647625  46.3608279 106.4498807  91.1178498  45.9579942
 110.0328876  69.7819649  42.6422087 109.2661272  69.2278136  42.7878770
 110.4439581  69.8541518  43.5036239 102.0370637  76.0704445  56.7327269
 102.9002099  75.7141250  56.9430593 101.4636048  75.7318340  57.4202673
 114.5495536  99.5069206  43.4648085 113.9860401  99.4159143  42.6964373
 114.4347931  98.6869110  43.9450578 112.0959968 101.0020398  46.3032306
 112.8881260 100.6611222  45.8878605 112.3356618 101.1115373  47.2234459
 114.0550722 100.2629311  39.1749684 114.8281598  99.7158298  39.0362560
 114.4076121 101.1273560  39.3864146 115.8935764 101.5905693  52.3816584
 115.6025630 102.4951324  52.2663250 116.5292749 101.6322221  53.0960653
 116.8191971  98.9682542  48.9717943 117.4155544  98.7438564  48.2574906
 116.8766943  98.2267287  49.5743391 116.3917000  96.4221977  36.8068134
 116.6442520  95.9003498  36.0451597 115.4541559  96.2588122  36.9094818
 116.1113288  98.3250083  39.0092509 115.9949547  97.6494986  39.6773594
 116.2215548  97.8382457  38.1924662 118.0950316  92.8150130  37.7100547
 118.2624719  93.6830366  38.0771018 117.9047485  92.9777411  36.7861836
 114.3038131  97.7280905  45.4103082 113.3788627  97.5957120  45.6180774
 114.5522544  98.5075125  45.9073024 118.0739537  95.2707787  38.6947214
 117.9539162  95.7164838  39.5332694 117.3792126  95.6193105  38.1360752
 111.6646942  97.3714179  46.2446871 111.7939323  97.6248658  47.1586283
 110.9844393  97.9641887  45.9251526 116.5810031  98.0224748  54.5616679
 117.3224716  98.5609792  54.2851503 115.8747017  98.6491037  54.7188231
 114.8246229 100.0100968  47.1170978 115.3947586 100.4388237  46.4788462
 115.4154340  99.7283553  47.8155163 116.8691034  96.5852639  40.9880780
 117.5715077  97.0373683  41.4554706 116.5371662  95.9436458  41.6160673
 115.3171395  95.1764396  55.3631989 114.6870056  95.8580677  55.5967386
 115.2107483  95.0647478  54.4185127 110.6116368  94.8436192  46.2897913
 109.8215422  95.0993721  45.8138024 111.1027615  95.6584530  46.3949954
 112.5631113  95.2080771  43.2481390 111.7662276  95.3199465  43.7664886
 112.3356705  95.5467423  42.3822280 108.8954071  95.0966682  48.7212904
 109.1462109  95.9813692  48.9870480 109.4313619  94.9171284  47.9487996
 114.5952138  89.4785162  57.7257240 114.2019083  88.9251360  58.4004884
 115.4118278  89.7895740  58.1163758 111.5614196 100.9169020  41.6370810
 112.0738716 101.7112270  41.7876375 112.2136908 100.2195310  41.5704411
 117.5120099  90.8943041  55.3177497 118.2529812  91.4950194  55.2381959
 117.7438022  90.1520679  54.7595539 112.6561437  96.0799408  53.5955726
 112.5414952  95.1784665  53.8962825 111.8005955  96.3263105  53.2440543
 109.5263112  99.2457674  42.4130380 110.3638334  99.6554683  42.1964088
 109.7041380  98.3057116  42.3830574 116.7816688  89.3767529  46.5657193
 117.6469685  89.1810337  46.2063083 116.8494197  89.1477880  47.4926550
 114.3879007  91.6069737  43.9373560 114.9622759  91.3844918  43.2046753
 114.9749990  91.6758431  44.6902161 114.7148594  93.6374198  37.9569445
 113.8785907  93.9748884  38.2778720 114.5753364  93.5023177  37.0196582
 116.6901675  88.4810986  42.6648629 116.0366087  88.1660003  42.0405244
 116.6482149  87.8586726  43.3908452 109.5489284  96.5848390  43.0841114
 109.3513683  95.9917750  42.3592180 108.9935948  96.2800600  43.8017053
 117.5286007  96.4771496  45.2035707 117.5834617  95.5245332  45.1278184
 116.7177209  96.6330935  45.6877005 115.4678367  95.0948556  42.9626086
 114.6546233  95.3942726  43.3691278 115.9637361  94.7004245  43.6800568
 114.9592442  92.6666911  48.5787321 115.5991821  92.5255670  47.8810284
 114.1269972  92.3801425  48.2025923 115.7352746 101.9669342  44.6922313
 116.5293344 101.4719662  44.4904888 115.0244438 101.4387205  44.3290019
 112.0435509  96.1112423  40.7682066 111.1133097  96.0496879  40.9852028
 112.1392981  95.5888376  39.9718707 111.9621058  92.6367236  43.3560308
 112.2227876  93.5512570  43.2469468 112.7838231  92.1691679  43.5056920
 113.4345984  94.0504994  50.5259132 114.1069037  93.8422356  49.8771781
 112.6075770  93.8527079  50.0864364 113.8373481  97.3247596  51.2861569
 113.6993279  96.5927835  51.8873108 114.7478404  97.2356497  51.0045757
 116.4655782  97.0367556  50.7745249 117.1755400  96.3960748  50.7331867
 116.4225090  97.2880451  51.6971430 115.1784716  94.0232774  52.5940888
 114.6422073  93.5723512  53.2462485 114.5901424  94.1578683  51.8511353
 114.5886975  93.4821425  35.1567352 113.7116441  93.3610226  34.7929599
 115.0644728  92.6907503  34.9046241 106.1089115  98.2698585  45.2508859
 106.7960154  97.9560315  44.6629875 105.9537243  99.1739949  44.9776111
 110.9123837  93.1588781  49.6793883 110.8282026  92.5514451  48.9444293
 110.0906543  93.6497800  49.6803379 117.6682519  93.7859728  44.7735763
 117.2980307  93.2330768  45.4616668 118.1641612  93.1817861  44.2210763
 111.0939436 103.7793578  48.8021883 111.6792873 103.0337266  48.9349787
 110.8964274 104.0897535  49.6858547 105.6857091  96.3499178  47.5226326
 105.7241190  95.8162769  48.3163444 105.1797384  95.8234384  46.9037304
 113.0647853  91.1963719  51.0188869 113.1289180  92.0578550  50.6066266
 113.0014973  90.5837720  50.2861227 112.5400126  93.2686851  54.6661903
 113.1672164  92.8863929  55.2799427 111.6828044  93.0501053  55.0317595
 109.3165668  95.0763280  40.5980258 109.6119109  94.1673959  40.5447311
 108.4153704  95.0551020  40.2761260 112.8459915  93.1519277  46.5807806
 112.1246501  93.7655245  46.4415280 113.6353171  93.6877042  46.5024452
 115.6486229  90.4873703  52.8548458 116.1720631  90.7336000  53.6174767
 115.4298562  91.3193738  52.4351595 111.0453510  92.7577378  40.7219583
 110.7166216  91.8774757  40.5394689 111.3992881  92.7025047  41.6095972
 114.1595333  93.0450348  41.0895061 114.4991406  93.5736269  40.3673669
 114.6067454  93.3830754  41.8653627 116.8538774  91.4287399  50.5398129
 116.5135594  90.6295212  50.9418809 116.1477780  91.7289109  49.9674962
 116.1463480  91.5424969  39.2888353 116.8671843  91.9206222  38.7852070
 115.5228784  92.2613846  39.3923331 115.0293824  95.2055832  46.8017430
 114.8838405  95.5196135  47.6941712 114.5519028  95.8240732  46.2488329
 116.8890207  92.1958380  46.8498320 116.8751776  91.2999473  46.5130618
 117.6062635  92.2029043  47.4836606 109.5039487  97.7461176  49.7405091
 108.9592955  98.5220984  49.8725366 110.3818837  98.0931980  49.5824213
 116.2927103  91.0772760  42.1185890 116.4143015  90.1489406  42.3176777
 116.0029146  91.0911446  41.2064205 110.2905509  96.8731072  52.6335248
 109.5487245  97.0213708  53.2199879 109.9698253  97.1339338  51.7701998
 110.7362122 104.7596501  44.6645643 111.5620142 104.4600273  44.2844287
 110.3856174 103.9904123  45.1135432 108.9370727 102.6782827  45.6234577
 108.1002636 102.2505002  45.4418578 108.9094373 102.8715271  46.5605368
 115.7768183  92.5904757  56.3275823 115.8256338  93.4666880  55.9453592
 116.3190697  92.0482150  55.7547466 118.0067471  93.3436130  53.0822181
 117.1370781  93.6369696  52.8104770 118.2426952  93.9276575  53.8029445
 113.0209795  98.6892070  41.2162846 112.7755837  97.7854400  41.4143056
 113.1905710  98.6909221  40.2742324 112.2905443  94.4220428  38.7149007
 111.5974688  94.4964783  38.0589043 112.0457195  93.6580771  39.2370524
 117.3342283  94.4185812  34.9584462 116.4273739  94.1218925  35.0347176
 117.6118264  94.1215630  34.0918748 108.2520224  95.7392176  45.4083509
 107.9323008  94.8857484  45.1157883 107.7053652  95.9540754  46.1641476
 112.0300131  98.4554617  49.1253015 112.2486141  99.3871724  49.1441049
 112.4425905  98.0962591  49.9107819 116.9027997  94.0287822  58.5155764
 116.8024724  94.9782179  58.4467855 116.6849539  93.7006061  57.6431834
 116.1041068  91.2772747  35.0996441 116.9660232  91.6027646  35.3592259
 116.2891412  90.4904243  34.5869507 108.1208484  99.3595087  47.3776630
 107.4271955  98.9449040  46.8646585 108.8681475  99.4015624  46.7810049
 116.7659267  97.4584961  57.3320826 116.2826348  98.2585321  57.5384715
 116.8520206  97.4692906  56.3788270 110.0345226  99.2913341  45.2542645
 110.0115914  99.3901028  44.3024528 110.3445863 100.1378492  45.5759811
 112.6932604 101.3489496  49.3689260 113.6475858 101.3173438  49.3019191
 112.4945128 100.8880120  50.1839485 113.2831986  99.9190612  51.9360057
 114.1024875 100.4134691  51.9594894 113.5568794  99.0022580  51.9077625
 108.5366901  94.2528746  52.6352254 109.1825764  93.7427700  53.1239479
 108.3284052  94.9897427  53.2095680 117.0570511  88.5168790  38.3876150
 117.0449181  89.4610630  38.5444421 117.9493933  88.3338936  38.0935612
 112.8764392  91.3996363  56.7327269 113.7395853  91.0433168  56.9430593
 112.3029802  91.0610258  57.4202673  48.4370733  -4.1792560  33.2130854
  48.6767332  -3.5474036  33.8909872  47.5939930  -4.5304520  33.4996213
  60.3526765  -0.1328260  30.1893392  59.7891630  -0.2238323  29.4209680
  60.2379160  -0.9528355  30.6695884  57.8991197   1.3622932  33.0277612
  58.6912489   1.0213756  32.6123912  58.1387847   1.4717907  33.9479766
  65.9326324   3.5342708  25.5007857  65.2814303   4.1196788  25.1141870
  66.7270686   4.0648903  25.5602894  59.8581951   0.6231845  25.8994991
  60.6312827   0.0760832  25.7607867  60.2107350   1.4876094  26.1109452
  61.6966993   1.9508227  39.1061890  61.4056859   2.8553858  38.9908557
  62.3323978   1.9924755  39.8205960  62.6223200  -0.6714924  35.6963250
  63.2186772  -0.8958902  34.9820213  62.6798172  -1.4130179  36.2988698
  67.4101589   1.2233140  26.0376841  66.7747422   1.2967766  26.7497746
  67.0798995   1.8126739  25.3595920  61.9144517  -1.3147383  25.7337816
  61.7980775  -1.9902479  26.4018900  62.0246777  -1.8015009  24.9169969
  66.6556878   1.6369643  36.1011684  66.3557601   2.5394682  35.9927491
  66.3107938   1.3701826  36.9532837  60.1069360  -1.9116560  32.1348388
  59.1819856  -2.0440346  32.3426080  60.3553773  -1.1322341  32.6318331
  57.4678171  -2.2683287  32.9692178  57.5970552  -2.0148808  33.8831589
  56.7875622  -1.6755579  32.6496833  61.6377658   8.4013963  29.0682652
  61.5601688   9.3521788  29.1471132  61.0339302   8.0559836  29.7257578
  62.3841260  -1.6172718  41.2861986  63.1255945  -1.0787674  41.0096809
  61.6778246  -0.9906429  41.4433537  68.1825415   1.0857613  33.6386436
  67.5534277   1.2503327  32.9362504  67.7951077   1.4999223  34.4097400
  72.0614646   2.0212051  30.9930800  71.3765685   2.4010952  30.4427833
  72.1458496   2.6307378  31.7262748  63.7353376   0.8232021  30.9036521
  64.1991722   1.1019724  30.1141144  63.4710174  -0.0784534  30.7209612
  60.6277457   0.3703503  33.8416284  61.1978815   0.7990771  33.2033769
  61.2185569   0.0886087  34.5400470  70.4311406   2.5443965  35.7648501
  71.2528850   2.1424153  35.4831182  70.4273809   2.4412200  36.7164616
  64.1968009   2.0928009  37.9209211  64.2612442   2.5548416  38.7567383
  63.4878933   1.4625374  38.0491521  63.9116027   3.7596116  27.7888191
  63.7761702   4.6047652  28.2173039  64.4525840   3.9615394  27.0254125
  57.3645424   1.2771554  28.3616117  57.8769945   2.0714804  28.5121681
  58.0168137   0.5797845  28.2949718  59.1740309   4.3937310  30.4438870
  59.3506937   5.3155275  30.2559854  59.9697143   4.0795730  30.8733250
  65.5384503   4.3819683  41.9188534  65.0948358   3.5956061  41.6009438
  66.2001717   4.5698833  41.2532424  60.2971625   5.9115484  36.4449212
  60.8479050   5.7832548  35.6726206  59.4583101   6.2110373  36.0944105
  67.6365742   4.6622483  39.9469935  67.6184217   5.4831364  39.4550204
  68.5585662   4.5376558  40.1720076  64.0938796   2.1766612  40.7893443
  64.6267132   1.4154900  40.5592751  63.5652877   1.8840264  41.5317598
  55.3294341  -0.3939792  29.1375687  56.1669563   0.0157217  28.9209395
  55.5072609  -1.3340349  29.1075881  65.4591508   1.3052605  28.3012255
  64.9312870   0.5705364  27.9885493  64.9579011   2.0827281  28.0552224
  66.5112187   7.8330322  24.2243914  65.8373886   8.1362019  24.8328872
  66.8978009   8.6359402  23.8749371  64.7832342  -0.7754590  25.8271218
  63.8743561  -1.0595557  25.9243688  64.8127426  -0.3555512  24.9674525
  70.0151609   2.8351999  29.5962386  69.5613937   1.9942909  29.6527576
  69.3845576   3.4713398  29.9337166  68.4584549   4.6728496  30.5312204
  68.7507523   5.2333553  29.8124570  68.9683169   4.9657057  31.2865363
  55.3520512  -3.0549076  29.8086421  55.1544912  -3.6479715  29.0837487
  54.7967176  -3.3596866  30.5262359  64.4808430   0.7654153  23.1659297
  64.0427860   0.0490012  22.7064934  65.2218871   0.9930268  22.6044388
  63.4218174   5.4508847  31.6205657  63.3794353   5.6769693  30.6914189
  64.3380873   5.2172222  31.7691458  61.5383975   2.3271876  31.4167620
  62.3324573   1.8322196  31.2150195  60.8275667   1.7989739  31.0535326
  66.3578819   4.7089972  35.7679988  66.4115841   5.2780908  36.5357703
  65.4893600   4.8791857  35.4034025  68.5481582   1.3018321  42.3420653
  68.3967089   1.0728872  41.4250737  68.5386262   2.2588922  42.3551998
  64.1155251   2.9000898  35.0965457  63.9766336   2.5319682  35.9691395
  63.3269847   3.4148537  34.9249415  64.7103403   8.0009994  26.4390994
  64.8855158   7.5298038  27.2536616  64.0236191   8.6275761  26.6672254
  65.6660466   2.2782501  32.4854295  65.3310298   2.2383271  33.3811945
  65.1664411   1.6127217  32.0124705  70.2573789   4.3337443  40.4197135
  70.1986335   3.6496663  39.7527718  70.6593307   5.0756433  39.9677761
  59.2764488  11.1499357  33.2130854  59.5161086  11.7817881  33.8909872
  58.4333684  10.7987397  33.4996213  70.2591196   2.2977027  38.6511115
  69.3717975   1.9602949  38.7737513  70.8289747   1.5660059  38.8879880
  51.9120343  -1.3698881  31.9754166  52.5991383  -1.6837151  31.3875181
  51.7568472  -0.4657516  31.7021417  63.7892350   6.9578480  35.6172358
  63.7162521   7.7633451  36.1291662  63.3469743   7.1570445  34.7920379
  63.5782129   6.1950250  29.1275179  62.7949651   6.7371930  29.2213404
  64.2774875   6.7124229  29.5269420  66.2491033   6.8565314  37.7730516
  66.9619005   7.4912778  37.7006418  65.7581062   6.9529180  36.9570518
  61.3002947   4.6059757  38.5936087  62.0012406   5.2396240  38.7465481
  60.8298062   4.9474489  37.8331726  69.4257343   2.9477707  26.8783994
  69.7017187   2.8334302  27.7877868  68.5561841   2.5495192  26.8396167
  66.0611407   7.1964058  30.5216808  66.2433801   6.3785714  30.9844560
  66.8844393   7.4131750  30.0841698  66.3953572   6.1232243  27.7831856
  66.9241339   5.6124697  27.1702018  66.6581792   5.8074773  28.6477389
  56.8970665   4.1396112  35.5267190  57.4824102   3.3939800  35.6595094
  56.6995503   4.4500069  36.4103854  59.7509320   7.1747360  30.5429632
  59.0819695   7.6593487  30.0593672  59.6122190   7.4216580  31.4573011
  51.4888320  -3.2898288  34.2471633  51.5272419  -3.8234697  35.0408751
  50.9828612  -3.8163082  33.6282610  63.8914589   9.2091103  37.1412291
  64.4432897   9.3722725  37.9061376  64.2320782   9.7995541  36.4692315
  68.7425463   4.0352361  42.9960945  69.2865367   4.6482319  42.5015900
  68.1612308   4.5931939  43.5127958  67.0282976   7.1573079  34.1275973
  66.9034115   6.3562818  33.6186918  67.6862067   7.6519272  33.6389943
  69.0917884   4.9582099  35.7555523  68.1448220   4.8387450  35.6833850
  69.4400657   4.0704597  35.8381784  66.0964318   4.7534815  31.9559875
  65.9489280   3.8251522  32.1367445  66.9217811   4.7754906  31.4716950
  69.6998439   5.5763374  33.0424748  70.6244987   5.3706235  32.9049199
  69.5313743   5.3279775  33.9514089  69.4893756   6.0949041  28.3986839
  69.6630633   5.5295464  27.6460692  69.9822647   6.8949936  28.2166329
  55.3070715  -1.8936290  36.4650398  54.7624184  -1.1176482  36.5970672
  56.1850065  -1.5465485  36.3069520  70.4768928   5.4115806  25.4983738
  71.1719833   6.0322498  25.7171052  70.8192078   4.5611157  25.7736115
  56.0936737  -2.7666394  39.3580555  55.3518473  -2.6183758  39.9445185
  55.7729482  -2.5058128  38.4947304  72.3760351   2.8615511  27.0271068
  72.9011675   3.2002784  26.3020388  72.2882704   1.9262526  26.8434203
  64.0380400   6.7749585  39.1560945  64.3467526   6.5298731  40.0283645
  64.8355882   6.9796223  38.6679815  64.0601012   8.9287494  31.3866322
  63.6206002   8.4363873  32.0799178  64.8109129   8.3860462  31.1458397
  56.5393351   5.1199035  31.3890950  57.3651371   4.8202807  31.0089593
  56.1887403   4.3506658  31.8380738  61.5074884   4.4725503  33.4588623
  60.8854893   3.8096208  33.1590851  62.1779751   4.4986635  32.7762271
  54.7401956   3.0385362  32.3479883  53.9033864   2.6107536  32.1663884
  54.7125601   3.2317805  33.2850674  72.0654257   3.4948415  42.3322266
  71.2749801   3.4772554  41.7926766  71.8287612   4.0336708  43.0871303
  61.0688391   3.0229427  26.9347084  61.2176511   3.7064891  26.2813756
  61.8754835   3.0034517  27.4496539  73.6870329   2.7637823  39.8897016
  73.3955138   3.1267803  40.7260477  73.0742460   2.0504831  39.7110348
  58.8241024  -0.9505396  27.9408153  58.5787066  -1.8543066  28.1388363
  58.9936939  -0.9488245  26.9987631  64.5683797   5.5177557  24.4058831
  63.9957764   6.1367744  23.9529303  65.1416590   6.0676919  24.9398753
  67.7881056   5.8014707  25.5367413  68.7211730   5.7360269  25.7400289
  67.7004269   6.6370974  25.0781946  70.4169073   5.1180578  22.4971361
  70.3382705   4.7840441  23.3907119  71.2378740   5.6102346  22.4962833
  64.8369288   0.9056116  43.2075541  65.7572297   1.0834715  43.4015587
  64.8018871  -0.0387839  43.0555240  54.0551453  -3.9005290  32.1328815
  53.7354237  -4.7539982  31.8403189  53.5084881  -3.6856712  32.8886783
  57.8331360  -1.1842849  35.8498322  58.0517370  -0.2525741  35.8686356
  58.2457134  -1.5434875  36.6353126  53.9239713  -0.2802379  34.1021937
  53.2303184  -0.6948426  33.5891891  54.6712704  -0.2381842  33.5055356
  55.8376455  -0.3484125  31.9787952  55.8147143  -0.2496438  31.0269835
  56.1477092   0.4981026  32.3005118  58.4963833   1.7092030  36.0934566
  59.4507087   1.6775972  36.0264498  58.2976357   1.2482654  36.9084792
  59.0863215   0.2793146  38.6605364  59.9056104   0.7737225  38.6840201
  59.3600023  -0.6374886  38.6322931  56.8514062   7.2511650  33.1104764
  56.7168530   6.4912050  32.5442762  56.4346124   7.9752549  32.6433553
  67.9873025   2.4348573  22.1181339  68.6908875   2.6398576  22.7338995
  67.2635674   3.0025335  22.3830423  60.0083188   8.1480967  33.3223207
  59.8915572   9.0926399  33.2201897  59.1875634   7.8454528  33.7109006
  69.8959722   2.8731102  24.1679799  70.7305326   2.4412301  23.9857274
  69.7344065   2.7013116  25.0956694  66.8651522   1.6812127  44.8589701
  67.7342681   1.8552780  44.4976336  66.3858273   2.5006544  44.7365431
  61.0337702   8.8009228  36.5379135  61.9364949   8.8332839  36.8545630
  60.8075072   7.8709679  36.5525471  62.7891304   7.5540215  33.1989214
  61.8386935   7.5542077  33.0853586  63.0923790   6.8072950  32.6825248
  78.5243997  13.3900753  34.2634976  79.1622407  13.2707501  33.5598316
  78.4064840  14.3381597  34.3222928  75.3333704  13.3428181  34.1996501
  74.9952215  13.2269246  33.3117036  76.2023472  12.9419347  34.1797507
  71.1920519  15.1963658  30.1893392  70.6285384  15.1053595  29.4209680
  71.0772914  14.3763562  30.6695884  75.8153487  14.4963033  40.1582706
  75.8042127  14.1015831  39.2863210  75.9774126  13.7629106  40.7516478
  68.7384951  16.6914849  33.0277612  69.5306243  16.3505674  32.6123912
  68.9781601  16.8009825  33.9479766  76.7720078  18.8634626  25.5007857
  76.1208058  19.4488706  25.1141870  77.5664441  19.3940821  25.5602894
  70.6975705  15.9523763  25.8994991  71.4706581  15.4052750  25.7607867
  71.0501104  16.8168012  26.1109452  72.5360748  17.2800145  39.1061890
  72.2450614  18.1845776  38.9908557  73.1717732  17.3216673  39.8205960
  73.4616955  14.6576994  35.6963250  74.0580527  14.4333016  34.9820213
  73.5191926  13.9161739  36.2988698  73.0341983  12.1116429  23.5313441
  73.2867504  11.5897950  22.7696904  72.0966542  11.9482574  23.6340125
  78.0785266  11.1152207  31.3388184  78.8648355  10.6971630  30.9878601
  78.3423970  12.0198299  31.5069833  78.2495343  16.5525058  26.0376841
  77.6141176  16.6259684  26.7497746  77.9192750  17.1418656  25.3595920
  83.4793693  11.0527440  32.2421163  84.2118865  10.4826657  32.4758992
  82.7233049  10.6649041  32.6827668  72.7538272  14.0144535  25.7337816
  72.6374530  13.3389438  26.4018900  72.8640532  13.5276909  24.9169969
  75.0969813  13.4754682  29.4384505  74.7328020  12.9485303  30.1497427
  75.9536929  13.0853151  29.2650991  81.0019113   4.7649015  36.7015771
  80.6702438   5.6344425  36.4776986  80.4064727   4.4485299  37.3809802
  74.7375300   8.5044582  24.4345854  74.9049702   9.3724818  24.8016325
  74.5472469   8.6671863  23.5107143  77.4950633  16.9661561  36.1011684
  77.1951356  17.8686599  35.9927491  77.1501692  16.6993744  36.9532837
  70.9463114  13.4175357  32.1348388  70.0213611  13.2851571  32.3426080
  71.1947528  14.1969577  32.6318331  80.8947777   9.4844101  33.7809121
  79.9864654   9.4159509  33.4867882  80.8435372   9.9616046  34.6090947
  74.7164521  10.9602239  25.4192520  74.5964146  11.4059290  26.2578001
  74.0217109  11.3087557  24.8606059  68.3071925  13.0608631  32.9692178
  68.4364307  13.3143110  33.8831589  67.6269377  13.6536339  32.6496833
  72.4771413  23.7305881  29.0682652  72.3995442  24.6813706  29.1471132
  71.8733056  23.3851753  29.7257578  74.9688642  10.9033746  41.7244019
  74.1921976  11.4627666  41.7146883  75.6079205  11.3890529  42.2458889
  82.7609423   7.6860539  35.5586995  82.1183803   7.9793072  34.9126790
  82.2564352   7.5713459  36.3640192  80.4149587  11.4323712  26.2472855
  81.3267443  11.6651099  26.0720552  79.9059234  12.0160757  25.6847933
  73.2235015  13.7119200  41.2861986  73.9649699  14.2504244  41.0096809
  72.5172000  14.3385488  41.4433537  78.6990354  15.8548340  39.8834147
  79.1073710  15.4130751  39.1388779  77.9767616  15.2800968  40.1368340
  75.0521424  10.7920947  37.2567704  75.8982620  11.2160360  37.4002353
  74.9920062  10.1354571  37.9506267  79.0219169  16.4149531  33.6386436
  78.3928031  16.5795245  32.9362504  78.6344831  16.8291140  34.4097400
  82.9008401  17.3503969  30.9930800  82.2159439  17.7302870  30.4427833
  82.9852250  17.9599295  31.7262748  78.2020870   8.4525315  38.9148878
  77.9581802   9.2067376  38.3783153  78.4780800   8.8310663  39.7496125
  80.1559332  14.9963928  37.5926143  80.3676228  15.6395688  36.9160524
  80.1089081  14.1626244  37.1248073  77.7585561   7.6081748  34.4962715
  76.8970040   7.9063002  34.7879453  77.7847996   7.8252147  33.5643748
  74.5747131  16.1523939  30.9036521  75.0385476  16.4311642  30.1141144
  74.3103929  15.2507383  30.7209612  71.4671212  15.6995420  33.8416284
  72.0372569  16.1282689  33.2033769  72.0579324  15.4178005  34.5400470
  73.5116017  12.2747091  27.7126086  74.2140060  12.7268135  28.1800013
  73.1796645  11.6330910  28.3405979  71.9596378  10.8658848  42.0877296
  71.3295039  11.5475129  42.3212692  71.8532466  10.7541929  41.1430434
  67.2541351  10.5330644  33.0143220  66.4640405  10.7888172  32.5383330
  67.7452598  11.3478982  33.1195260  81.2705160  17.8735883  35.7648501
  82.0922604  17.4716070  35.4831182  81.2667563  17.7704117  36.7164616
  69.2056096  10.8975223  29.9726696  68.4087260  11.0093917  30.4910192
  68.9781688  11.2361875  29.1067587  75.0361764  17.4219926  37.9209211
  75.1006196  17.8840334  38.7567383  74.3272688  16.7917291  38.0491521
  65.5379054  10.7861134  35.4458211  65.7887092  11.6708144  35.7115787
  66.0738602  10.6065736  34.6733302  89.3611153  14.2174632  32.1133472
  88.6074862  13.6482030  31.9577477  89.4958695  14.1837296  33.0604107
  74.7509782  19.0888034  27.7888191  74.6155456  19.9339570  28.2173039
  75.2919594  19.2907311  27.0254125  71.2377121   5.1679614  44.4502547
  70.8444067   4.6145812  45.1250191  72.0543262   5.4790192  44.8409064
  68.2039179  16.6063472  28.3616117  68.7163700  17.4006722  28.5121681
  68.8561892  15.9089762  28.2949718  70.0134064  19.7229228  30.4438870
  70.1900692  20.6447193  30.2559854  70.8090897  19.4087647  30.8733250
  74.1545082   6.5837493  42.0422803  74.8954796   7.1844646  41.9627266
  74.3863005   5.8415131  41.4840846  69.2986420  11.7693860  40.3201033
  69.1839935  10.8679117  40.6208132  68.4430938  12.0157557  39.9685849
  76.3778258  19.7111600  41.9188534  75.9342112  18.9247979  41.6009438
  77.0395472  19.8990751  41.2532424  71.1365379  21.2407402  36.4449212
  71.6872804  21.1124465  35.6726206  70.2976855  21.5402291  36.0944105
  78.4759496  19.9914400  39.9469935  78.4577971  20.8123281  39.4550204
  79.3979416  19.8668475  40.1720076  74.9332550  17.5058530  40.7893443
  75.4660887  16.7446818  40.5592751  74.4046631  17.2132182  41.5317598
  66.1688096  14.9352126  29.1375687  67.0063318  15.3449135  28.9209395
  66.3466363  13.9951568  29.1075881  78.0652528  12.6027207  24.8259520
  77.5499151  13.3731811  25.0647907  77.7929836  11.9292343  25.4492581
  75.6499639   7.4476908  29.8844758  74.7941235   7.0583758  29.7050397
  76.0626591   7.5268868  29.0244544  77.1798786   4.9823251  34.2836318
  76.6763581   4.9453386  33.4704123  77.4729392   5.8915994  34.3432975
  73.4241671   5.0661981  33.2902500  74.2894668   4.8704789  32.9308389
  73.4919180   4.8372332  34.2171857  83.0386802  15.3559561  26.7612694
  82.2616245  15.0170721  26.3167856  83.7178283  15.3612185  26.0867659
  77.8538831  10.4754299  26.6519301  77.5488967  10.7900448  27.5029444
  78.8069273  10.5535719  26.6946634  76.2985263  16.6344522  28.3012255
  75.7706624  15.8997282  27.9885493  75.7972766  17.4119199  28.0552224
  81.2778109  14.8293543  33.4179301  80.6201783  15.5192804  33.5059430
  82.0818508  15.2189975  33.7613288  71.0303990   7.2964189  30.6618867
  71.6047742   7.0739370  29.9292060  71.6174973   7.3652883  31.4147468
  80.0883568  13.1837915  31.4683243  80.6015449  13.8167907  31.9704953
  80.7384792  12.5839111  31.1026603  71.3573578   9.3268650  24.6814752
  70.5210890   9.6643336  25.0024027  71.2178347   9.1917629  23.7441889
  73.3326658   4.1705437  29.3893936  72.6791071   3.8554455  28.7650551
  73.2907132   3.5481178  30.1153759  74.4437863  14.4524732  21.3047228
  73.5364925  14.2213986  21.5038377  74.9408895  13.6562352  21.4921210
  77.3505942  23.1622240  24.2243914  76.6767641  23.4653936  24.8328872
  77.7371764  23.9651320  23.8749371  76.5664399  10.6587371  33.7141584
  75.6486960  10.8802318  33.5563272  76.9824542  10.7333681  32.8553291
  77.3499446  12.0578787  28.8444264  78.0971265  12.5700184  28.5351386
  77.6191036  11.7362839  29.7048658  75.6226096  14.5537327  25.8271218
  74.7137316  14.2696360  25.9243688  75.6521180  14.9736406  24.9674525
  80.8545364  18.1643917  29.5962386  80.4007691  17.3234827  29.6527576
  80.2239331  18.8005315  29.9337166  79.7978283   9.0935903  30.8263053
  79.0601040   8.5813289  31.1573296  80.0505057   8.6536284  30.0146330
  79.2978303  20.0020414  30.5312204  79.5901278  20.5625471  29.8124570
  79.8076924  20.2948975  31.2865363  66.1914267  12.2742841  29.8086421
  65.9938667  11.6812202  29.0837487  65.6360931  11.9695052  30.5262359
  74.1710991  12.1665948  31.9281014  74.2259600  11.2139784  31.8523490
  73.3602193  12.3225387  32.4122312  75.3202184  16.0946071  23.1659297
  74.8821614  15.3781930  22.7064934  76.0612625  16.3222186  22.6044388
  72.1103350  10.7843008  29.6871393  71.2971216  11.0837178  30.0936585
  72.6062345  10.3898696  30.4045875  74.2611928  20.7800765  31.6205657
  74.2188107  21.0061611  30.6914189  75.1774627  20.5464139  31.7691458
  77.7077562  11.2484832  38.5186286  78.0626950  11.4756305  39.3780752
  78.3549693  11.5803209  37.8963542  83.4375299  14.3703268  29.2235615
  83.2993198  14.5604864  28.2956805  83.0811518  15.1322651  29.6803667
  71.6017425   8.3561363  35.3032627  72.2416805   8.2150122  34.6055591
  70.7694956   8.0695877  34.9271229  83.4644679  16.4379795  34.2346887
  83.8981185  16.3455084  35.0829941  84.1776259  16.4137296  33.5966903
  72.3777729  17.6563794  31.4167620  73.1718328  17.1614114  31.2150195
  71.6669421  17.1281657  31.0535326  77.1972574  20.0381889  35.7679988
  77.2509596  20.6072826  36.5357703  76.3287355  20.2083774  35.4034025
  68.6860493  11.8006875  27.4927373  67.7558081  11.7391331  27.7097335
  68.7817965  11.2782828  26.6964014  68.6046042   8.3261688  30.0805614
  68.8652859   9.2407021  29.9714775  69.4263214   7.8586131  30.2302227
  70.0770967   9.7399445  37.2504439  70.7494020   9.5316808  36.6017088
  69.2500753   9.5421531  36.8109671  84.3260228  16.4803496  36.7679772
  84.5196118  17.3849306  37.0139047  84.2260846  16.0210915  37.6018357
  75.9796539   6.3661386  39.2670100  75.3324454   7.0651336  39.1734576
  76.7497554   6.7997530  39.6346348  79.3875337  16.6310238  42.3420653
  79.2360843  16.4020790  41.4250737  79.3780016  17.5880840  42.3551998
  76.1560673  14.2042151  37.3266919  77.0852733  14.3553311  37.1535887
  75.7351703  14.2926172  36.4715566  74.9549005  18.2292816  35.0965457
  74.8160091  17.8611600  35.9691395  74.1663601  18.7440455  34.9249415
  75.5497157  23.3301912  26.4390994  75.7248913  22.8589955  27.2536616
  74.8629945  23.9567678  26.6672254  76.5054220  17.6074418  32.4854295
  76.1704053  17.5675188  33.3811945  76.0058166  16.9419134  32.0124705
  70.4798464  13.0142048  38.0106876  70.3418262  12.2822287  38.6118415
  71.3903388  12.9250948  37.7291064  79.4413412  14.9530453  22.7591354
  78.8242583  14.2277281  22.6624407  78.9729900  15.7139813  22.4158429
  73.1080765  12.7262008  37.4990556  73.8180383  12.0855200  37.4577174
  73.0650073  12.9774903  38.4216736  81.0967544  19.6629361  40.4197135
  81.0380090  18.9788581  39.7527718  81.4987062  20.4048351  39.9677761
  71.8209699   9.7127226  39.3186195  71.2847056   9.2617964  39.9707791
  71.2326407   9.8473134  38.5756659  70.1158242  26.4791275  33.2130854
  70.3554841  27.1109799  33.8909872  69.2727439  26.1279315  33.4996213
  71.2311958   9.1715877  21.8812659  70.3541424   9.0504678  21.5174905
  71.7069711   8.3801955  21.6291547  81.0984951  17.6268945  38.6511115
  80.2111730  17.2894867  38.7737513  81.6683502  16.8951976  38.8879880
  62.7514098  13.9593037  31.9754166  63.4385138  13.6454767  31.3875181
  62.5962227  14.8634401  31.7021417  67.5548820   8.8483233  36.4039190
  67.4707009   8.2408903  35.6689600  66.7331526   9.3392252  36.4048686
  74.6286104  22.2870397  35.6172358  74.5556276  23.0925369  36.1291662
  74.1863497  22.4862363  34.7920379  74.4175884  21.5242167  29.1275179
  73.6343406  22.0663848  29.2213404  75.1168629  22.0416147  29.5269420
  77.7272534   7.3336797  31.7709385  78.2241233   6.5806759  31.4510455
  76.9559515   7.3701113  31.2052594  85.5802291  13.0377162  33.4127676
  85.5692168  13.9201878  33.0421609  84.7119671  12.6848713  33.2182213
  77.0884788  22.1857231  37.7730516  77.8012760  22.8204696  37.7006418
  76.5974816  22.2821097  36.9570518  78.8102315  16.0908484  29.3447808
  77.8758593  16.2109946  29.1752512  78.9878983  15.1880951  29.0807818
  74.3107503   9.4754180  31.4981069  73.9405290   8.9225220  32.1861975
  74.8066595   8.8712313  30.9456069  82.1974866  11.9325803  29.8797842
  82.6635318  12.7653795  29.8058145  82.6482366  11.4670785  30.5843101
  72.1396701  19.9351675  38.5936087  72.8406161  20.5688158  38.7465481
  71.6691816  20.2766406  37.8331726  80.2651097  18.2769625  26.8783994
  80.5410941  18.1626219  27.7877868  79.3955596  17.8787109  26.8396167
  79.9397987  12.4896282  36.4188638  79.2869437  12.7372190  35.7641090
  80.3178367  11.6760420  36.0851115  76.9005161  22.5255975  30.5216808
  77.0827556  21.7077631  30.9844560  77.7238147  22.7423668  30.0841698
  77.2347327  21.4524161  27.7831856  77.7635093  20.9416615  27.1702018
  77.4975546  21.1366691  28.6477389  75.9885560  13.2316093  42.9054675
  75.3126197  13.1310223  43.5757050  76.8113194  13.0755307  43.3690672
  67.7364419  19.4688030  35.5267190  68.3217856  18.7231718  35.6595094
  67.5389258  19.7791987  36.4103854  70.5903075  22.5039277  30.5429632
  69.9213450  22.9885405  30.0593672  70.4515944  22.7508498  31.4573011
  62.3282074  12.0393630  34.2471633  62.3666174  11.5057221  35.0408751
  61.8222367  11.5128836  33.6282610  74.7308343  24.5383021  37.1412291
  75.2826651  24.7014642  37.9061376  75.0714537  25.1287459  36.4692315
  69.7072836   6.8858171  37.7434175  69.7714163   7.7473001  37.3311573
  69.6439957   6.2732172  37.0106534  69.1825109   8.9581303  41.3907210
  69.8097148   8.5758380  42.0044734  68.3253028   8.7395505  41.7562902
  79.5819217  19.3644278  42.9960945  80.1259121  19.9774237  42.5015900
  79.0006062  19.9223857  43.5127958  65.9590652  10.7657732  27.3225564
  66.2544093   9.8568411  27.2692618  65.0578687  10.7445472  27.0006567
  77.8676730  22.4864996  34.1275973  77.7427870  21.6854736  33.6186918
  78.5255822  22.9811190  33.6389943  69.4884899   8.8413729  33.3053113
  68.7671484   9.4549697  33.1660586  70.2778154   9.3771494  33.2269759
  79.9311639  20.2874016  35.7555523  78.9841974  20.1679368  35.6833850
  80.2794412  19.3996514  35.8381784  72.2911212   6.1768155  39.5793765
  72.8145614   6.4230452  40.3420074  72.0723545   7.0088190  39.1596902
  67.6878493   8.4471830  27.4464890  67.3591199   7.5669209  27.2639995
  68.0417864   8.3919499  28.3341279  76.9358072  20.0826733  31.9559875
  76.7883035  19.1543440  32.1367445  77.7611566  20.1046823  31.4716950
  70.8020316   8.7344800  27.8140367  71.1416389   9.2630721  27.0918976
  71.2492437   9.0725206  28.5898934  80.5392194  20.9055291  33.0424748
  81.4638741  20.6998153  32.9049199  80.3707497  20.6571692  33.9514089
  73.4963757   7.1181850  37.2643435  73.1560578   6.3189663  37.6664115
  72.7902763   7.4183561  36.6920268  74.1480229   4.2031163  35.7170758
  74.9706298   3.7291641  35.5949649  74.3918293   4.9821647  36.2169445
  72.7888464   7.2319421  26.0133660  73.5096826   7.6100674  25.5097377
  72.1653768   7.9508298  26.1168638  76.9319586   7.9364570  26.9491992
  77.1483201   8.8189208  26.6480820  76.4513654   7.5450784  26.2197634
  71.6718808  10.8950283  33.5262737  71.5263389  11.2090587  34.4187018
  71.1944011  11.5135184  32.9733636  73.5315191   7.8852831  33.5743626
  73.5176759   6.9893925  33.2375924  74.2487619   7.8923495  34.2081913
  75.3841321   8.3190172  35.6196754  75.1259099   9.2407242  35.6181084
  74.8526362   7.9220606  36.3097218  80.3287510  21.4240959  28.3986839
  80.5024388  20.8587381  27.6460692  80.8216401  22.2241854  28.2166329
  66.1464470  13.4355628  36.4650398  65.6017938  14.2115436  36.5970672
  67.0243820  13.7826432  36.3069520  72.9352087   6.7667212  28.8431197
  73.0567998   5.8383858  29.0422084  72.6454129   6.7805898  27.9309512
  75.8043277   4.4522122  31.9797916  75.8264974   4.5161455  31.0249896
  76.2211336   3.6126631  32.1738423  86.1826901  14.1877382  30.0177139
  86.6258047  13.4384707  29.6196262  85.3053412  14.1787518  29.6350871
  81.3162683  20.7407723  25.4983738  82.0113587  21.3614416  25.7171052
  81.6585833  19.8903074  25.7736115  66.9330492  12.5625524  39.3580555
  66.1912228  12.7108159  39.9445185  66.6123236  12.8233790  38.4947304
  83.2154106  18.1907429  27.0271068  83.7405430  18.5294701  26.3020388
  83.1276458  17.2554444  26.8434203  74.8774154  22.1041502  39.1560945
  75.1861281  21.8590649  40.0283645  75.6749636  22.3088141  38.6679815
  74.8994767  24.2579412  31.3866322  74.4599757  23.7655791  32.0799178
  75.6502883  23.7152380  31.1458397  67.3787105  20.4490953  31.3890950
  68.2045125  20.1494725  31.0089593  67.0281157  19.6798575  31.8380738
  72.3468639  19.8017421  33.4588623  71.7248648  19.1388126  33.1590851
  73.0173506  19.8278553  32.7762271  65.5795711  18.3677279  32.3479883
  64.7427619  17.9399454  32.1663884  65.5519356  18.5609723  33.2850674
  72.4193166   8.2799209  43.0521129  72.4681322   9.1561332  42.6698899
  72.9615680   7.7376602  42.4792772  82.9048012  18.8240332  42.3322266
  82.1143556  18.8064471  41.7926766  82.6681366  19.3628626  43.0871303
  83.0245887  15.6732799  39.6454995  83.0743892  15.5082806  40.5870518
  82.9159810  14.8060058  39.2552876  71.9082146  18.3521344  26.9347084
  72.0570266  19.0356809  26.2813756  72.7148589  18.3326434  27.4496539
  80.3149649  11.6563727  40.9614302  81.2159512  11.5170192  40.6698299
  80.3897624  11.8218182  41.9012479  74.6492455   9.0330582  39.8067488
  73.7795764   9.3264148  39.5350076  74.8851935   9.6171027  40.5274752
  84.5264084  18.0929740  39.8897016  84.2348892  18.4559721  40.7260477
  83.9136215  17.3796749  39.7110348  85.7259766  15.6582620  32.4099587
  86.5606657  16.0972424  32.5737147  85.8618895  15.1821273  31.5907832
  82.7751272  13.2162355  38.3577074  83.2505394  13.4090001  37.5495926
  81.8516837  13.2721541  38.1120458  69.6634779  14.3786522  27.9408153
  69.4180820  13.4748852  28.1388363  69.8330693  14.3803673  26.9987631
  77.3531488   5.2510198  37.3232908  77.8713432   5.9871225  36.9979397
  76.9986621   5.5574192  38.1579667  68.9330426  10.1114880  25.4394314
  68.2399671  10.1859235  24.7834350  68.6882178   9.3475223  25.9615831
  75.4077551  20.8469475  24.4058831  74.8351518  21.4659662  23.9529303
  75.9810345  21.3968837  24.9398753  81.4752941  10.0928115  36.5905380
  82.4270364  10.1926213  36.6117604  81.3056391   9.3006384  37.1003464
  79.4967320   7.1783698  36.7764781  78.9017253   7.4588711  36.0811270
  79.2117017   7.6677599  37.5481522  78.6274811  21.1306625  25.5367413
  79.5605484  21.0652187  25.7400289  78.5398024  21.9662892  25.0781946
  81.2562828  20.4472495  22.4971361  81.1776459  20.1132359  23.3907119
  82.0772494  20.9394263  22.4962833  83.9541019  13.3134235  35.7047680
  83.9217339  12.3750235  35.8907363  84.5641642  13.3918271  34.9713505
  75.7924350  12.1830288  21.7474884  76.7383454  12.0536496  21.8163302
  75.4138595  11.4444950  22.2244312  84.1035507  10.1045278  35.7505963
  83.5874556   9.3203735  35.5635892  84.9875456   9.7763995  35.9152482
  89.7717569  14.3750241  34.8453716  90.5020957  14.1135530  35.4061420
  89.1624514  13.6378963  34.8855784  87.8532866  12.5158104  35.4428168
  87.1266029  12.3814069  34.8344659  87.4380153  12.8234933  36.2484886
  75.6763042  16.2348034  43.2075541  76.5966052  16.4126633  43.4015587
  75.6412625  15.2904079  43.0555240  73.9767267  10.1080264  21.6829769
  73.0698722   9.8113377  21.7592482  74.2543248   9.8110082  20.8164055
  64.8945207  11.4286627  32.1328815  64.5747991  10.5751936  31.8403189
  64.3478635  11.6435206  32.8886783  68.6725115  14.1449068  35.8498322
  68.8911124  15.0766176  35.8686356  69.0850888  13.7857043  36.6353126
  75.5929332   4.6517154  27.8374010  74.7830061   4.3064239  28.2129256
  76.2813749   4.3424697  28.4261622  73.5452980   9.7182274  45.2401071
  73.4449707  10.6676631  45.1713162  73.3274522   9.3900513  44.3677141
  72.7466051   6.9667199  21.8241748  73.6085215   7.2922098  22.0837565
  72.9316396   6.1798695  21.3114814  64.7633467  15.0489539  34.1021937
  64.0696939  14.6343492  33.5891891  65.5106458  15.0910075  33.5055356
  80.8998688   5.8395726  28.9676971  80.3197357   6.4980530  28.5855023
  80.6334621   5.0173070  28.5564389  79.3502254   5.2400783  31.1698291
  79.8502033   5.3517318  30.3612610  79.9937862   4.9361836  31.8099100
  73.4084250  13.1479413  44.0566132  72.9251332  13.9479773  44.2630021
  73.4945189  13.1587358  43.1033576  66.6770210  14.9807793  31.9787952
  66.6540898  15.0795480  31.0269835  66.9870846  15.8272943  32.3005118
  69.3357588  17.0383948  36.0934566  70.2900841  17.0067890  36.0264498
  69.1370111  16.5774571  36.9084792  69.9256970  15.6085064  38.6605364
  70.7449859  16.1029142  38.6840201  70.1993777  14.6917032  38.6322931
  79.6823566   7.9995816  28.0233319  78.7949421   8.2845467  27.8053514
  80.0977555   7.8389579  27.1760596  83.0338102   8.0242337  31.7387659
  83.8098492   8.5138789  32.0112275  82.3086236   8.4500391  32.1959528
  85.4710661   8.7369956  32.7961599  86.0655151   8.4965692  32.0854907
  85.5437244   8.0177087  33.4235136  67.6907816  22.5803567  33.1104764
  67.5562284  21.8203968  32.5442762  67.2739879  23.3044467  32.6433553
  78.8266779  17.7640491  22.1181339  79.5302629  17.9690493  22.7338995
  78.1029428  18.3317253  22.3830423  79.6564590  13.5150352  28.2383609
  79.5999791  13.9718903  27.3991242  80.2092932  12.7541037  28.0606452
  83.4669396   9.3040084  29.0633729  83.2106330   8.9036720  29.8941937
  82.8422264  10.0183878  28.9383868  87.7781733  12.0436157  31.5705020
  87.2181291  12.1129346  32.3436582  87.1725237  11.8677142  30.8504517
  70.8476942  23.4772884  33.3223207  70.7309326  24.4218317  33.2201897
  70.0269388  23.1746446  33.7109006  80.7353477  18.2023020  24.1679799
  81.5699081  17.7704218  23.9857274  80.5737820  18.0305034  25.0956694
  80.3899369  14.7055133  25.5336139  80.3348173  14.5399405  24.5924583
  79.7645424  15.4131166  25.6898328  65.1791884   9.9423198  39.3597561
  65.8250748   9.4322152  39.8484786  64.9709035  10.6791879  39.9340986
  77.7045276  17.0104045  44.8589701  78.5736436  17.1844697  44.4976336
  77.2252028  17.8298462  44.7365431  73.6995494   4.2063242  25.1121457
  73.6874164   5.1505082  25.2689728  74.5918916   4.0233388  24.8180918
  71.8731456  24.1301146  36.5379135  72.7758703  24.1624756  36.8545630
  71.6468826  23.2001597  36.5525471  73.6285058  22.8832133  33.1989214
  72.6780689  22.8833994  33.0853586  73.9317544  22.1364867  32.6825248
  69.5189375   7.0890815  43.4572575  70.3820836   6.7327620  43.6675900
  68.9454786   6.7504710  44.1447979  89.3637752  28.7192671  34.2634976
  90.0016162  28.5999418  33.5598316  89.2458595  29.6673515  34.3222928
  86.1727458  28.6720099  34.1996501  85.8345970  28.5561164  33.3117036
  87.0417226  28.2711264  34.1797507  82.0314274  30.5255576  30.1893392
  81.4679139  30.4345513  29.4209680  81.9166669  29.7055480  30.6695884
  86.6547241  29.8254951  40.1582706  86.6435882  29.4307749  39.2863210
  86.8167881  29.0921023  40.7516478  79.5778706  32.0206767  33.0277612
  80.3699998  31.6797592  32.6123912  79.8175356  32.1301742  33.9479766
  87.6113833  34.1926543  25.5007857  86.9601812  34.7780624  25.1141870
  88.4058195  34.7232738  25.5602894  81.5369460  31.2815680  25.8994991
  82.3100336  30.7344668  25.7607867  81.8894859  32.1459930  26.1109452
  83.3754502  32.6092063  39.1061890  83.0844368  33.5137694  38.9908557
  84.0111487  32.6508590  39.8205960  84.3010709  29.9868911  35.6963250
  84.8974281  29.7624934  34.9820213  84.3585681  29.2453657  36.2988698
  83.8735738  27.4408347  23.5313441  84.1261258  26.9189868  22.7696904
  82.9360297  27.2774492  23.6340125  88.9179020  26.4444125  31.3388184
  89.7042110  26.0263548  30.9878601  89.1817725  27.3490217  31.5069833
  89.0889098  31.8816975  26.0376841  88.4534931  31.9551602  26.7497746
  88.7586504  32.4710574  25.3595920  94.3187447  26.3819358  32.2421163
  95.0512619  25.8118575  32.4758992  93.5626803  25.9940959  32.6827668
  83.5932026  29.3436452  25.7337816  83.4768284  28.6681356  26.4018900
  83.7034286  28.8568826  24.9169969  85.9363567  28.8046600  29.4384505
  85.5721774  28.2777221  30.1497427  86.7930683  28.4145069  29.2650991
  91.8412868  20.0940932  36.7015771  91.5096193  20.9636343  36.4776986
  91.2458481  19.7777216  37.3809802  85.5769054  23.8336499  24.4345854
  85.7443456  24.7016736  24.8016325  85.3866223  23.9963781  23.5107143
  88.3344387  32.2953478  36.1011684  88.0345110  33.1978517  35.9927491
  87.9895447  32.0285661  36.9532837  81.7856869  28.7467275  32.1348388
  80.8607365  28.6143489  32.3426080  82.0341282  29.5261494  32.6318331
  91.7341531  24.8136018  33.7809121  90.8258408  24.7451427  33.4867882
  91.6829127  25.2907963  34.6090947  85.5558275  26.2894157  25.4192520
  85.4357900  26.7351208  26.2578001  84.8610863  26.6379474  24.8606059
  79.1465680  28.3900549  32.9692178  79.2758061  28.6435028  33.8831589
  78.4663131  28.9828257  32.6496833  83.3165167  39.0597799  29.0682652
  83.2389197  40.0105624  29.1471132  82.7126811  38.7143671  29.7257578
  85.8082397  26.2325664  41.7244019  85.0315731  26.7919584  41.7146883
  86.4472960  26.7182447  42.2458889  93.6003178  23.0152457  35.5586995
  92.9577558  23.3084990  34.9126790  93.0958106  22.9005377  36.3640192
  91.2543341  26.7615630  26.2472855  92.1661197  26.9943017  26.0720552
  90.7452988  27.3452674  25.6847933  84.0628769  29.0411117  41.2861986
  84.8043454  29.5796161  41.0096809  83.3565755  29.6677406  41.4433537
  89.5384109  31.1840258  39.8834147  89.9467465  30.7422668  39.1388779
  88.8161370  30.6092885  40.1368340  85.8915179  26.1212865  37.2567704
  86.7376374  26.5452278  37.4002353  85.8313817  25.4646489  37.9506267
  89.8612923  31.7441448  33.6386436  89.2321786  31.9087163  32.9362504
  89.4738586  32.1583058  34.4097400  93.7402155  32.6795886  30.9930800
  93.0553194  33.0594788  30.4427833  93.8246005  33.2891213  31.7262748
  89.0414624  23.7817233  38.9148878  88.7975556  24.5359293  38.3783153
  89.3174555  24.1602581  39.7496125  90.9953087  30.3255845  37.5926143
  91.2069982  30.9687605  36.9160524  90.9482835  29.4918162  37.1248073
  88.5979316  22.9373666  34.4962715  87.7363795  23.2354920  34.7879453
  88.6241751  23.1544065  33.5643748  85.4140885  31.4815857  30.9036521
  85.8779231  31.7603560  30.1141144  85.1497683  30.5799301  30.7209612
  82.3064966  31.0287338  33.8416284  82.8766323  31.4574606  33.2033769
  82.8973078  30.7469923  34.5400470  84.3509771  27.6039009  27.7126086
  85.0533815  28.0560053  28.1800013  84.0190400  26.9622828  28.3405979
  82.7990133  26.1950766  42.0877296  82.1688794  26.8767046  42.3212692
  82.6926221  26.0833847  41.1430434  78.0935105  25.8622562  33.0143220
  77.3034159  26.1180090  32.5383330  78.5846353  26.6770899  33.1195260
  92.1098915  33.2027801  35.7648501  92.9316359  32.8007988  35.4831182
  92.1061318  33.0996035  36.7164616  80.0449851  26.2267141  29.9726696
  79.2481014  26.3385835  30.4910192  79.8175443  26.5653793  29.1067587
  85.8755518  32.7511844  37.9209211  85.9399951  33.2132251  38.7567383
  85.1666442  32.1209209  38.0491521  76.3772808  26.1153052  35.4458211
  76.6280847  27.0000062  35.7115787  76.9132357  25.9357654  34.6733302
 100.2004908  29.5466549  32.1133472  99.4468616  28.9773947  31.9577477
 100.3352449  29.5129214  33.0604107  85.5903536  34.4179952  27.7888191
  85.4549211  35.2631487  28.2173039  86.1313349  34.6199229  27.0254125
  82.0770876  20.4971531  44.4502547  81.6837821  19.9437730  45.1250191
  82.8937016  20.8082110  44.8409064  79.0432933  31.9355390  28.3616117
  79.5557454  32.7298640  28.5121681  79.6955646  31.2381680  28.2949718
  80.8527818  35.0521146  30.4438870  81.0294446  35.9739111  30.2559854
  81.6484652  34.7379565  30.8733250  84.9938837  21.9129410  42.0422803
  85.7348550  22.5136564  41.9627266  85.2256759  21.1707048  41.4840846
  80.1380175  27.0985778  40.3201033  80.0233690  26.1971035  40.6208132
  79.2824692  27.3449474  39.9685849  87.2172012  35.0403518  41.9188534
  86.7735867  34.2539897  41.6009438  87.8789226  35.2282669  41.2532424
  81.9759134  36.5699320  36.4449212  82.5266559  36.4416383  35.6726206
  81.1370609  36.8694209  36.0944105  89.3153250  35.3206318  39.9469935
  89.2971726  36.1415199  39.4550204  90.2373171  35.1960393  40.1720076
  85.7726305  32.8350447  40.7893443  86.3054641  32.0738736  40.5592751
  85.2440386  32.5424099  41.5317598  88.9396000  17.9410513  36.3187085
  88.5960269  18.8312155  36.2426196  89.3074962  17.7512171  35.4556670
  77.0081850  30.2644044  29.1375687  77.8457072  30.6741052  28.9209395
  77.1860118  29.3243486  29.1075881  88.9046282  27.9319124  24.8259520
  88.3892906  28.7023729  25.0647907  88.6323591  27.2584261  25.4492581
  86.4893393  22.7768825  29.8844758  85.6334990  22.3875676  29.7050397
  86.9020345  22.8560786  29.0244544  88.0192540  20.3115169  34.2836318
  87.5157336  20.2745304  33.4704123  88.3123147  21.2207911  34.3432975
  84.2635426  20.3953898  33.2902500  85.1288423  20.1996707  32.9308389
  84.3312935  20.1664250  34.2171857  93.8780556  30.6851479  26.7612694
  93.1009999  30.3462639  26.3167856  94.5572037  30.6904102  26.0867659
  88.6932585  25.8046217  26.6519301  88.3882721  26.1192366  27.5029444
  89.6463028  25.8827636  26.6946634  87.1379017  31.9636440  28.3012255
  86.6100379  31.2289199  27.9885493  86.6366520  32.7411116  28.0552224
  92.1171863  30.1585460  33.4179301  91.4595538  30.8484722  33.5059430
  92.9212263  30.5481892  33.7613288  81.8697745  22.6256106  30.6618867
  82.4441497  22.4031288  29.9292060  82.4568727  22.6944801  31.4147468
  90.9277322  28.5129833  31.4683243  91.4409204  29.1459825  31.9704953
  91.5778546  27.9131029  31.1026603  82.1967332  24.6560567  24.6814752
  81.3604644  24.9935254  25.0024027  82.0572102  24.5209547  23.7441889
  84.1720413  19.4997355  29.3893936  83.5184825  19.1846372  28.7650551
  84.1300887  18.8773096  30.1153759  85.2831618  29.7816650  21.3047228
  84.3758679  29.5505904  21.5038377  85.7802650  28.9854269  21.4921210
  88.1899696  38.4914157  24.2243914  87.5161395  38.7945854  24.8328872
  88.5765518  39.2943238  23.8749371  87.4058153  25.9879289  33.7141584
  86.4880714  26.2094236  33.5563272  87.8218297  26.0625599  32.8553291
  88.1893201  27.3870704  28.8444264  88.9365020  27.8992102  28.5351386
  88.4584790  27.0654757  29.7048658  86.4619851  29.8829245  25.8271218
  85.5531070  29.5988278  25.9243688  86.4914935  30.3028324  24.9674525
  91.6939118  33.4935835  29.5962386  91.2401445  32.6526744  29.6527576
  91.0633085  34.1297233  29.9337166  90.6372038  24.4227821  30.8263053
  89.8994795  23.9105207  31.1573296  90.8898811  23.9828202  30.0146330
  90.1372058  35.3312331  30.5312204  90.4295032  35.8917388  29.8124570
  90.6470678  35.6240892  31.2865363  90.7383665  17.2004073  31.4204823
  91.0442542  16.3401436  31.1330738  91.4636270  17.7921693  31.2203817
  77.0308021  27.6034759  29.8086421  76.8332421  27.0104120  29.0837487
  76.4754685  27.2986969  30.5262359  85.0104745  27.4957866  31.9281014
  85.0653355  26.5431702  31.8523490  84.1995947  27.6517305  32.4122312
  86.1595939  31.4237989  23.1659297  85.7215369  30.7073848  22.7064934
  86.9006380  31.6514104  22.6044388  82.9497105  26.1134925  29.6871393
  82.1364970  26.4129096  30.0936585  83.4456099  25.7190614  30.4045875
  85.1005683  36.1092682  31.6205657  85.0581862  36.3353529  30.6914189
  86.0168382  35.8756057  31.7691458  88.5471317  26.5776750  38.5186286
  88.9020704  26.8048223  39.3780752  89.1943448  26.9095127  37.8963542
  94.2769054  29.6995186  29.2235615  94.1386952  29.8896782  28.2956805
  93.9205272  30.4614569  29.6803667  82.4411180  23.6853281  35.3032627
  83.0810559  23.5442040  34.6055591  81.6088710  23.3987794  34.9271229
  94.3038433  31.7671713  34.2346887  94.7374940  31.6747002  35.0829941
  95.0170014  31.7429213  33.5966903  83.2171484  32.9855711  31.4167620
  84.0112082  32.4906031  31.2150195  82.5063176  32.4573574  31.0535326
  88.0366328  35.3673807  35.7679988  88.0903350  35.9364743  36.5357703
  87.1681109  35.5375692  35.4034025  79.5254247  27.1298793  27.4927373
  78.5951835  27.0683249  27.7097335  79.6211719  26.6074746  26.6964014
  79.4439796  23.6553606  30.0805614  79.7046613  24.5698939  29.9714775
  80.2656968  23.1878048  30.2302227  80.9164721  25.0691363  37.2504439
  81.5887775  24.8608725  36.6017088  80.0894508  24.8713449  36.8109671
  95.1653983  31.8095413  36.7679772  95.3589873  32.7141224  37.0139047
  95.0654601  31.3502832  37.6018357  86.8190293  21.6953304  39.2670100
  86.1718208  22.3943254  39.1734576  87.5891309  22.1289448  39.6346348
  90.2269091  31.9602156  42.3420653  90.0754598  31.7312708  41.4250737
  90.2173771  32.9172758  42.3551998  86.9954428  29.5334069  37.3266919
  87.9246488  29.6845229  37.1535887  86.5745458  29.6218090  36.4715566
  85.7942760  33.5584733  35.0965457  85.6553845  33.1903518  35.9691395
  85.0057356  34.0732373  34.9249415  86.3890912  38.6593830  26.4390994
  86.5642667  38.1881873  27.2536616  85.7023700  39.2859596  26.6672254
  87.3447975  32.9366336  32.4854295  87.0097807  32.8967106  33.3811945
  86.8451920  32.2711052  32.0124705  81.3192219  28.3433966  38.0106876
  81.1812017  27.6114205  38.6118415  82.2297142  28.2542866  37.7291064
  90.2807166  30.2822370  22.7591354  89.6636337  29.5569199  22.6624407
  89.8123655  31.0431731  22.4158429  83.9474519  28.0553925  37.4990556
  84.6574138  27.4147118  37.4577174  83.9043828  28.3066820  38.4216736
  91.9361298  34.9921279  40.4197135  91.8773844  34.3080499  39.7527718
  92.3380816  35.7340269  39.9677761  82.6603453  25.0419143  39.3186195
  82.1240810  24.5909882  39.9707791  82.0720162  25.1765052  38.5756659
  80.9551997  41.8083193  33.2130854  81.1948595  42.4401717  33.8909872
  80.1121193  41.4571233  33.4996213  82.0705712  24.5007795  21.8812659
  81.1935179  24.3796595  21.5174905  82.5463465  23.7093873  21.6291547
  91.9378705  32.9560863  38.6511115  91.0505484  32.6186784  38.7737513
  92.5077256  32.2243894  38.8879880  73.5907852  29.2884954  31.9754166
  74.2778892  28.9746684  31.3875181  73.4355981  30.1926319  31.7021417
  78.3942575  24.1775151  36.4039190  78.3100763  23.5700821  35.6689600
  77.5725281  24.6684169  36.4048686  85.4679859  37.6162315  35.6172358
  85.3950030  38.4217286  36.1291662  85.0257252  37.8154281  34.7920379
  85.2569638  36.8534085  29.1275179  84.4737160  37.3955765  29.2213404
  85.9562383  37.3708065  29.5269420  88.5666288  22.6628714  31.7709385
  89.0634988  21.9098677  31.4510455  87.7953270  22.6993031  31.2052594
  96.4196046  28.3669080  33.4127676  96.4085922  29.2493795  33.0421609
  95.5513425  28.0140631  33.2182213  87.9278542  37.5149149  37.7730516
  88.6406514  38.1496614  37.7006418  87.4368571  37.6113015  36.9570518
  89.6496069  31.4200402  29.3447808  88.7152348  31.5401864  29.1752512
  89.8272738  30.5172868  29.0807818  85.1501257  24.8046097  31.4981069
  84.7799045  24.2517138  32.1861975  85.6460350  24.2004231  30.9456069
  93.0368620  27.2617721  29.8797842  93.5029073  28.0945713  29.8058145
  93.4876121  26.7962703  30.5843101  82.9790456  35.2643592  38.5936087
  83.6799915  35.8980075  38.7465481  82.5085571  35.6058324  37.8331726
  91.1044852  33.6061542  26.8783994  91.3804695  33.4918137  27.7877868
  90.2349350  33.2079027  26.8396167  91.0085283  19.6298308  33.9188744
  90.0948363  19.8602535  34.0870950  91.4378385  19.7136752  34.7702776
  90.7791742  27.8188200  36.4188638  90.1263192  28.0664107  35.7641090
  91.1572122  27.0052338  36.0851115  87.7398916  37.8547893  30.5216808
  87.9221310  37.0369549  30.9844560  88.5631902  38.0715585  30.0841698
  88.0741081  36.7816078  27.7831856  88.6028848  36.2708533  27.1702018
  88.3369301  36.4658608  28.6477389  86.8279315  28.5608011  42.9054675
  86.1519952  28.4602140  43.5757050  87.6506949  28.4047225  43.3690672
  78.5758174  34.7979948  35.5267190  79.1611611  34.0523635  35.6595094
  78.3783012  35.1083904  36.4103854  81.4296829  37.8331195  30.5429632
  80.7607204  38.3177323  30.0593672  81.2909699  38.0800415  31.4573011
  73.1675829  27.3685548  34.2471633  73.2059928  26.8349138  35.0408751
  72.6616121  26.8420753  33.6282610  85.5702098  39.8674938  37.1412291
  86.1220406  40.0306560  37.9061376  85.9108291  40.4579376  36.4692315
  80.5466591  22.2150088  37.7434175  80.6107917  23.0764919  37.3311573
  80.4833711  21.6024090  37.0106534  80.0218863  24.2873221  41.3907210
  80.6490902  23.9050298  42.0044734  79.1646782  24.0687423  41.7562902
  90.4212972  34.6936196  42.9960945  90.9652876  35.3066154  42.5015900
  89.8399817  35.2515774  43.5127958  76.7984406  26.0949650  27.3225564
  77.0937847  25.1860328  27.2692618  75.8972442  26.0737389  27.0006567
  88.7070485  37.8156914  34.1275973  88.5821624  37.0146654  33.6186918
  89.3649576  38.3103107  33.6389943  80.3278653  24.1705646  33.3053113
  79.6065239  24.7841614  33.1660586  81.1171909  24.7063411  33.2269759
  90.7705393  35.6165934  35.7555523  89.8235729  35.4971285  35.6833850
  91.1188166  34.7288432  35.8381784  83.1304967  21.5060073  39.5793765
  83.6539368  21.7522370  40.3420074  82.9117300  22.3380108  39.1596902
  78.5272248  23.7763748  27.4464890  78.1984954  22.8961126  27.2639995
  78.8811618  23.7211416  28.3341279  87.7751827  35.4118650  31.9559875
  87.6276789  34.4835358  32.1367445  88.6005320  35.4338741  31.4716950
  81.6414071  24.0636717  27.8140367  81.9810143  24.5922639  27.0918976
  82.0886191  24.4017123  28.5898934  91.3785948  36.2347209  33.0424748
  92.3032496  36.0290070  32.9049199  91.2101252  35.9863610  33.9514089
  84.3357512  22.4473768  37.2643435  83.9954332  21.6481581  37.6664115
  83.6296518  22.7475479  36.6920268  84.9873984  19.5323080  35.7170758
  85.8100053  19.0583559  35.5949649  85.2312047  20.3113564  36.2169445
  83.6282218  22.5611339  26.0133660  84.3490581  22.9392592  25.5097377
  83.0047522  23.2800216  26.1168638  87.7713341  23.2656488  26.9491992
  87.9876955  24.1481126  26.6480820  87.2907408  22.8742701  26.2197634
  82.5112562  26.2242201  33.5262737  82.3657143  26.5382504  34.4187018
  82.0337766  26.8427101  32.9733636  84.3708945  23.2144749  33.5743626
  84.3570514  22.3185842  33.2375924  85.0881373  23.2215413  34.2081913
  86.2235076  23.6482089  35.6196754  85.9652854  24.5699160  35.6181084
  85.6920116  23.2512524  36.3097218  91.1681265  36.7532876  28.3986839
  91.3418142  36.1879299  27.6460692  91.6610156  37.5533771  28.2166329
  76.9858224  28.7647546  36.4650398  76.4411693  29.5407353  36.5970672
  77.8637574  29.1118350  36.3069520  83.7745841  22.0959129  28.8431197
  83.8961752  21.1675776  29.0422084  83.4847883  22.1097815  27.9309512
  86.6437031  19.7814040  31.9797916  86.6658728  19.8453373  31.0249896
  87.0605090  18.9418548  32.1738423  97.0220656  29.5169299  30.0177139
  97.4651802  28.7676625  29.6196262  96.1447166  29.5079436  29.6350871
  92.1556437  36.0699641  25.4983738  92.8507342  36.6906334  25.7171052
  92.4979587  35.2194992  25.7736115  77.7724246  27.8917442  39.3580555
  77.0305982  28.0400077  39.9445185  77.4516991  28.1525707  38.4947304
  94.0547860  33.5199346  27.0271068  94.5799184  33.8586619  26.3020388
  93.9670213  32.5846362  26.8434203  85.7167909  37.4333420  39.1560945
  86.0255035  37.1882567  40.0283645  86.5143391  37.6380058  38.6679815
  85.7388521  39.5871330  31.3866322  85.2993511  39.0947708  32.0799178
  86.4896638  39.0444297  31.1458397  78.2180860  35.7782871  31.3890950
  79.0438880  35.4786642  31.0089593  77.8674912  35.0090493  31.8380738
  83.1862393  35.1309339  33.4588623  82.5642402  34.4680044  33.1590851
  83.8567260  35.1570471  32.7762271  76.4189465  33.6969197  32.3479883
  75.5821373  33.2691371  32.1663884  76.3913110  33.8901640  33.2850674
  83.2586921  23.6091127  43.0521129  83.3075076  24.4853250  42.6698899
  83.8009435  23.0668520  42.4792772  93.7441766  34.1532250  42.3322266
  92.9537310  34.1356389  41.7926766  93.5075121  34.6920544  43.0871303
  93.8639641  31.0024716  39.6454995  93.9137646  30.8374724  40.5870518
  93.7553565  30.1351975  39.2552876  82.7475900  33.6813262  26.9347084
  82.8964020  34.3648726  26.2813756  83.5542344  33.6618352  27.4496539
  91.1543404  26.9855644  40.9614302  92.0553267  26.8462109  40.6698299
  91.2291378  27.1510099  41.9012479  85.4886209  24.3622499  39.8067488
  84.6189518  24.6556065  39.5350076  85.7245689  24.9462944  40.5274752
  95.3657838  33.4221658  39.8897016  95.0742646  33.7851638  40.7260477
  94.7529969  32.7088666  39.7110348  96.5653521  30.9874538  32.4099587
  97.4000412  31.4264342  32.5737147  96.7012649  30.5113191  31.5907832
  93.6145026  28.5454273  38.3577074  94.0899148  28.7381919  37.5495926
  92.6910592  28.6013458  38.1120458  80.5028533  29.7078440  27.9408153
  80.2574575  28.8040770  28.1388363  80.6724448  29.7095590  26.9987631
  88.1925243  20.5802116  37.3232908  88.7107187  21.3163143  36.9979397
  87.8380376  20.8866109  38.1579667  79.7724181  25.4406797  25.4394314
  79.0793426  25.5151152  24.7834350  79.5275932  24.6767141  25.9615831
  88.4437837  17.0002399  32.8433805  88.7239591  16.3325588  33.4694231
  89.2288444  17.1931494  32.3308469  86.2471306  36.1761393  24.4058831
  85.6745273  36.7951580  23.9529303  86.8204099  36.7260754  24.9398753
  92.3146695  25.4220033  36.5905380  93.2664118  25.5218130  36.6117604
  92.1450146  24.6298301  37.1003464  90.3361075  22.5075616  36.7764781
  89.7411007  22.7880629  36.0811270  90.0510772  22.9969517  37.5481522
  89.4668565  36.4598543  25.5367413  90.3999239  36.3944104  25.7400289
  89.3791778  37.2954810  25.0781946  92.0956582  35.7764413  22.4971361
  92.0170214  35.4424277  23.3907119  92.9166249  36.2686181  22.4962833
  94.7934773  28.6426152  35.7047680  94.7611093  27.7042153  35.8907363
  95.4035397  28.7210189  34.9713505  86.6318104  27.5122205  21.7474884
  87.5777209  27.3828413  21.8163302  86.2532349  26.7736867  22.2244312
  94.9429262  25.4337196  35.7505963  94.4268310  24.6495652  35.5635892
  95.8269210  25.1055912  35.9152482  92.6039989  19.1778211  31.7101775
  92.4064810  18.8693300  32.5945107  93.2139694  19.9039850  31.8399705
 100.6111323  29.7042159  34.8453716 101.3414712  29.4427447  35.4061420
 100.0018269  28.9670881  34.8855784  98.6926620  27.8450022  35.4428168
  97.9659784  27.7105987  34.8344659  98.2773907  28.1526850  36.2484886
  86.5156797  31.5639951  43.2075541  87.4359806  31.7418550  43.4015587
  86.4806380  30.6195997  43.0555240  84.8161021  25.4372182  21.6829769
  83.9092477  25.1405294  21.7592482  85.0937002  25.1402000  20.8164055
  75.7338962  26.7578545  32.1328815  75.4141746  25.9043853  31.8403189
  75.1872390  26.9727123  32.8886783  79.5118869  29.4740986  35.8498322
  79.7304879  30.4058094  35.8686356  79.9244643  29.1148960  36.6353126
  86.4323087  19.9809071  27.8374010  85.6223815  19.6356156  28.2129256
  87.1207504  19.6716615  28.4261622  88.3613635  19.0587118  29.4598307
  88.9144674  19.4782572  30.1188330  88.5983722  18.1322866  29.5021263
  84.3846734  25.0474192  45.2401071  84.2843461  25.9968549  45.1713162
  84.1668277  24.7192431  44.3677141  83.5859806  22.2959117  21.8241748
  84.4478970  22.6214015  22.0837565  83.7710150  21.5090613  21.3114814
  75.6027222  30.3781457  34.1021937  74.9090693  29.9635409  33.5891891
  76.3500213  30.4201993  33.5055356  91.7392442  21.1687643  28.9676971
  91.1591111  21.8272447  28.5855023  91.4728375  20.3464988  28.5564389
  90.1896009  20.5692701  31.1698291  90.6895787  20.6809236  30.3612610
  90.8331617  20.2653754  31.8099100  84.2478005  28.4771331  44.0566132
  83.7645086  29.2771691  44.2630021  84.3338944  28.4879276  43.1033576
  77.5163964  30.3099710  31.9787952  77.4934652  30.4087398  31.0269835
  77.8264601  31.1564861  32.3005118  80.1751342  32.3675865  36.0934566
  81.1294596  32.3359808  36.0264498  79.9763866  31.9066489  36.9084792
  80.7650724  30.9376981  38.6605364  81.5843613  31.4321060  38.6840201
  81.0387532  30.0208950  38.6322931  90.5217320  23.3287734  28.0233319
  89.6343175  23.6137384  27.8053514  90.9371309  23.1681497  27.1760596
  93.8731856  23.3534255  31.7387659  94.6492247  23.8430707  32.0112275
  93.1479991  23.7792309  32.1959528  96.3104415  24.0661874  32.7961599
  96.9048906  23.8257610  32.0854907  96.3830999  23.3469005  33.4235136
  78.5301571  37.9095485  33.1104764  78.3956039  37.1495886  32.5442762
  78.1133633  38.6336385  32.6433553  89.6660534  33.0932408  22.1181339
  90.3696384  33.2982411  22.7338995  88.9423183  33.6609170  22.3830423
  90.4958344  28.8442270  28.2383609  90.4393545  29.3010821  27.3991242
  91.0486687  28.0832954  28.0606452  94.3063150  24.6332002  29.0633729
  94.0500084  24.2328637  29.8941937  93.6816018  25.3475795  28.9383868
  98.6175488  27.3728075  31.5705020  98.0575046  27.4421264  32.3436582
  98.0118991  27.1969059  30.8504517  81.6870697  38.8064802  33.3223207
  81.5703081  39.7510234  33.2201897  80.8663143  38.5038363  33.7109006
  91.5747231  33.5314938  24.1679799  92.4092835  33.0996136  23.9857274
  91.4131574  33.3596951  25.0956694  91.2293123  30.0347051  25.5336139
  91.1741927  29.8691322  24.5924583  90.6039179  30.7423084  25.6898328
  76.0185638  25.2715115  39.3597561  76.6644502  24.7614069  39.8484786
  75.8102790  26.0083797  39.9340986  88.5439031  32.3395963  44.8589701
  89.4130190  32.5136615  44.4976336  88.0645782  33.1590380  44.7365431
  84.5389249  19.5355160  25.1121457  84.5267919  20.4797000  25.2689728
  85.4312671  19.3525305  24.8180918  82.7125211  39.4593064  36.5379135
  83.6152458  39.4916674  36.8545630  82.4862581  38.5293515  36.5525471
  84.4678813  38.2124050  33.1989214  83.5174444  38.2125912  33.0853586
  84.7711299  37.4656785  32.6825248  88.3541368  16.1297937  29.3667394
  87.5873764  15.5756423  29.5124076  88.7652073  16.2019805  30.2281546
  80.3583129  22.4182732  43.4572575  81.2214591  22.0619537  43.6675900
  79.7848540  22.0796627  44.1447979 100.2031506  44.0484589  34.2634976
 100.8409916  43.9291336  33.5598316 100.0852349  44.9965433  34.3222928
  97.0121213  44.0012017  34.1996501  96.6739724  43.8853082  33.3117036
  97.8810981  43.6003182  34.1797507  92.8708028  45.8547493  30.1893392
  92.3072893  45.7637430  29.4209680  92.7560423  45.0347398  30.6695884
  97.4940996  45.1546869  40.1582706  97.4829636  44.7599667  39.2863210
  97.6561635  44.4212941  40.7516478  90.4172460  47.3498685  33.0277612
  91.2093752  47.0089509  32.6123912  90.6569110  47.4593660  33.9479766
  98.4507587  49.5218461  25.5007857  97.7995567  50.1072541  25.1141870
  99.2451950  50.0524656  25.5602894  92.3763214  46.6107598  25.8994991
  93.1494090  46.0636585  25.7607867  92.7288613  47.4751847  26.1109452
  94.2148257  47.9383980  39.1061890  93.9238123  48.8429611  38.9908557
  94.8505241  47.9800508  39.8205960  95.1404464  45.3160829  35.6963250
  95.7368036  45.0916851  34.9820213  95.1979435  44.5745574  36.2988698
  94.7129492  42.7700264  23.5313441  94.9655013  42.2481785  22.7696904
  93.7754051  42.6066410  23.6340125  99.7572775  41.7736043  31.3388184
 100.5435864  41.3555466  30.9878601 100.0211479  42.6782135  31.5069833
  99.9282852  47.2108893  26.0376841  99.2928685  47.2843519  26.7497746
  99.5980259  47.8002492  25.3595920 105.1581202  41.7111276  32.2421163
 105.8906374  41.1410493  32.4758992 104.4020558  41.3232876  32.6827668
  94.4325781  44.6728370  25.7337816  94.3162039  43.9973274  26.4018900
  94.5428041  44.1860744  24.9169969  96.7757322  44.1338517  29.4384505
  96.4115529  43.6069138  30.1497427  97.6324438  43.7436986  29.2650991
 102.6806622  35.4232850  36.7015771 102.3489947  36.2928261  36.4776986
 102.0852236  35.1069134  37.3809802  96.4162809  39.1628417  24.4345854
  96.5837211  40.0308653  24.8016325  96.2259978  39.3255699  23.5107143
  99.1738142  47.6245396  36.1011684  98.8738865  48.5270435  35.9927491
  98.8289201  47.3577579  36.9532837  92.6250623  44.0759193  32.1348388
  91.7001120  43.9435407  32.3426080  92.8735036  44.8553412  32.6318331
 102.5735286  40.1427936  33.7809121 101.6652163  40.0743344  33.4867882
 102.5222881  40.6199881  34.6090947  96.3952030  41.6186074  25.4192520
  96.2751655  42.0643125  26.2578001  95.7004618  41.9671392  24.8606059
  89.9859434  43.7192466  32.9692178  90.1151815  43.9726945  33.8831589
  89.3056886  44.3120174  32.6496833  94.1558922  54.3889716  29.0682652
  94.0782951  55.3397541  29.1471132  93.5520565  54.0435589  29.7257578
  96.6476151  41.5617582  41.7244019  95.8709485  42.1211502  41.7146883
  97.2866714  42.0474365  42.2458889 104.4396932  38.3444374  35.5586995
 103.7971312  38.6376908  34.9126790 103.9351861  38.2297295  36.3640192
 102.0937096  42.0907548  26.2472855 103.0054952  42.3234934  26.0720552
 101.5846743  42.6744592  25.6847933  94.9022524  44.3703035  41.2861986
  95.6437208  44.9088079  41.0096809  94.1959509  44.9969324  41.4433537
 100.3777863  46.5132175  39.8834147 100.7861219  46.0714586  39.1388779
  99.6555125  45.9384803  40.1368340  96.7308933  41.4504782  37.2567704
  97.5770129  41.8744196  37.4002353  96.6707571  40.7938407  37.9506267
 100.7006678  47.0733366  33.6386436 100.0715540  47.2379080  32.9362504
 100.3132340  47.4874976  34.4097400 104.5795910  48.0087804  30.9930800
 103.8946948  48.3886705  30.4427833 104.6639759  48.6183131  31.7262748
  99.8808379  39.1109151  38.9148878  99.6369311  39.8651211  38.3783153
 100.1568309  39.4894498  39.7496125 101.8346841  45.6547763  37.5926143
 102.0463737  46.2979523  36.9160524 101.7876590  44.8210080  37.1248073
  99.4373070  38.2665584  34.4962715  98.5757549  38.5646837  34.7879453
  99.4635505  38.4835983  33.5643748  96.2534640  46.8107774  30.9036521
  96.7172985  47.0895477  30.1141144  95.9891438  45.9091219  30.7209612
  93.1458721  46.3579256  33.8416284  93.7160078  46.7866524  33.2033769
  93.7366833  46.0761840  34.5400470  95.1903526  42.9330927  27.7126086
  95.8927569  43.3851970  28.1800013  94.8584154  42.2914745  28.3405979
  93.6383887  41.5242683  42.0877296  93.0082548  42.2058964  42.3212692
  93.5319975  41.4125765  41.1430434  88.9328860  41.1914479  33.0143220
  88.1427914  41.4472008  32.5383330  89.4240107  42.0062817  33.1195260
 102.9492669  48.5319718  35.7648501 103.7710113  48.1299906  35.4831182
 102.9455072  48.4287953  36.7164616  90.8843605  41.5559058  29.9726696
  90.0874769  41.6677753  30.4910192  90.6569197  41.8945711  29.1067587
  96.7149273  48.0803762  37.9209211  96.7793705  48.5424169  38.7567383
  96.0060197  47.4501127  38.0491521  87.2166563  41.4444970  35.4458211
  87.4674601  42.3291980  35.7115787  87.7526111  41.2649571  34.6733302
 111.0398662  44.8758467  32.1133472 110.2862371  44.3065865  31.9577477
 111.1746204  44.8421131  33.0604107  96.4297291  49.7471869  27.7888191
  96.2942965  50.5923405  28.2173039  96.9707103  49.9491147  27.0254125
  92.9164630  35.8263449  44.4502547  92.5231576  35.2729648  45.1250191
  93.7330770  36.1374028  44.8409064  89.8826688  47.2647307  28.3616117
  90.3951208  48.0590557  28.5121681  90.5349401  46.5673598  28.2949718
  91.6921573  50.3813064  30.4438870  91.8688201  51.3031028  30.2559854
  92.4878406  50.0671483  30.8733250  95.8332591  37.2421328  42.0422803
  96.5742305  37.8428481  41.9627266  96.0650514  36.4998966  41.4840846
  90.9773929  42.4277695  40.3201033  90.8627444  41.5262953  40.6208132
  90.1218447  42.6741392  39.9685849  98.0565767  50.3695436  41.9188534
  97.6129621  49.5831814  41.6009438  98.7182980  50.5574586  41.2532424
  92.8152888  51.8991237  36.4449212  93.3660313  51.7708301  35.6726206
  91.9764364  52.1986126  36.0944105 100.1547005  50.6498236  39.9469935
 100.1365480  51.4707117  39.4550204 101.0766925  50.5252311  40.1720076
  96.6120059  48.1642365  40.7893443  97.1448396  47.4030653  40.5592751
  96.0834140  47.8716017  41.5317598  99.7789754  33.2702431  36.3187085
  99.4354023  34.1604073  36.2426196 100.1468717  33.0804089  35.4556670
  87.8475605  45.5935962  29.1375687  88.6850827  46.0032970  28.9209395
  88.0253872  44.6535404  29.1075881  99.7440037  43.2611042  24.8259520
  99.2286660  44.0315647  25.0647907  99.4717345  42.5876178  25.4492581
  97.3287148  38.1060743  29.8844758  96.4728744  37.7167593  29.7050397
  97.7414100  38.1852704  29.0244544  98.8586294  35.6407086  34.2836318
  98.3551090  35.6037221  33.4704123  99.1516901  36.5499829  34.3432975
  95.1029180  35.7245816  33.2902500  95.9682177  35.5288625  32.9308389
  95.1706689  35.4956168  34.2171857 104.7174311  46.0143397  26.7612694
 103.9403754  45.6754556  26.3167856 105.3965792  46.0196020  26.0867659
  99.5326340  41.1338134  26.6519301  99.2276476  41.4484283  27.5029444
 100.4856782  41.2119554  26.6946634  97.9772772  47.2928358  28.3012255
  97.4494133  46.5581117  27.9885493  97.4760275  48.0703034  28.0552224
 102.9565618  45.4877378  33.4179301 102.2989292  46.1776639  33.5059430
 103.7606017  45.8773810  33.7613288  92.7091499  37.9548024  30.6618867
  93.2835251  37.7323205  29.9292060  93.2962482  38.0236718  31.4147468
 101.7671077  43.8421751  31.4683243 102.2802958  44.4751743  31.9704953
 102.4172301  43.2422946  31.1026603  93.0361087  39.9852485  24.6814752
  92.1998399  40.3227171  25.0024027  92.8965856  39.8501465  23.7441889
  95.0114167  34.8289273  29.3893936  94.3578579  34.5138290  28.7650551
  94.9694641  34.2065013  30.1153759  96.1225372  45.1108568  21.3047228
  95.2152434  44.8797821  21.5038377  96.6196404  44.3146187  21.4921210
  99.0293451  53.8206075  24.2243914  98.3555150  54.1237772  24.8328872
  99.4159273  54.6235155  23.8749371  98.2451908  41.3171206  33.7141584
  97.3274469  41.5386153  33.5563272  98.6612051  41.3917517  32.8553291
  99.0286955  42.7162622  28.8444264  99.7758774  43.2284019  28.5351386
  99.2978545  42.3946675  29.7048658  97.3013605  45.2121163  25.8271218
  96.3924825  44.9280196  25.9243688  97.3308689  45.6320241  24.9674525
 102.5332873  48.8227752  29.5962386 102.0795200  47.9818662  29.6527576
 101.9026840  49.4589151  29.9337166 101.4765792  39.7519738  30.8263053
 100.7388549  39.2397124  31.1573296 101.7292566  39.3120120  30.0146330
 100.9765812  50.6604249  30.5312204 101.2688786  51.2209306  29.8124570
 101.4864433  50.9532810  31.2865363 101.5777420  32.5295990  31.4204823
 101.8836297  31.6693354  31.1330738 102.3030025  33.1213610  31.2203817
  87.8701776  42.9326677  29.8086421  87.6726176  42.3396038  29.0837487
  87.3148440  42.6278887  30.5262359  95.8498499  42.8249783  31.9281014
  95.9047109  41.8723620  31.8523490  95.0389702  42.9809222  32.4122312
  96.9989693  46.7529906  23.1659297  96.5609123  46.0365765  22.7064934
  97.7400134  46.9806021  22.6044388  93.7890859  41.4426843  29.6871393
  92.9758725  41.7421014  30.0936585  94.2849854  41.0482532  30.4045875
  95.9399437  51.4384600  31.6205657  95.8975616  51.6645446  30.6914189
  96.8562136  51.2047975  31.7691458  99.3865071  41.9068668  38.5186286
  99.7414459  42.1340141  39.3780752 100.0337202  42.2387044  37.8963542
 105.1162808  45.0287103  29.2235615 104.9780707  45.2188699  28.2956805
 104.7599027  45.7906486  29.6803667  93.2804934  39.0145199  35.3032627
  93.9204313  38.8733958  34.6055591  92.4482465  38.7279712  34.9271229
 105.1432188  47.0963630  34.2346887 105.5768694  47.0038920  35.0829941
 105.8563768  47.0721131  33.5966903  94.0565238  48.3147629  31.4167620
  94.8505837  47.8197949  31.2150195  93.3456930  47.7865492  31.0535326
  98.8760083  50.6965725  35.7679988  98.9297105  51.2656661  36.5357703
  98.0074864  50.8667610  35.4034025  90.3648002  42.4590711  27.4927373
  89.4345590  42.3975166  27.7097335  90.4605474  41.9366664  26.6964014
  90.2833551  38.9845524  30.0805614  90.5440368  39.8990857  29.9714775
  91.1050723  38.5169966  30.2302227  91.7558476  40.3983281  37.2504439
  92.4281529  40.1900643  36.6017088  90.9288262  40.2005367  36.8109671
 106.0047737  47.1387331  36.7679772 106.1983627  48.0433142  37.0139047
 105.9048355  46.6794750  37.6018357  97.6584048  37.0245222  39.2670100
  97.0111963  37.7235171  39.1734576  98.4285063  37.4581366  39.6346348
 101.0662846  47.2894074  42.3420653 100.9148352  47.0604626  41.4250737
 101.0567525  48.2464675  42.3551998  97.8348182  44.8625987  37.3266919
  98.7640242  45.0137146  37.1535887  97.4139212  44.9510007  36.4715566
  96.6336514  48.8876651  35.0965457  96.4947600  48.5195435  35.9691395
  95.8451110  49.4024290  34.9249415  97.2284666  53.9885747  26.4390994
  97.4036422  53.5173791  27.2536616  96.5417454  54.6151514  26.6672254
  98.1841729  48.2658254  32.4854295  97.8491562  48.2259024  33.3811945
  97.6845675  47.6002970  32.0124705  92.1585973  43.6725884  38.0106876
  92.0205771  42.9406123  38.6118415  93.0690897  43.5834784  37.7291064
 101.1200921  45.6114288  22.7591354 100.5030092  44.8861116  22.6624407
 100.6517409  46.3723648  22.4158429  94.7868274  43.3845843  37.4990556
  95.4967892  42.7439035  37.4577174  94.7437582  43.6358738  38.4216736
 102.7755053  50.3213196  40.4197135 102.7167599  49.6372417  39.7527718
 103.1774571  51.0632186  39.9677761  93.4997208  40.3711061  39.3186195
  92.9634565  39.9201799  39.9707791  92.9113916  40.5056970  38.5756659
  91.7945751  57.1375110  33.2130854  92.0342350  57.7693634  33.8909872
  90.9514948  56.7863150  33.4996213  92.9099467  39.8299712  21.8812659
  92.0328933  39.7088513  21.5174905  93.3857220  39.0385791  21.6291547
 102.7772460  48.2852780  38.6511115 101.8899239  47.9478702  38.7737513
 103.3471011  47.5535812  38.8879880  84.4301607  44.6176872  31.9754166
  85.1172647  44.3038602  31.3875181  84.2749736  45.5218237  31.7021417
  89.2336329  39.5067069  36.4039190  89.1494518  38.8992738  35.6689600
  88.4119035  39.9976087  36.4048686  96.3073613  52.9454233  35.6172358
  96.2343785  53.7509204  36.1291662  95.8651006  53.1446198  34.7920379
  96.0963393  52.1826003  29.1275179  95.3130915  52.7247683  29.2213404
  96.7956138  52.6999982  29.5269420  99.4060043  37.9920632  31.7709385
  99.9028742  37.2390594  31.4510455  98.6347024  38.0284949  31.2052594
 107.2589800  43.6960998  33.4127676 107.2479677  44.5785713  33.0421609
 106.3907180  43.3432549  33.2182213  98.7672297  52.8441067  37.7730516
  99.4800269  53.4788532  37.7006418  98.2762325  52.9404933  36.9570518
 100.4889824  46.7492319  29.3447808  99.5546102  46.8693782  29.1752512
 100.6666492  45.8464786  29.0807818  95.9895012  40.1338015  31.4981069
  95.6192799  39.5809056  32.1861975  96.4854104  39.5296149  30.9456069
 103.8762375  42.5909639  29.8797842 104.3422827  43.4237630  29.8058145
 104.3269875  42.1254620  30.5843101  93.8184210  50.5935510  38.5936087
  94.5193670  51.2271993  38.7465481  93.3479325  50.9350242  37.8331726
 101.9438606  48.9353460  26.8783994 102.2198450  48.8210055  27.7877868
 101.0743105  48.5370945  26.8396167 101.8479038  34.9590226  33.9188744
 100.9342118  35.1894452  34.0870950 102.2772139  35.0428670  34.7702776
 101.6185496  43.1480118  36.4188638 100.9656946  43.3956025  35.7641090
 101.9965876  42.3344256  36.0851115  98.5792670  53.1839811  30.5216808
  98.7615065  52.3661467  30.9844560  99.4025656  53.4007503  30.0841698
  98.9134836  52.1107996  27.7831856  99.4422602  51.6000451  27.1702018
  99.1763055  51.7950526  28.6477389  97.6673069  43.8899929  42.9054675
  96.9913706  43.7894058  43.5757050  98.4900703  43.7339142  43.3690672
  89.4151928  50.1271865  35.5267190  90.0005365  49.3815553  35.6595094
  89.2176767  50.4375822  36.4103854  92.2690584  53.1623113  30.5429632
  91.6000959  53.6469240  30.0593672  92.1303453  53.4092333  31.4573011
  84.0069583  42.6977465  34.2471633  84.0453683  42.1641056  35.0408751
  83.5009876  42.1712671  33.6282610  96.4095852  55.1966856  37.1412291
  96.9614160  55.3598478  37.9061376  96.7502046  55.7871294  36.4692315
  91.3860345  37.5442006  37.7434175  91.4501672  38.4056837  37.3311573
  91.3227466  36.9316008  37.0106534  90.8612618  39.6165138  41.3907210
  91.4884657  39.2342216  42.0044734  90.0040537  39.3979340  41.7562902
 101.2606726  50.0228114  42.9960945 101.8046630  50.6358072  42.5015900
 100.6793571  50.5807692  43.5127958  87.6378161  41.4241568  27.3225564
  87.9331602  40.5152246  27.2692618  86.7366196  41.4029307  27.0006567
  99.5464239  53.1448832  34.1275973  99.4215379  52.3438571  33.6186918
 100.2043331  53.6395025  33.6389943  91.1672408  39.4997564  33.3053113
  90.4458993  40.1133532  33.1660586  91.9565663  40.0355329  33.2269759
 101.6099148  50.9457852  35.7555523 100.6629483  50.8263203  35.6833850
 101.9581921  50.0580350  35.8381784  93.9698721  36.8351991  39.5793765
  94.4933123  37.0814287  40.3420074  93.7511054  37.6672025  39.1596902
  89.3666002  39.1055665  27.4464890  89.0378708  38.2253044  27.2639995
  89.7205373  39.0503334  28.3341279  98.6145581  50.7410568  31.9559875
  98.4670544  49.8127275  32.1367445  99.4399075  50.7630659  31.4716950
  92.4807825  39.3928635  27.8140367  92.8203898  39.9214556  27.0918976
  92.9279946  39.7309041  28.5898934 102.2179703  51.5639127  33.0424748
 103.1426250  51.3581988  32.9049199 102.0495006  51.3155528  33.9514089
  95.1751266  37.7765686  37.2643435  94.8348087  36.9773499  37.6664115
  94.4690272  38.0767397  36.6920268  95.8267738  34.8614998  35.7170758
  96.6493807  34.3875476  35.5949649  96.0705802  35.6405482  36.2169445
  94.4675973  37.8903257  26.0133660  95.1884335  38.2684509  25.5097377
  93.8441277  38.6092133  26.1168638  98.6107095  38.5948406  26.9491992
  98.8270710  39.4773043  26.6480820  98.1301163  38.2034619  26.2197634
  93.3506317  41.5534119  33.5262737  93.2050897  41.8674422  34.4187018
  92.8731520  42.1719019  32.9733636  95.2102700  38.5436667  33.5743626
  95.1964268  37.6477760  33.2375924  95.9275128  38.5507331  34.2081913
  97.0628830  38.9774007  35.6196754  96.8046608  39.8991078  35.6181084
  96.5313871  38.5804442  36.3097218 102.0075019  52.0824794  28.3986839
 102.1811897  51.5171217  27.6460692 102.5003910  52.8825689  28.2166329
  87.8251979  44.0939463  36.4650398  87.2805447  44.8699271  36.5970672
  88.7031329  44.4410268  36.3069520  94.6139596  37.4251047  28.8431197
  94.7355507  36.4967693  29.0422084  94.3241638  37.4389733  27.9309512
  97.4830786  35.1105958  31.9797916  97.5052483  35.1745291  31.0249896
  97.8998845  34.2710466  32.1738423 107.8614410  44.8461217  30.0177139
 108.3045556  44.0968542  29.6196262 106.9840921  44.8371353  29.6350871
 102.9950192  51.3991559  25.4983738 103.6901096  52.0198251  25.7171052
 103.3373342  50.5486910  25.7736115  88.6118001  43.2209359  39.3580555
  87.8699737  43.3691995  39.9445185  88.2910745  43.4817625  38.4947304
 104.8941615  48.8491264  27.0271068 105.4192939  49.1878537  26.3020388
 104.8063967  47.9138279  26.8434203  96.5561663  52.7625338  39.1560945
  96.8648790  52.5174484  40.0283645  97.3537145  52.9671976  38.6679815
  96.5782275  54.9163247  31.3866322  96.1387266  54.4239626  32.0799178
  97.3290392  54.3736215  31.1458397  89.0574614  51.1074788  31.3890950
  89.8832634  50.8078560  31.0089593  88.7068666  50.3382411  31.8380738
  94.0256148  50.4601256  33.4588623  93.4036157  49.7971961  33.1590851
  94.6961015  50.4862388  32.7762271  87.2583220  49.0261115  32.3479883
  86.4215128  48.5983289  32.1663884  87.2306865  49.2193558  33.2850674
  94.0980675  38.9383044  43.0521129  94.1468831  39.8145167  42.6698899
  94.6403189  38.3960438  42.4792772 104.5835521  49.4824168  42.3322266
 103.7931065  49.4648307  41.7926766 104.3468875  50.0212461  43.0871303
 104.7033396  46.3316634  39.6454995 104.7531401  46.1666642  40.5870518
 104.5947319  45.4643893  39.2552876  93.5869655  49.0105180  26.9347084
  93.7357775  49.6940644  26.2813756  94.3936098  48.9910270  27.4496539
 101.9937158  42.3147562  40.9614302 102.8947021  42.1754027  40.6698299
 102.0685133  42.4802017  41.9012479  96.3279964  39.6914417  39.8067488
  95.4583273  39.9847983  39.5350076  96.5639444  40.2754862  40.5274752
 106.2051593  48.7513576  39.8897016 105.9136401  49.1143556  40.7260477
 105.5923724  48.0380584  39.7110348 107.4047275  46.3166455  32.4099587
 108.2394166  46.7556259  32.5737147 107.5406404  45.8405109  31.5907832
 104.4538781  43.8746190  38.3577074 104.9292903  44.0673837  37.5495926
 103.5304346  43.9305376  38.1120458  91.3422288  45.0370357  27.9408153
  91.0968329  44.1332687  28.1388363  91.5118202  45.0387508  26.9987631
  99.0318997  35.9094034  37.3232908  99.5500941  36.6455061  36.9979397
  98.6774130  36.2158027  38.1579667  90.6117935  40.7698715  25.4394314
  89.9187180  40.8443070  24.7834350  90.3669687  40.0059059  25.9615831
  99.2831592  32.3294316  32.8433805  99.5633345  31.6617505  33.4694231
 100.0682199  32.5223412  32.3308469  97.0865060  51.5053310  24.4058831
  96.5139027  52.1243497  23.9529303  97.6597854  52.0552672  24.9398753
 103.1540450  40.7511950  36.5905380 104.1057873  40.8510048  36.6117604
 102.9843900  39.9590219  37.1003464 101.1754829  37.8367534  36.7764781
 100.5804762  38.1172546  36.0811270 100.8904526  38.3261434  37.5481522
 100.3062320  51.7890460  25.5367413 101.2392993  51.7236022  25.7400289
 100.2185533  52.6246727  25.0781946 102.9350337  51.1056331  22.4971361
 102.8563968  50.7716194  23.3907119 103.7560003  51.5978099  22.4962833
 105.6328528  43.9718070  35.7047680 105.6004848  43.0334071  35.8907363
 106.2429151  44.0502107  34.9713505  97.4711859  42.8414123  21.7474884
  98.4170963  42.7120331  21.8163302  97.0926104  42.1028785  22.2244312
 105.7823016  40.7629113  35.7505963 105.2662065  39.9787570  35.5635892
 106.6662965  40.4347830  35.9152482 103.4433743  34.5070129  31.7101775
 103.2458564  34.1985217  32.5945107 104.0533449  35.2331768  31.8399705
 111.4505078  45.0334077  34.8453716 112.1808466  44.7719365  35.4061420
 110.8412023  44.2962799  34.8855784 109.5320375  43.1741939  35.4428168
 108.8053538  43.0397904  34.8344659 109.1167662  43.4818768  36.2484886
  97.3550551  46.8931869  43.2075541  98.2753561  47.0710468  43.4015587
  97.3200134  45.9487914  43.0555240  95.6554776  40.7664099  21.6829769
  94.7486231  40.4697212  21.7592482  95.9330757  40.4693917  20.8164055
  86.5732716  42.0870463  32.1328815  86.2535500  41.2335771  31.8403189
  86.0266144  42.3019041  32.8886783  90.3512624  44.8032904  35.8498322
  90.5698633  45.7350012  35.8686356  90.7638397  44.4440878  36.6353126
  97.2716841  35.3100989  27.8374010  96.4617570  34.9648074  28.2129256
  97.9601258  35.0008533  28.4261622  99.2007390  34.3879036  29.4598307
  99.7538428  34.8074489  30.1188330  99.4377476  33.4614784  29.5021263
  95.2240489  40.3766110  45.2401071  95.1237216  41.3260466  45.1713162
  95.0062031  40.0484348  44.3677141  94.4253560  37.6251035  21.8241748
  95.2872724  37.9505933  22.0837565  94.6103905  36.8382530  21.3114814
  86.4420976  45.7073374  34.1021937  85.7484448  45.2927327  33.5891891
  87.1893967  45.7493911  33.5055356 102.5786197  36.4979561  28.9676971
 101.9984866  37.1564365  28.5855023 102.3122130  35.6756906  28.5564389
 101.0289763  35.8984619  31.1698291 101.5289542  36.0101153  30.3612610
 101.6725371  35.5945672  31.8099100  95.0871759  43.8063248  44.0566132
  94.6038841  44.6063608  44.2630021  95.1732698  43.8171193  43.1033576
  88.3557719  45.6391628  31.9787952  88.3328407  45.7379315  31.0269835
  88.6658355  46.4856779  32.3005118  91.0145097  47.6967783  36.0934566
  91.9688350  47.6651725  36.0264498  90.8157620  47.2358407  36.9084792
  91.6044479  46.2668899  38.6605364  92.4237368  46.7612978  38.6840201
  91.8781286  45.3500867  38.6322931 101.3611075  38.6579651  28.0233319
 100.4736930  38.9429302  27.8053514 101.7765064  38.4973415  27.1760596
 104.7125611  38.6826172  31.7387659 105.4886001  39.1722625  32.0112275
 103.9873745  39.1084227  32.1959528 107.1498170  39.3953792  32.7961599
 107.7442660  39.1549528  32.0854907 107.2224753  38.6760922  33.4235136
  89.3695325  53.2387403  33.1104764  89.2349793  52.4787803  32.5442762
  88.9527388  53.9628302  32.6433553 100.5054288  48.4224326  22.1181339
 101.2090138  48.6274329  22.7338995  99.7816937  48.9901088  22.3830423
 101.3352099  44.1734187  28.2383609 101.2787300  44.6302739  27.3991242
 101.8880441  43.4124872  28.0606452 105.1456905  39.9623919  29.0633729
 104.8893839  39.5620555  29.8941937 104.5209773  40.6767713  28.9383868
 109.4569242  42.7019992  31.5705020 108.8968800  42.7713182  32.3436582
 108.8512746  42.5260977  30.8504517  92.5264451  54.1356720  33.3223207
  92.4096835  55.0802152  33.2201897  91.7056897  53.8330281  33.7109006
 102.4140986  48.8606855  24.1679799 103.2486590  48.4288054  23.9857274
 102.2525329  48.6888869  25.0956694 102.0686878  45.3638969  25.5336139
 102.0135682  45.1983240  24.5924583 101.4432933  46.0715002  25.6898328
  86.8579393  40.6007033  39.3597561  87.5038256  40.0905987  39.8484786
  86.6496544  41.3375715  39.9340986  99.3832785  47.6687880  44.8589701
 100.2523945  47.8428533  44.4976336  98.9039537  48.4882297  44.7365431
  95.3783003  34.8647078  25.1121457  95.3661673  35.8088918  25.2689728
  96.2706425  34.6817223  24.8180918  93.5518965  54.7884981  36.5379135
  94.4546212  54.8208592  36.8545630  93.3256335  53.8585432  36.5525471
  95.3072567  53.5415968  33.1989214  94.3568198  53.5417830  33.0853586
  95.6105053  52.7948703  32.6825248  99.1935123  31.4589854  29.3667394
  98.4267519  30.9048341  29.5124076  99.6045828  31.5311723  30.2281546
  91.1976884  37.7474650  43.4572575  92.0608345  37.3911455  43.6675900
  90.6242295  37.4088545  44.1447979 111.0425261  59.3776506  34.2634976
 111.6803671  59.2583254  33.5598316 110.9246104  60.3257350  34.3222928
 107.8514967  59.3303935  34.1996501 107.5133479  59.2144999  33.3117036
 108.7204735  58.9295100  34.1797507 103.7101783  61.1839411  30.1893392
 103.1466648  61.0929348  29.4209680 103.5954178  60.3639315  30.6695884
 108.3334750  60.4838786  40.1582706 108.3223391  60.0891585  39.2863210
 108.4955390  59.7504859  40.7516478 101.2566215  62.6790603  33.0277612
 102.0487507  62.3381427  32.6123912 101.4962865  62.7885578  33.9479766
 109.2901342  64.8510379  25.5007857 108.6389321  65.4364459  25.1141870
 110.0845704  65.3816574  25.5602894 103.2156969  61.9399516  25.8994991
 103.9887845  61.3928503  25.7607867 103.5682368  62.8043765  26.1109452
 105.0542011  63.2675898  39.1061890 104.7631877  64.1721529  38.9908557
 105.6898996  63.3092426  39.8205960 105.9798218  60.6452747  35.6963250
 106.5761790  60.4208769  34.9820213 106.0373190  59.9037492  36.2988698
 105.5523246  58.0992182  23.5313441 105.8048767  57.5773703  22.7696904
 104.6147806  57.9358327  23.6340125 110.5966529  57.1027960  31.3388184
 111.3829619  56.6847383  30.9878601 110.8605234  58.0074052  31.5069833
 110.7676607  62.5400811  26.0376841 110.1322440  62.6135437  26.7497746
 110.4374013  63.1294409  25.3595920 115.9974956  57.0403193  32.2421163
 116.7300128  56.4702410  32.4758992 115.2414312  56.6524794  32.6827668
 105.2719535  60.0020288  25.7337816 105.1555793  59.3265191  26.4018900
 105.3821795  59.5152662  24.9169969 107.6151076  59.4630435  29.4384505
 107.2509283  58.9361056  30.1497427 108.4718192  59.0728904  29.2650991
 113.5200377  50.7524768  36.7015771 113.1883702  51.6220179  36.4776986
 112.9245990  50.4361052  37.3809802 107.2556563  54.4920335  24.4345854
 107.4230965  55.3600571  24.8016325 107.0653732  54.6547616  23.5107143
 110.0131896  62.9537314  36.1011684 109.7132619  63.8562352  35.9927491
 109.6682956  62.6869497  36.9532837 103.4644378  59.4051110  32.1348388
 102.5394874  59.2727325  32.3426080 103.7128791  60.1845330  32.6318331
 113.4129040  55.4719854  33.7809121 112.5045917  55.4035262  33.4867882
 113.3616636  55.9491799  34.6090947 107.2345784  56.9477992  25.4192520
 107.1145409  57.3935043  26.2578001 106.5398372  57.2963310  24.8606059
 100.8253189  59.0484384  32.9692178 100.9545570  59.3018863  33.8831589
 100.1450640  59.6412092  32.6496833 104.9952676  69.7181634  29.0682652
 104.9176706  70.6689459  29.1471132 104.3914320  69.3727506  29.7257578
 107.4869906  56.8909499  41.7244019 106.7103240  57.4503419  41.7146883
 108.1260469  57.3766282  42.2458889 115.2790686  53.6736292  35.5586995
 114.6365067  53.9668825  34.9126790 114.7745615  53.5589212  36.3640192
 112.9330850  57.4199465  26.2472855 113.8448706  57.6526852  26.0720552
 112.4240497  58.0036510  25.6847933 105.7416278  59.6994953  41.2861986
 106.4830963  60.2379997  41.0096809 105.0353264  60.3261241  41.4433537
 111.2171618  61.8424093  39.8834147 111.6254974  61.4006504  39.1388779
 110.4948879  61.2676721  40.1368340 107.5702688  56.7796700  37.2567704
 108.4163883  57.2036113  37.4002353 107.5101326  56.1230324  37.9506267
 111.5400432  62.4025284  33.6386436 110.9109295  62.5670998  32.9362504
 111.1526095  62.8166893  34.4097400 115.4189664  63.3379722  30.9930800
 114.7340703  63.7178623  30.4427833 115.5033514  63.9475048  31.7262748
 110.7202133  54.4401068  38.9148878 110.4763065  55.1943129  38.3783153
 110.9962064  54.8186416  39.7496125 112.6740596  60.9839681  37.5926143
 112.8857491  61.6271441  36.9160524 112.6270344  60.1501997  37.1248073
 110.2766825  53.5957501  34.4962715 109.4151304  53.8938755  34.7879453
 110.3029260  53.8127900  33.5643748 107.0928394  62.1399692  30.9036521
 107.5566740  62.4187395  30.1141144 106.8285192  61.2383136  30.7209612
 103.9852475  61.6871173  33.8416284 104.5553832  62.1158442  33.2033769
 104.5760587  61.4053758  34.5400470 106.0297280  58.2622844  27.7126086
 106.7321324  58.7143888  28.1800013 105.6977909  57.6206663  28.3405979
 104.4777642  56.8534601  42.0877296 103.8476303  57.5350882  42.3212692
 104.3713730  56.7417682  41.1430434  99.7722614  56.5206397  33.0143220
  98.9821668  56.7763925  32.5383330 100.2633862  57.3354735  33.1195260
 113.7886424  63.8611636  35.7648501 114.6103868  63.4591823  35.4831182
 113.7848827  63.7579870  36.7164616 101.7237360  56.8850976  29.9726696
 100.9268523  56.9969670  30.4910192 101.4962952  57.2237628  29.1067587
 107.5543027  63.4095679  37.9209211 107.6187460  63.8716087  38.7567383
 106.8453951  62.7793044  38.0491521  98.0560317  56.7736887  35.4458211
  98.3068356  57.6583897  35.7115787  98.5919866  56.5941489  34.6733302
 107.2691045  65.0763787  27.7888191 107.1336720  65.9215323  28.2173039
 107.8100858  65.2783065  27.0254125 103.7558385  51.1555367  44.4502547
 103.3625330  50.6021565  45.1250191 104.5724525  51.4665945  44.8409064
 100.7220442  62.5939225  28.3616117 101.2344963  63.3882475  28.5121681
 101.3743155  61.8965515  28.2949718 102.5315327  65.7104981  30.4438870
 102.7081955  66.6322946  30.2559854 103.3272161  65.3963400  30.8733250
 106.6726346  52.5713246  42.0422803 107.4136059  53.1720399  41.9627266
 106.9044268  51.8290884  41.4840846 101.8167684  57.7569613  40.3201033
 101.7021199  56.8554870  40.6208132 100.9612201  58.0033310  39.9685849
 108.8959521  65.6987353  41.9188534 108.4523376  64.9123732  41.6009438
 109.5576735  65.8866504  41.2532424 103.6546643  67.2283155  36.4449212
 104.2054068  67.1000218  35.6726206 102.8158118  67.5278044  36.0944105
 110.9940759  65.9790153  39.9469935 110.9759235  66.7999034  39.4550204
 111.9160680  65.8544229  40.1720076 107.4513814  63.4934283  40.7893443
 107.9842150  62.7322571  40.5592751 106.9227895  63.2007935  41.5317598
 110.6183509  48.5994349  36.3187085 110.2747778  49.4895990  36.2426196
 110.9862471  48.4096006  35.4556670  98.6869359  60.9227879  29.1375687
  99.5244581  61.3324888  28.9209395  98.8647627  59.9827321  29.1075881
 110.5833791  58.5902960  24.8259520 110.0680415  59.3607564  25.0647907
 110.3111100  57.9168096  25.4492581 108.1680902  53.4352661  29.8844758
 107.3122499  53.0459511  29.7050397 108.5807854  53.5144621  29.0244544
 109.6980049  50.9699004  34.2836318 109.1944845  50.9329139  33.4704123
 109.9910656  51.8791747  34.3432975 105.9422935  51.0537734  33.2902500
 106.8075932  50.8580542  32.9308389 106.0100444  50.8248085  34.2171857
 115.5568065  61.3435314  26.7612694 114.7797508  61.0046474  26.3167856
 116.2359546  61.3487938  26.0867659 110.3720094  56.4630052  26.6519301
 110.0670230  56.7776201  27.5029444 111.3250537  56.5411472  26.6946634
 108.8166526  62.6220275  28.3012255 108.2887888  61.8873035  27.9885493
 108.3154029  63.3994952  28.0552224 113.7959372  60.8169296  33.4179301
 113.1383047  61.5068557  33.5059430 114.5999772  61.2065728  33.7613288
 103.5485254  53.2839942  30.6618867 104.1229006  53.0615123  29.9292060
 104.1356236  53.3528636  31.4147468 112.6064831  59.1713668  31.4683243
 113.1196713  59.8043660  31.9704953 113.2566055  58.5714864  31.1026603
 103.8754841  55.3144403  24.6814752 103.0392153  55.6519089  25.0024027
 103.7359611  55.1793382  23.7441889 105.8507922  50.1581190  29.3893936
 105.1972334  49.8430208  28.7650551 105.8088396  49.5356931  30.1153759
 106.9619126  60.4400486  21.3047228 106.0546188  60.2089739  21.5038377
 107.4590158  59.6438105  21.4921210 109.8687205  69.1497993  24.2243914
 109.1948904  69.4529689  24.8328872 110.2553027  69.9527073  23.8749371
 109.0845662  56.6463124  33.7141584 108.1668223  56.8678071  33.5563272
 109.5005806  56.7209434  32.8553291 109.8680710  58.0454540  28.8444264
 110.6152529  58.5575937  28.5351386 110.1372299  57.7238592  29.7048658
 108.1407360  60.5413080  25.8271218 107.2318579  60.2572113  25.9243688
 108.1702444  60.9612159  24.9674525 113.3726627  64.1519670  29.5962386
 112.9188954  63.3110580  29.6527576 112.7420594  64.7881068  29.9337166
 112.3159547  55.0811656  30.8263053 111.5782304  54.5689042  31.1573296
 112.5686320  54.6412038  30.0146330 111.8159567  65.9896167  30.5312204
 112.1082541  66.5501224  29.8124570 112.3258187  66.2824728  31.2865363
 112.4171174  47.8587908  31.4204823 112.7230051  46.9985271  31.1330738
 113.1423779  48.4505528  31.2203817  98.7095530  58.2618595  29.8086421
  98.5119930  57.6687955  29.0837487  98.1542194  57.9570805  30.5262359
 106.6892254  58.1541701  31.9281014 106.7440864  57.2015537  31.8523490
 105.8783456  58.3101140  32.4122312 107.8383448  62.0821824  23.1659297
 107.4002878  61.3657683  22.7064934 108.5793889  62.3097939  22.6044388
 104.6284614  56.7718761  29.6871393 103.8152479  57.0712931  30.0936585
 105.1243608  56.3774450  30.4045875 106.7793192  66.7676518  31.6205657
 106.7369371  66.9937364  30.6914189 107.6955891  66.5339892  31.7691458
 110.2258826  57.2360585  38.5186286 110.5808213  57.4632058  39.3780752
 110.8730957  57.5678962  37.8963542 115.9556563  60.3579021  29.2235615
 115.8174461  60.5480617  28.2956805 115.5992781  61.1198404  29.6803667
 104.1198689  54.3437116  35.3032627 104.7598068  54.2025875  34.6055591
 103.2876219  54.0571630  34.9271229 115.9825942  62.4255548  34.2346887
 116.4162449  62.3330837  35.0829941 116.6957523  62.4013049  33.5966903
 104.8958993  63.6439547  31.4167620 105.6899591  63.1489867  31.2150195
 104.1850685  63.1157410  31.0535326 109.7153837  66.0257642  35.7679988
 109.7690859  66.5948579  36.5357703 108.8468618  66.1959527  35.4034025
 101.2041756  57.7882628  27.4927373 100.2739344  57.7267084  27.7097335
 101.2999228  57.2658581  26.6964014 101.1227305  54.3137441  30.0805614
 101.3834122  55.2282774  29.9714775 101.9444477  53.8461884  30.2302227
 102.5952230  55.7275198  37.2504439 103.2675284  55.5192561  36.6017088
 101.7682017  55.5297284  36.8109671 116.8441492  62.4679249  36.7679772
 117.0377382  63.3725059  37.0139047 116.7442110  62.0086668  37.6018357
 108.4977802  52.3537139  39.2670100 107.8505717  53.0527089  39.1734576
 109.2678818  52.7873283  39.6346348 111.9056600  62.6185992  42.3420653
 111.7542107  62.3896543  41.4250737 111.8961280  63.5756593  42.3551998
 108.6741937  60.1917904  37.3266919 109.6033997  60.3429064  37.1535887
 108.2532967  60.2801925  36.4715566 107.4730269  64.2168569  35.0965457
 107.3341354  63.8487353  35.9691395 106.6844865  64.7316208  34.9249415
 108.0678421  69.3177665  26.4390994 108.2430176  68.8465708  27.2536616
 107.3811209  69.9443431  26.6672254 109.0235484  63.5950171  32.4854295
 108.6885316  63.5550941  33.3811945 108.5239429  62.9294887  32.0124705
 102.9979728  59.0017801  38.0106876 102.8599526  58.2698040  38.6118415
 103.9084651  58.9126702  37.7291064 111.9594675  60.9406206  22.7591354
 111.3423846  60.2153034  22.6624407 111.4911164  61.7015566  22.4158429
 105.6262028  58.7137761  37.4990556 106.3361647  58.0730953  37.4577174
 105.5831336  58.9650656  38.4216736 113.6148807  65.6505114  40.4197135
 113.5561353  64.9664334  39.7527718 114.0168325  66.3924104  39.9677761
 104.3390962  55.7002979  39.3186195 103.8028319  55.2493717  39.9707791
 103.7507671  55.8348887  38.5756659 102.6339506  72.4667028  33.2130854
 102.8736104  73.0985552  33.8909872 101.7908702  72.1155068  33.4996213
 103.7493221  55.1591630  21.8812659 102.8722688  55.0380431  21.5174905
 104.2250974  54.3677708  21.6291547 113.6166214  63.6144698  38.6511115
 112.7292993  63.2770620  38.7737513 114.1864765  62.8827729  38.8879880
  95.2695361  59.9468790  31.9754166  95.9566401  59.6330520  31.3875181
  95.1143490  60.8510154  31.7021417 100.0730084  54.8358986  36.4039190
  99.9888272  54.2284656  35.6689600  99.2512790  55.3268005  36.4048686
 107.1467368  68.2746150  35.6172358 107.0737539  69.0801122  36.1291662
 106.7044761  68.4738116  34.7920379 106.9357147  67.5117920  29.1275179
 106.1524669  68.0539601  29.2213404 107.6349892  68.0291900  29.5269420
 110.2453797  53.3212550  31.7709385 110.7422497  52.5682512  31.4510455
 109.4740779  53.3576866  31.2052594 118.0983555  59.0252915  33.4127676
 118.0873431  59.9077631  33.0421609 117.2300934  58.6724466  33.2182213
 109.6066051  68.1732984  37.7730516 110.3194023  68.8080449  37.7006418
 109.1156080  68.2696850  36.9570518 111.3283578  62.0784237  29.3447808
 110.3939857  62.1985700  29.1752512 111.5060247  61.1756704  29.0807818
 106.8288766  55.4629933  31.4981069 106.4586554  54.9100973  32.1861975
 107.3247859  54.8588066  30.9456069 114.7156129  57.9201556  29.8797842
 115.1816582  58.7529548  29.8058145 115.1663630  57.4546538  30.5843101
 104.6577965  65.9227428  38.5936087 105.3587424  66.5563911  38.7465481
 104.1873080  66.2642159  37.8331726 112.7832361  64.2645378  26.8783994
 113.0592204  64.1501972  27.7877868 111.9136859  63.8662862  26.8396167
 112.6872792  50.2882143  33.9188744 111.7735872  50.5186370  34.0870950
 113.1165894  50.3720587  34.7702776 112.4579251  58.4772035  36.4188638
 111.8050701  58.7247943  35.7641090 112.8359631  57.6636173  36.0851115
 109.4186425  68.5131728  30.5216808 109.6008819  67.6953384  30.9844560
 110.2419411  68.7299421  30.0841698 109.7528590  67.4399914  27.7831856
 110.2816357  66.9292368  27.1702018 110.0156810  67.1242444  28.6477389
 108.5066824  59.2191846  42.9054675 107.8307461  59.1185976  43.5757050
 109.3294458  59.0631060  43.3690672 100.2545683  65.4563783  35.5267190
 100.8399120  64.7107471  35.6595094 100.0570521  65.7667740  36.4103854
 103.1084338  68.4915030  30.5429632 102.4394713  68.9761158  30.0593672
 102.9697208  68.7384251  31.4573011  94.8463338  58.0269383  34.2471633
  94.8847437  57.4932974  35.0408751  94.3403630  57.5004589  33.6282610
 107.2489607  70.5258774  37.1412291 107.8007915  70.6890395  37.9061376
 107.5895800  71.1163212  36.4692315 102.2254100  52.8733924  37.7434175
 102.2895426  53.7348755  37.3311573 102.1621220  52.2607925  37.0106534
 101.7006372  54.9457056  41.3907210 102.3278411  54.5634133  42.0044734
 100.8434291  54.7271258  41.7562902 112.1000481  65.3520031  42.9960945
 112.6440385  65.9649990  42.5015900 111.5187326  65.9099610  43.5127958
  98.4771915  56.7533485  27.3225564  98.7725356  55.8444164  27.2692618
  97.5759951  56.7321225  27.0006567 110.3857994  68.4740749  34.1275973
 110.2609133  67.6730489  33.6186918 111.0437085  68.9686943  33.6389943
 102.0066162  54.8289482  33.3053113 101.2852748  55.4425450  33.1660586
 102.7959418  55.3647247  33.2269759 112.4492902  66.2749769  35.7555523
 111.5023238  66.1555121  35.6833850 112.7975675  65.3872267  35.8381784
 104.8092476  52.1643908  39.5793765 105.3326877  52.4106205  40.3420074
 104.5904809  52.9963943  39.1596902 100.2059757  54.4347583  27.4464890
  99.8772463  53.5544962  27.2639995 100.5599127  54.3795252  28.3341279
 109.4539336  66.0702486  31.9559875 109.3064298  65.1419193  32.1367445
 110.2792829  66.0922576  31.4716950 103.3201580  54.7220553  27.8140367
 103.6597652  55.2506474  27.0918976 103.7673700  55.0600959  28.5898934
 113.0573457  66.8931044  33.0424748 113.9820005  66.6873906  32.9049199
 112.8888761  66.6447446  33.9514089 106.0145021  53.1057603  37.2643435
 105.6741841  52.3065416  37.6664115 105.3084027  53.4059314  36.6920268
 106.6661492  50.1906916  35.7170758 107.4887562  49.7167394  35.5949649
 106.9099556  50.9697400  36.2169445 105.3069727  53.2195174  26.0133660
 106.0278089  53.5976427  25.5097377 104.6835031  53.9384051  26.1168638
 109.4500850  53.9240323  26.9491992 109.6664464  54.8064961  26.6480820
 108.9694917  53.5326537  26.2197634 104.1900071  56.8826037  33.5262737
 104.0444652  57.1966340  34.4187018 103.7125275  57.5010937  32.9733636
 106.0496454  53.8728584  33.5743626 106.0358023  52.9769678  33.2375924
 106.7668882  53.8799248  34.2081913 107.9022585  54.3065925  35.6196754
 107.6440363  55.2282995  35.6181084 107.3707625  53.9096359  36.3097218
 112.8468774  67.4116712  28.3986839 113.0205651  66.8463134  27.6460692
 113.3397665  68.2117607  28.2166329  98.6645733  59.4231381  36.4650398
  98.1199201  60.1991189  36.5970672  99.5425083  59.7702185  36.3069520
 105.4533350  52.7542965  28.8431197 105.5749261  51.8259611  29.0422084
 105.1635392  52.7681651  27.9309512 108.3224540  50.4397875  31.9797916
 108.3446237  50.5037208  31.0249896 108.7392599  49.6002384  32.1738423
 113.8343946  66.7283476  25.4983738 114.5294851  67.3490169  25.7171052
 114.1767096  65.8778827  25.7736115  99.4511755  58.5501277  39.3580555
  98.7093491  58.6983913  39.9445185  99.1304500  58.8109543  38.4947304
 115.7335369  64.1783182  27.0271068 116.2586693  64.5170455  26.3020388
 115.6457722  63.2430197  26.8434203 107.3955418  68.0917255  39.1560945
 107.7042544  67.8466402  40.0283645 108.1930900  68.2963894  38.6679815
 107.4176030  70.2455165  31.3866322 106.9781020  69.7531544  32.0799178
 108.1684147  69.7028133  31.1458397  99.8968369  66.4366706  31.3890950
 100.7226389  66.1370478  31.0089593  99.5462421  65.6674328  31.8380738
 104.8649902  65.7893174  33.4588623 104.2429911  65.1263879  33.1590851
 105.5354769  65.8154306  32.7762271  98.0976974  64.3553032  32.3479883
  97.2608882  63.9275207  32.1663884  98.0700619  64.5485476  33.2850674
 104.9374430  54.2674962  43.0521129 104.9862585  55.1437085  42.6698899
 105.4796944  53.7252355  42.4792772 115.4229275  64.8116085  42.3322266
 114.6324819  64.7940224  41.7926766 115.1862630  65.3504379  43.0871303
 115.5427150  61.6608552  39.6454995 115.5925155  61.4958559  40.5870518
 115.4341074  60.7935811  39.2552876 104.4263409  64.3397097  26.9347084
 104.5751529  65.0232562  26.2813756 105.2329852  64.3202188  27.4496539
 112.8330913  57.6439480  40.9614302 113.7340775  57.5045945  40.6698299
 112.9078887  57.8093935  41.9012479 107.1673718  55.0206335  39.8067488
 106.2977027  55.3139901  39.5350076 107.4033198  55.6046780  40.5274752
 117.0445347  64.0805493  39.8897016 116.7530155  64.4435474  40.7260477
 116.4317478  63.3672502  39.7110348 115.2932535  59.2038108  38.3577074
 115.7686657  59.3965754  37.5495926 114.3698101  59.2597294  38.1120458
 102.1816042  60.3662275  27.9408153 101.9362084  59.4624605  28.1388363
 102.3511957  60.3679426  26.9987631 109.8712752  51.2385951  37.3232908
 110.3894696  51.9746978  36.9979397 109.5167885  51.5449945  38.1579667
 101.4511690  56.0990633  25.4394314 100.7580934  56.1734988  24.7834350
 101.2063441  55.3350976  25.9615831 110.1225346  47.6586234  32.8433805
 110.4027100  46.9909423  33.4694231 110.9075953  47.8515330  32.3308469
 107.9258815  66.8345228  24.4058831 107.3532782  67.4535415  23.9529303
 108.4991608  67.3844590  24.9398753 113.9934204  56.0803868  36.5905380
 114.9451627  56.1801966  36.6117604 113.8237655  55.2882137  37.1003464
 112.0148584  53.1659451  36.7764781 111.4198516  53.4464464  36.0811270
 111.7298281  53.6553352  37.5481522 111.1456074  67.1182378  25.5367413
 112.0786747  67.0527940  25.7400289 111.0579287  67.9538645  25.0781946
 113.7744091  66.4348248  22.4971361 113.6957723  66.1008112  23.3907119
 114.5953758  66.9270016  22.4962833 116.4722282  59.3009988  35.7047680
 116.4398602  58.3625988  35.8907363 117.0822906  59.3794024  34.9713505
 108.3105613  58.1706041  21.7474884 109.2564718  58.0412249  21.8163302
 107.9319858  57.4320703  22.2244312 116.6216771  56.0921031  35.7505963
 116.1055819  55.3079488  35.5635892 117.5056719  55.7639748  35.9152482
 114.2827498  49.8362047  31.7101775 114.0852319  49.5277135  32.5945107
 114.8927203  50.5623686  31.8399705 108.1944306  62.2223787  43.2075541
 109.1147315  62.4002386  43.4015587 108.1593889  61.2779832  43.0555240
 106.4948530  56.0956017  21.6829769 105.5879986  55.7989130  21.7592482
 106.7724511  55.7985835  20.8164055  97.4126471  57.4162380  32.1328815
  97.0929255  56.5627689  31.8403189  96.8659899  57.6310959  32.8886783
 101.1906378  60.1324821  35.8498322 101.4092388  61.0641929  35.8686356
 101.6032152  59.7732796  36.6353126 108.1110596  50.6392907  27.8374010
 107.3011324  50.2939992  28.2129256 108.7995013  50.3300450  28.4261622
 110.0401144  49.7170954  29.4598307 110.5932183  50.1366407  30.1188330
 110.2771231  48.7906702  29.5021263 106.0634243  55.7058027  45.2401071
 105.9630970  56.6552384  45.1713162 105.8455786  55.3776266  44.3677141
 105.2647315  52.9542952  21.8241748 106.1266479  53.2797851  22.0837565
 105.4497659  52.1674448  21.3114814  97.2814731  61.0365292  34.1021937
  96.5878202  60.6219245  33.5891891  98.0287722  61.0785828  33.5055356
 113.4179951  51.8271479  28.9676971 112.8378620  52.4856283  28.5855023
 113.1515884  51.0048823  28.5564389 111.8683518  51.2276536  31.1698291
 112.3683296  51.3393071  30.3612610 112.5119126  50.9237589  31.8099100
 105.9265514  59.1355166  44.0566132 105.4432595  59.9355526  44.2630021
 106.0126453  59.1463111  43.1033576  99.1951473  60.9683546  31.9787952
  99.1722161  61.0671233  31.0269835  99.5052110  61.8148697  32.3005118
 101.8538851  63.0259701  36.0934566 102.8082105  62.9943643  36.0264498
 101.6551375  62.5650324  36.9084792 102.4438233  61.5960817  38.6605364
 103.2631122  62.0904895  38.6840201 102.7175041  60.6792785  38.6322931
 112.2004829  53.9871569  28.0233319 111.3130684  54.2721220  27.8053514
 112.6158818  53.8265332  27.1760596 115.5519365  54.0118090  31.7387659
 116.3279756  54.5014543  32.0112275 114.8267500  54.4376144  32.1959528
 100.2089080  68.5679320  33.1104764 100.0743548  67.8079721  32.5442762
  99.7921142  69.2920220  32.6433553 111.3448043  63.7516244  22.1181339
 112.0483893  63.9566246  22.7338995 110.6210692  64.3193006  22.3830423
 112.1745853  59.5026105  28.2383609 112.1181054  59.9594656  27.3991242
 112.7274196  58.7416790  28.0606452 115.9850659  55.2915837  29.0633729
 115.7287593  54.8912473  29.8941937 115.3603527  56.0059631  28.9383868
 103.3658206  69.4648637  33.3223207 103.2490590  70.4094070  33.2201897
 102.5450652  69.1622199  33.7109006 113.2534740  64.1898773  24.1679799
 114.0880344  63.7579971  23.9857274 113.0919083  64.0180787  25.0956694
 112.9080632  60.6930886  25.5336139 112.8529436  60.5275158  24.5924583
 112.2826688  61.4006919  25.6898328  97.6973147  55.9298951  39.3597561
  98.3432011  55.4197905  39.8484786  97.4890298  56.6667632  39.9340986
 110.2226540  62.9979798  44.8589701 111.0917699  63.1720450  44.4976336
 109.7433291  63.8174215  44.7365431 106.2176758  50.1938995  25.1121457
 106.2055428  51.1380835  25.2689728 107.1100180  50.0109141  24.8180918
 104.3912720  70.1176899  36.5379135 105.2939966  70.1500509  36.8545630
 104.1650090  69.1877350  36.5525471 106.1466322  68.8707886  33.1989214
 105.1961953  68.8709747  33.0853586 106.4498808  68.1240620  32.6825248
 110.0328877  46.7881772  29.3667394 109.2661273  46.2340259  29.5124076
 110.4439582  46.8603641  30.2281546 102.0370638  53.0766568  43.4572575
 102.9002100  52.7203373  43.6675900 101.4636049  52.7380463  44.1447979
 114.5495537  76.5131329  30.1893392 113.9860402  76.4221266  29.4209680
 114.4347932  75.6931233  30.6695884 112.0959969  78.0082520  33.0277612
 112.8881261  77.6673345  32.6123912 112.3356619  78.1177495  33.9479766
 114.0550723  77.2691433  25.8994991 114.8281599  76.7220421  25.7607867
 114.4076122  78.1335683  26.1109452 115.8935766  78.5967816  39.1061890
 115.6025632  79.5013447  38.9908557 116.5292750  78.6384343  39.8205960
 116.8191973  75.9744664  35.6963250 117.4155545  75.7500687  34.9820213
 116.8766944  75.2329410  36.2988698 116.3917001  73.4284100  23.5313441
 116.6442522  72.9065621  22.7696904 115.4541560  73.2650245  23.6340125
 116.1113290  75.3312206  25.7337816 115.9949548  74.6557109  26.4018900
 116.2215550  74.8444579  24.9169969 118.0950318  69.8212252  24.4345854
 118.2624720  70.6892489  24.8016325 117.9047487  69.9839534  23.5107143
 114.3038132  74.7343028  32.1348388 113.3788629  74.6019242  32.3426080
 114.5522545  75.5137247  32.6318331 118.0739538  72.2769910  25.4192520
 117.9539164  72.7226961  26.2578001 117.3792127  72.6255228  24.8606059
 111.6646943  74.3776302  32.9692178 111.7939324  74.6310781  33.8831589
 110.9844395  74.9704010  32.6496833 115.8346431  85.0473552  29.0682652
 115.7570460  85.9981377  29.1471132 115.2308074  84.7019424  29.7257578
 116.5810033  75.0286870  41.2861986 117.3224717  75.5671914  41.0096809
 115.8747018  75.6553159  41.4433537 114.8246230  77.0163091  33.8416284
 115.3947587  77.4450359  33.2033769 115.4154342  76.7345676  34.5400470
 116.8691035  73.5914762  27.7126086 117.5715078  74.0435806  28.1800013
 116.5371663  72.9498581  28.3405979 115.3171396  72.1826519  42.0877296
 114.6870057  72.8642799  42.3212692 115.2107484  72.0709600  41.1430434
 110.6116369  71.8498315  33.0143220 109.8215423  72.1055843  32.5383330
 111.1027616  72.6646652  33.1195260 112.5631114  72.2142894  29.9726696
 111.7662278  72.3261588  30.4910192 112.3356706  72.5529546  29.1067587
 108.8954072  72.1028805  35.4458211 109.1462110  72.9875815  35.7115787
 109.4313620  71.9233407  34.6733302 114.5952139  66.4847284  44.4502547
 114.2019085  65.9313483  45.1250191 115.4118279  66.7957863  44.8409064
 111.5614197  77.9231143  28.3616117 112.0738717  78.7174393  28.5121681
 112.2136910  77.2257433  28.2949718 113.3709082  81.0396899  30.4438870
 113.5475710  81.9614864  30.2559854 114.1665915  80.7255318  30.8733250
 117.5120100  67.9005163  42.0422803 118.2529814  68.5012317  41.9627266
 117.7438023  67.1582801  41.4840846 112.6561438  73.0861531  40.3201033
 112.5414953  72.1846788  40.6208132 111.8005956  73.3325228  39.9685849
 114.4940397  82.5575073  36.4449212 115.0447822  82.4292136  35.6726206
 113.6551873  82.8569962  36.0944105 109.5263114  76.2519797  29.1375687
 110.3638336  76.6616805  28.9209395 109.7041381  75.3119239  29.1075881
 116.7816689  66.3829651  33.2902500 117.6469686  66.1872460  32.9308389
 116.8494198  66.1540003  34.2171857 114.3879008  68.6131859  30.6618867
 114.9622760  68.3907041  29.9292060 114.9749991  68.6820554  31.4147468
 114.7148596  70.6436320  24.6814752 113.8785908  70.9811007  25.0024027
 114.5753365  70.5085300  23.7441889 116.6901676  65.4873108  29.3893936
 116.0366088  65.1722125  28.7650551 116.6482150  64.8648849  30.1153759
 109.5489285  73.5910512  29.8086421 109.3513685  72.9979873  29.0837487
 108.9935949  73.2862722  30.5262359 117.5286008  73.4833619  31.9281014
 117.5834618  72.5307455  31.8523490 116.7177210  73.6393058  32.4122312
 115.4678368  72.1010678  29.6871393 114.6546234  72.4004849  30.0936585
 115.9637363  71.7066367  30.4045875 114.9592443  69.6729034  35.3032627
 115.5991822  69.5317793  34.6055591 114.1269974  69.3863547  34.9271229
 115.7352747  78.9731464  31.4167620 116.5293346  78.4781785  31.2150195
 115.0244439  78.4449327  31.0535326 112.0435511  73.1174546  27.4927373
 111.1133099  73.0559002  27.7097335 112.1392983  72.5950499  26.6964014
 111.9621060  69.6429359  30.0805614 112.2227877  70.5574692  29.9714775
 112.7838232  69.1753801  30.2302227 113.4345985  71.0567116  37.2504439
 114.1069038  70.8484478  36.6017088 112.6075771  70.8589202  36.8109671
 113.8373482  74.3309719  38.0106876 113.6993280  73.5989958  38.6118415
 114.7478406  74.2418619  37.7291064 116.4655783  74.0429678  37.4990556
 117.1755401  73.4022871  37.4577174 116.4225091  74.2942573  38.4216736
 115.1784717  71.0294896  39.3186195 114.6422074  70.5785635  39.9707791
 114.5901425  71.1640805  38.5756659 113.4733260  87.7958946  33.2130854
 113.7129859  88.4277470  33.8909872 112.6302457  87.4446986  33.4996213
 114.5886976  70.4883548  21.8812659 113.7116442  70.3672348  21.5174905
 115.0644729  69.6969626  21.6291547 106.1089116  75.2760707  31.9754166
 106.7960156  74.9622437  31.3875181 105.9537245  76.1802072  31.7021417
 110.9123838  70.1650904  36.4039190 110.8282027  69.5576574  35.6689600
 110.0906544  70.6559922  36.4048686 117.9861122  83.6038068  35.6172358
 117.9131294  84.4093040  36.1291662 117.5438515  83.8030034  34.7920379
 117.6682521  70.7921851  31.4981069 117.2980308  70.2392891  32.1861975
 118.1641613  70.1879984  30.9456069 115.4971719  81.2519346  38.5936087
 116.1981179  81.8855828  38.7465481 115.0266834  81.5934077  37.8331726
 111.0939437  80.7855701  35.5267190 111.6792874  80.0399388  35.6595094
 110.8964276  81.0959657  36.4103854 113.9478093  83.8206948  30.5429632
 113.2788468  84.3053076  30.0593672 113.8090962  84.0676168  31.4573011
 105.6857092  73.3561301  34.2471633 105.7241192  72.8224891  35.0408751
 105.1797385  72.8296506  33.6282610 113.0647854  68.2025841  37.7434175
 113.1289181  69.0640672  37.3311573 113.0014975  67.5899843  37.0106534
 112.5400127  70.2748974  41.3907210 113.1672166  69.8926051  42.0044734
 111.6828046  70.0563176  41.7562902 109.3165670  72.0825403  27.3225564
 109.6119111  71.1736081  27.2692618 108.4153705  72.0613142  27.0006567
 112.8459917  70.1581399  33.3053113 112.1246502  70.7717367  33.1660586
 113.6353172  70.6939164  33.2269759 115.6486230  67.4935826  39.5793765
 116.1720632  67.7398123  40.3420074 115.4298563  68.3255861  39.1596902
 111.0453511  69.7639501  27.4464890 110.7166217  68.8836880  27.2639995
 111.3992882  69.7087169  28.3341279 114.1595334  70.0512470  27.8140367
 114.4991407  70.5798392  27.0918976 114.6067455  70.3892877  28.5898934
 116.8538775  68.4349521  37.2643435 116.5135596  67.6357334  37.6664115
 116.1477781  68.7351232  36.6920268 116.1463481  68.5487092  26.0133660
 116.8671844  68.9268345  25.5097377 115.5228786  69.2675969  26.1168638
 115.0293826  72.2117954  33.5262737 114.8838406  72.5258257  34.4187018
 114.5519029  72.8302855  32.9733636 116.8890209  69.2020502  33.5743626
 116.8751777  68.3061595  33.2375924 117.6062637  69.2091166  34.2081913
 109.5039488  74.7523299  36.4650398 108.9592956  75.5283107  36.5970672
 110.3818838  75.0994103  36.3069520 116.2927105  68.0834882  28.8431197
 116.4143016  67.1551529  29.0422084 116.0029147  68.0973568  27.9309512
 110.2905510  73.8793195  39.3580555 109.5487246  74.0275830  39.9445185
 109.9698254  74.1401460  38.4947304 110.7362123  81.7658624  31.3890950
 111.5620143  81.4662395  31.0089593 110.3856175  80.9966246  31.8380738
 115.7043657  81.1185092  33.4588623 115.0823666  80.4555797  33.1590851
 116.3748524  81.1446224  32.7762271 108.9370728  79.6844950  32.3479883
 108.1002637  79.2567124  32.1663884 108.9094374  79.8777393  33.2850674
 115.7768184  69.5966880  43.0521129 115.8256340  70.4729003  42.6698899
 116.3190698  69.0544273  42.4792772 115.2657164  79.6689015  26.9347084
 115.4145284  80.3524480  26.2813756 116.0723607  79.6494105  27.4496539
 118.0067473  70.3498252  39.8067488 117.1370782  70.6431818  39.5350076
 118.2426953  70.9338697  40.5274752 113.0209797  75.6954193  27.9408153
 112.7755838  74.7916523  28.1388363 113.1905711  75.6971343  26.9987631
 112.2905444  71.4282550  25.4394314 111.5974689  71.5026905  24.7834350
 112.0457196  70.6642894  25.9615831 117.3342285  71.4247935  21.6829769
 116.4273740  71.1281047  21.7592482 117.6118266  71.1277753  20.8164055
 108.2520225  72.7454298  32.1328815 107.9323009  71.8919606  31.8403189
 107.7053653  72.9602876  32.8886783 112.0300133  75.4616739  35.8498322
 112.2486142  76.3933847  35.8686356 112.4425906  75.1024714  36.6353126
 116.9027998  71.0349945  45.2401071 116.8024725  71.9844302  45.1713162
 116.6849540  70.7068184  44.3677141 116.1041069  68.2834870  21.8241748
 116.9660233  68.6089768  22.0837565 116.2891413  67.4966366  21.3114814
 108.1208485  76.3657210  34.1021937 107.4271957  75.9511162  33.5891891
 108.8681476  76.4077746  33.5055356 116.7659268  74.4647084  44.0566132
 116.2826350  75.2647444  44.2630021 116.8520207  74.4755029  43.1033576
 110.0345228  76.2975463  31.9787952 110.0115916  76.3963151  31.0269835
 110.3445864  77.1440614  32.3005118 112.6932605  78.3551618  36.0934566
 113.6475859  78.3235561  36.0264498 112.4945129  77.8942242  36.9084792
 113.2831988  76.9252734  38.6605364 114.1024877  77.4196813  38.6840201
 113.5568795  76.0084703  38.6322931 111.0482834  83.8971238  33.1104764
 110.9137302  83.1371639  32.5442762 110.6314897  84.6212138  32.6433553
 114.2051960  84.7940555  33.3223207 114.0884344  85.7385987  33.2201897
 113.3844406  84.4914116  33.7109006 108.5366902  71.2590868  39.3597561
 109.1825765  70.7489822  39.8484786 108.3284053  71.9959550  39.9340986
 117.0570512  65.5230913  25.1121457 117.0449182  66.4672753  25.2689728
 117.9493934  65.3401058  24.8180918 115.2306474  85.4468817  36.5379135
 116.1333721  85.4792427  36.8545630 115.0043844  84.5169268  36.5525471
 116.9860076  84.1999803  33.1989214 116.0355707  84.2001665  33.0853586
 117.2892562  83.4532538  32.6825248 112.8764393  68.4058485  43.4572575
 113.7395854  68.0495290  43.6675900 112.3029804  68.0672380  44.1447979
 116.9482870  90.6052625  31.9754166 117.6353910  90.2914355  31.3875181
 116.7930999  91.5093990  31.7021417 116.5250847  88.6853218  34.2471633
 116.5634946  88.1516809  35.0408751 116.0191139  88.1588424  33.6282610
  70.1158244   3.4853397  19.9376160  70.3554842   4.1171922  20.6155179
  69.2727440   3.1341437  20.2241520  82.0314275   7.5317698  16.9138698
  81.4679140   7.4407635  16.1454986  81.9166670   6.7117603  17.3941191
  79.5778707   9.0268890  19.7522919  80.3699999   8.6859714  19.3369218
  79.8175357   9.1363865  20.6725072  81.5369461   8.2877803  12.6240298
  82.3100337   7.7406790  12.4853173  81.8894860   9.1522052  12.8354759
  83.3754503   9.6154185  25.8307197  83.0844369  10.5199816  25.7153863
  84.0111488   9.6570713  26.5451267  84.3010710   6.9931034  22.4208557
  84.8974283   6.7687056  21.7065520  84.3585682   6.2515779  23.0234004
  88.3344389   9.3015601  22.8256991  88.0345112  10.2040640  22.7172798
  87.9895448   9.0347784  23.6778144  81.7856870   5.7529398  18.8593695
  80.8607367   5.6205612  19.0671387  82.0341283   6.5323617  19.3563637
  79.1465681   5.3962671  19.6937484  79.2758062   5.6497150  20.6076896
  78.4663132   5.9890379  19.3742139  83.3165168  16.0659921  15.7927958
  83.2389198  17.0167746  15.8716439  82.7126812  15.7205794  16.4502885
  84.0628770   6.0473240  28.0107292  84.8043455   6.5858284  27.7342116
  83.3565756   6.6739529  28.1678844  89.8612925   8.7503571  20.3631743
  89.2321787   8.9149285  19.6607810  89.4738587   9.1645181  21.1342707
  85.4140887   8.4877979  17.6281828  85.8779232   8.7665682  16.8386450
  85.1497685   7.5861424  17.4454918  82.3064968   8.0349461  20.5661591
  82.8766325   8.4636729  19.9279075  82.8973080   7.7532045  21.2645777
  92.1098916  10.2089923  22.4893807  92.9316360   9.8070111  22.2076489
  92.1061319  10.1058157  23.4409923  85.8755520   9.7573967  24.6454518
  85.9399952  10.2194374  25.4812690  85.1666444   9.1271332  24.7736828
  85.5903537  11.4242074  14.5133498  85.4549212  12.2693610  14.9418346
  86.1313350  11.6261352  13.7499432  79.0432935   8.9417512  15.0861423
  79.5557455   9.7360762  15.2366988  79.6955648   8.2443803  15.0195025
  80.8527819  12.0583268  17.1684176  81.0294448  12.9801233  16.9805160
  81.6484653  11.7441688  17.5978556  87.2172014  12.0465641  28.6433840
  86.7735868  11.2602019  28.3254745  87.8789227  12.2344791  27.9777731
  81.9759135  13.5761442  23.1694519  82.5266560  13.4478506  22.3971513
  81.1370611  13.8756331  22.8189411  89.3153252  12.3268441  26.6715241
  89.2971727  13.1477322  26.1795511  90.2373172  12.2022516  26.8965383
  85.7726306   9.8412570  27.5138750  86.3054643   9.0800858  27.2838058
  85.2440387   9.5486222  28.2562904  77.0081851   7.2706166  15.8620994
  77.8457073   7.6803175  15.6454701  77.1860119   6.3305609  15.8321188
  90.1372059  12.3374454  17.2557511  90.4295033  12.8979511  16.5369876
  90.6470679  12.6303015  18.0110670  77.0308023   4.6096882  16.5331727
  76.8332422   4.0166242  15.8082794  76.4754687   4.3049092  17.2507666
  85.1005684  13.1154805  18.3450964  85.0581863  13.3415651  17.4159496
  86.0168383  12.8818179  18.4936765  83.2171485   9.9917834  18.1412927
  84.0112083   9.4968154  17.9395502  82.5063177   9.4635697  17.7780632
  88.0366329  12.3735929  22.4925294  88.0903352  12.9426866  23.2603010
  87.1681111  12.5437814  22.1279331  90.2269093   8.9664279  29.0665960
  90.0754599   8.7374830  28.1496043  90.2173772   9.9234880  29.0797305
  85.7942761  10.5646856  21.8210764  85.6553847  10.1965640  22.6936702
  85.0057357  11.0794495  21.6494721  86.3890913  15.6655952  13.1636300
  86.5642669  15.1943996  13.9781923  85.7023701  16.2921719  13.3917561
  87.3447976   9.9428459  19.2099601  87.0097809   9.9029229  20.1057251
  86.8451922   9.2773175  18.7370012  91.9361299  11.9983401  27.1442441
  91.8773845  11.3142621  26.4773024  92.3380818  12.7402391  26.6923067
  80.9551998  18.8145315  19.9376160  81.1948596  19.4463839  20.6155179
  80.1121195  18.4633355  20.2241520  91.9378707   9.9622985  25.3756421
  91.0505485   9.6248907  25.4982820  92.5077258   9.2306016  25.6125187
  73.5907854   6.2947077  18.6999473  74.2778894   5.9808807  18.1120488
  73.4355982   7.1988442  18.4266724  85.4679860  14.6224438  22.3417664
  85.3950031  15.4279409  22.8536969  85.0257253  14.8216403  21.5165686
  85.2569640  13.8596208  15.8520486  84.4737161  14.4017888  15.9458710
  85.9562385  14.3770187  16.2514727  87.9278543  14.5211272  24.4975823
  88.6406516  15.1558736  24.4251724  87.4368572  14.6175138  23.6815825
  82.9790457  12.2705715  25.3181394  83.6799917  12.9042198  25.4710788
  82.5085572  12.6120447  24.5577033  87.7398917  14.8610016  17.2462114
  87.9221311  14.0431672  17.7089867  88.5631903  15.0777708  16.8087004
  88.0741082  13.7878201  14.5077163  88.6028849  13.2770655  13.8947325
  88.3369302  13.4720731  15.3722696  78.5758175  11.8042070  22.2512497
  79.1611612  11.0585758  22.3840401  78.3783014  12.1146027  23.1349160
  81.4296830  14.8393318  17.2674939  80.7607206  15.3239445  16.7838979
  81.2909700  15.0862538  18.1818317  73.1675830   4.3747670  20.9716940
  73.2059929   3.8411261  21.7654058  72.6616123   3.8482876  20.3527917
  85.5702099  16.8737061  23.8657597  86.1220407  17.0368683  24.6306682
  85.9108292  17.4641499  23.1937622  90.4212973  11.6998319  29.7206252
  90.9652877  12.3128277  29.2261206  89.8399818  12.2577897  30.2373265
  88.7070486  14.8219037  20.8521279  88.5821626  14.0208776  20.3432225
  89.3649577  15.3165230  20.3635249  90.7705395  12.6228057  22.4800830
  89.8235730  12.5033408  22.4079156  91.1188168  11.7350555  22.5627091
  87.7751828  12.4180773  18.6805182  87.6276790  11.4897480  18.8612752
  88.6005321  12.4400864  18.1962257  91.3785950  13.2409332  19.7670054
  92.3032497  13.0352193  19.6294506  91.2101253  12.9925733  20.6759396
  76.9858226   5.7709668  23.1895705  76.4411694   6.5469476  23.3215979
  77.8637576   6.1180473  23.0314826  77.7724248   4.8979564  26.0825862
  77.0305984   5.0462200  26.6690492  77.4516992   5.1587830  25.2192611
  85.7167910  14.4395543  25.8806252  86.0255037  14.1944689  26.7528951
  86.5143392  14.6442181  25.3925122  85.7388522  16.5933452  18.1111628
  85.2993513  16.1009831  18.8044485  86.4896639  16.0506420  17.8703703
  78.2180861  12.7844993  18.1136256  79.0438881  12.4848765  17.7334900
  77.8674913  12.0152616  18.5626045  83.1862394  12.1371461  20.1833930
  82.5642404  11.4742166  19.8836158  83.8567261  12.1632593  19.5007578
  76.4189466  10.7031320  19.0725190  75.5821375  10.2753494  18.8909191
  76.3913112  10.8963763  20.0095981  93.7441768  11.1594373  29.0567573
  92.9537311  11.1418511  28.5172072  93.5075122  11.6982666  29.8116610
  82.7475901  10.6875385  13.6592390  82.8964022  11.3710849  13.0059063
  83.5542345  10.6680475  14.1741846  95.3657839  10.4283781  26.6142323
  95.0742648  10.7913761  27.4505784  94.7529971   9.7150789  26.4355655
  80.5028534   6.7140562  14.6653459  80.2574576   5.8102892  14.8633669
  80.6724449   6.7157713  13.7232937  86.5156798   8.5702074  29.9320847
  87.4359807   8.7480673  30.1260894  86.4806381   7.6258119  29.7800547
  75.7338963   3.7640668  18.8574122  75.4141747   2.9105976  18.5648496
  75.1872391   3.9789246  19.6132089  79.5118870   6.4803109  22.5743628
  79.7304880   7.4120216  22.5931662  79.9244644   6.1211083  23.3598432
  75.6027223   7.3843579  20.8267244  74.9090694   6.9697532  20.3137198
  76.3500214   7.4264116  20.2300662  77.5163965   7.3161833  18.7033258
  77.4934654   7.4149520  17.7515141  77.8264602   8.1626984  19.0250425
  80.1751343   9.3737988  22.8179873  81.1294597   9.3421930  22.7509804
  79.9763867   8.9128612  23.6330099  80.7650725   7.9439104  25.3850670
  81.5843614   8.4383183  25.4085508  81.0387533   7.0271072  25.3568238
  78.5301572  14.9157607  19.8350071  78.3956040  14.1558008  19.2688069
  78.1133634  15.6398507  19.3678860  81.6870698  15.8126925  20.0468513
  81.5703082  16.7572357  19.9447204  80.8663144  15.5100486  20.4354313
  88.5439032   9.3458085  31.5835008  89.4130191   9.5198738  31.2221643
  88.0645783  10.1652502  31.4610737  82.7125212  16.4655186  23.2624442
  83.6152459  16.4978797  23.5790937  82.4862582  15.5355637  23.2770778
  84.4678814  15.2186173  19.9234520  83.5174445  15.2188035  19.8098893
  84.7711300  14.4718908  19.4070555 100.2031508  21.0546711  20.9880283
 100.8409918  20.9353459  20.2843623 100.0852350  22.0027555  21.0468235
  97.0121214  21.0074139  20.9241807  96.6739725  20.8915204  20.0362342
  97.8810982  20.6065305  20.9042814  92.8708030  22.8609616  16.9138698
  92.3072895  22.7699553  16.1454986  92.7560425  22.0409520  17.3941191
  97.4940997  22.1608991  26.8828013  97.4829638  21.7661789  26.0108517
  97.6561636  21.4275064  27.4761784  90.4172461  24.3560807  19.7522919
  91.2093753  24.0151632  19.3369218  90.6569112  24.4655782  20.6725072
  92.3763215  23.6169721  12.6240298  93.1494091  23.0698708  12.4853173
  92.7288614  24.4813970  12.8354759  94.2148258  24.9446103  25.8307197
  93.9238124  25.8491734  25.7153863  94.8505242  24.9862631  26.5451267
  95.1404465  22.3222951  22.4208557  95.7368037  22.0978974  21.7065520
  95.1979436  21.5807697  23.0234004  99.1738143  24.6307518  22.8256991
  98.8738866  25.5332557  22.7172798  98.8289203  24.3639702  23.6778144
  92.6250625  21.0821315  18.8593695  91.7001121  20.9497529  19.0671387
  92.8735038  21.8615535  19.3563637  89.9859436  20.7254589  19.6937484
  90.1151817  20.9789068  20.6076896  89.3056887  21.3182297  19.3742139
  94.1558923  31.3951839  15.7927958  94.0782953  32.3459664  15.8716439
  93.5520566  31.0497711  16.4502885  96.6476153  18.5679704  28.4489325
  95.8709487  19.1273624  28.4392190  97.2866716  19.0536487  28.9704195
  94.9022525  21.3765158  28.0107292  95.6437209  21.9150202  27.7342116
  94.1959510  22.0031446  28.1678844 100.3777865  23.5194298  26.6079454
 100.7861221  23.0776709  25.8634086  99.6555126  22.9446926  26.8613647
  96.7308935  18.4566905  23.9813011  97.5770130  18.8806318  24.1247660
  96.6707572  17.8000529  24.6751574 100.7006679  24.0795489  20.3631743
 100.0715542  24.2441203  19.6607810 100.3132341  24.4937098  21.1342707
  99.8808380  16.1171273  25.6394184  99.6369312  16.8713334  25.1028460
 100.1568310  16.4956621  26.4741431 101.8346843  22.6609886  24.3171450
 102.0463738  23.3041645  23.6405831 101.7876591  21.8272202  23.8493380
  96.2534641  23.8169897  17.6281828  96.7172987  24.0957600  16.8386450
  95.9891439  22.9153341  17.4454918  93.1458722  23.3641378  20.5661591
  93.7160079  23.7928647  19.9279075  93.7366834  23.0823963  21.2645777
  93.6383889  18.5304806  28.8122602  93.0082549  19.2121087  29.0457999
  93.5319977  18.4187887  27.8675741  88.9328861  18.1976602  19.7388526
  88.1427915  18.4534130  19.2628637  89.4240108  19.0124940  19.8440567
 102.9492671  25.5381841  22.4893807 103.7710114  25.1362028  22.2076489
 102.9455074  25.4350075  23.4409923  90.8843607  18.5621181  16.6972003
  90.0874770  18.6739875  17.2155499  90.6569199  18.9007833  15.8312894
  96.7149274  25.0865884  24.6454518  96.7793707  25.5486292  25.4812690
  96.0060198  24.4563249  24.7736828  87.2166564  18.4507092  22.1703517
  87.4674603  19.3354102  22.4361093  87.7526113  18.2711694  21.3978609
  96.4297292  26.7533992  14.5133498  96.2942967  27.5985528  14.9418346
  96.9707104  26.9553269  13.7499432  92.9164631  12.8325572  31.1747853
  92.5231577  12.2791770  31.8495498  93.7330772  13.1436150  31.5654371
  89.8826689  24.2709430  15.0861423  90.3951210  25.0652680  15.2366988
  90.5349402  23.5735720  15.0195025  91.6921574  27.3875186  17.1684176
  91.8688202  28.3093151  16.9805160  92.4878407  27.0733605  17.5978556
  95.8332592  14.2483451  28.7668110  96.5742306  14.8490604  28.6872572
  96.0650515  13.5061089  28.2086152  90.9773930  19.4339818  27.0446340
  90.8627446  18.5325075  27.3453438  90.1218448  19.6803515  26.6931156
  98.0565768  27.3757558  28.6433840  97.6129622  26.5893937  28.3254745
  98.7182982  27.5636709  27.9777731  92.8152889  28.9053360  23.1694519
  93.3660314  28.7770423  22.3971513  91.9764365  29.2048249  22.8189411
 100.1547006  27.6560358  26.6715241 100.1365482  28.4769239  26.1795511
 101.0766926  27.5314433  26.8965383  96.6120060  25.1704488  27.5138750
  97.1448397  24.4092776  27.2838058  96.0834141  24.8778140  28.2562904
  87.8475606  22.5998084  15.8620994  88.6850828  23.0095092  15.6454701
  88.0253874  21.6597526  15.8321188  98.2451909  18.3233329  20.4386890
  97.3274470  18.5448276  20.2808578  98.6612052  18.3979639  19.5798598
 100.9765813  27.6666372  17.2557511 101.2688788  28.2271429  16.5369876
 101.4864434  27.9594932  18.0110670  87.8701777  19.9388799  16.5331727
  87.6726177  19.3458160  15.8082794  87.3148441  19.6341010  17.2507666
  95.8498501  19.8311906  18.6526320  95.9047111  18.8785742  18.5768797
  95.0389703  19.9871345  19.1367619  93.7890861  18.4488966  16.4116699
  92.9758726  18.7483136  16.8181891  94.2849855  18.0544654  17.1291181
  95.9399439  28.4446723  18.3450964  95.8975617  28.6707569  17.4159496
  96.8562137  28.2110097  18.4936765  99.3865072  18.9130790  25.2431593
  99.7414460  19.1402263  26.1026059 100.0337204  19.2449167  24.6208848
  93.2804935  16.0207321  22.0277934  93.9204315  15.8796080  21.3300897
  92.4482466  15.7341835  21.6516536  94.0565239  25.3209752  18.1412927
  94.8505838  24.8260072  17.9395502  93.3456932  24.7927615  17.7780632
  98.8760084  27.7027847  22.4925294  98.9297106  28.2718783  23.2603010
  98.0074865  27.8729732  22.1279331  90.3648003  19.4652833  14.2172679
  89.4345591  19.4037289  14.4342641  90.4605475  18.9428786  13.4209321
  90.2833552  15.9907646  16.8050921  90.5440369  16.9052979  16.6960081
  91.1050724  15.5232089  16.9547534  91.7558477  17.4045403  23.9749745
  92.4281531  17.1962765  23.3262394  90.9288264  17.2067489  23.5354978
 106.0047738  24.1449454  23.4925079 106.1983629  25.0495264  23.7384354
 105.9048357  23.6856873  24.3263664  97.6584049  14.0307344  25.9915406
  97.0111964  14.7297294  25.8979883  98.4285065  14.4643488  26.3591655
 101.0662847  24.2956196  29.0665960 100.9148354  24.0666748  28.1496043
 101.0567527  25.2526798  29.0797305  97.8348184  21.8688109  24.0512226
  98.7640244  22.0199269  23.8781193  97.4139214  21.9572130  23.1960873
  96.6336515  25.8938774  21.8210764  96.4947601  25.5257558  22.6936702
  95.8451112  26.4086413  21.6494721  97.2284667  30.9947870  13.1636300
  97.4036423  30.5235913  13.9781923  96.5417455  31.6213636  13.3917561
  98.1841730  25.2720376  19.2099601  97.8491563  25.2321146  20.1057251
  97.6845676  24.6065092  18.7370012  92.1585974  20.6788006  24.7352183
  92.0205772  19.9468245  25.3363722  93.0690898  20.5896906  24.4536370
  94.7868275  20.3907966  24.2235862  95.4967894  19.7501158  24.1822481
  94.7437583  20.6420860  25.1462043 102.7755054  27.3275319  27.1442441
 102.7167600  26.6434539  26.4773024 103.1774572  28.0694309  26.6923067
  93.4997209  17.3773184  26.0431502  92.9634566  16.9263922  26.6953098
  92.9113918  17.5119092  25.3001966  91.7945753  34.1437233  19.9376160
  92.0342351  34.7755757  20.6155179  90.9514949  33.7925273  20.2241520
 102.7772461  25.2914903  25.3756421 101.8899240  24.9540825  25.4982820
 103.3471012  24.5597934  25.6125187  84.4301608  21.6238995  18.6999473
  85.1172648  21.3100725  18.1120488  84.2749737  22.5280359  18.4266724
  89.2336330  16.5129191  23.1284496  89.1494519  15.9054861  22.3934906
  88.4119037  17.0038210  23.1293993  96.3073614  29.9516355  22.3417664
  96.2343786  30.7571327  22.8536969  95.8651008  30.1508321  21.5165686
  96.0963394  29.1888125  15.8520486  95.3130916  29.7309805  15.9458710
  96.7956139  29.7062105  16.2514727  98.7672298  29.8503189  24.4975823
  99.4800270  30.4850654  24.4251724  98.2762327  29.9467055  23.6815825
  93.8184212  27.5997633  25.3181394  94.5193671  28.2334116  25.4710788
  93.3479326  27.9412364  24.5577033 101.6185497  20.1542240  23.1433944
 100.9656948  20.4018148  22.4886397 101.9965877  19.3406378  22.8096421
  98.5792671  30.1901933  17.2462114  98.7615066  29.3723589  17.7089867
  99.4025657  30.4069626  16.8087004  98.9134837  29.1170119  14.5077163
  99.4422603  28.6062573  13.8947325  99.1763056  28.8012649  15.3722696
  97.6673070  20.8962051  29.6299981  96.9913708  20.7956181  30.3002356
  98.4900704  20.7401265  30.0935978  89.4151930  27.1333988  22.2512497
  90.0005366  26.3877676  22.3840401  89.2176768  27.4437945  23.1349160
  92.2690585  30.1685235  17.2674939  91.6000960  30.6531363  16.7838979
  92.1303454  30.4154456  18.1818317  84.0069584  19.7039588  20.9716940
  84.0453684  19.1703179  21.7654058  83.5009877  19.1774794  20.3527917
  96.4095853  32.2028979  23.8657597  96.9614161  32.3660600  24.6306682
  96.7502047  32.7933417  23.1937622  91.3860347  14.5504129  24.4679482
  91.4501673  15.4118959  24.0556880  91.3227467  13.9378130  23.7351840
  90.8612619  16.6227261  28.1152516  91.4884658  16.2404338  28.7290041
  90.0040538  16.4041463  28.4808209 101.2606728  27.0290236  29.7206252
 101.8046632  27.6420195  29.2261206 100.6793573  27.5869815  30.2373265
  87.6378162  18.4303690  14.0470871  87.9331603  17.5214369  13.9937925
  86.7366198  18.4091430  13.7251873  99.5464241  30.1510954  20.8521279
  99.4215380  29.3500694  20.3432225 100.2043332  30.6457148  20.3635249
  91.1672409  16.5059687  20.0298420  90.4458995  17.1195654  19.8905893
  91.9565665  17.0417452  19.9515066 101.6099149  27.9519974  22.4800830
 100.6629485  27.8325326  22.4079156 101.9581922  27.0642472  22.5627091
  93.9698722  13.8414113  26.3039071  94.4933124  14.0876410  27.0665381
  93.7511056  14.6734148  25.8842209  89.3666003  16.1117788  14.1710196
  89.0378710  15.2315167  13.9885302  89.7205374  16.0565457  15.0586585
  98.6145582  27.7472691  18.6805182  98.4670545  26.8189398  18.8612752
  99.4399076  27.7692781  18.1962257 102.2179704  28.5701249  19.7670054
 103.1426252  28.3644111  19.6294506 102.0495008  28.3217650  20.6759396
  95.1751267  14.7827808  23.9888742  94.8348088  13.9835621  24.3909422
  94.4690274  15.0829519  23.4165575  95.8267739  11.8677121  22.4416065
  96.6493809  11.3937599  22.3194955  96.0705803  12.6467605  22.9414751
  93.3506318  18.5596241  20.2508044  93.2050899  18.8736544  21.1432325
  92.8731522  19.1781142  19.6978942  95.2102701  15.5498789  20.2988933
  95.1964270  14.6539883  19.9621231  95.9275129  15.5569453  20.9327219
  97.0628832  15.9836130  22.3442061  96.8046609  16.9053200  22.3426391
  96.5313872  15.5866564  23.0342525  87.8251980  21.1001586  23.1895705
  87.2805448  21.8761394  23.3215979  88.7031330  21.4472390  23.0314826
  88.6118002  20.2271482  26.0825862  87.8699738  20.3754117  26.6690492
  88.2910746  20.4879748  25.2192611  96.5561665  29.7687460  25.8806252
  96.8648791  29.5236607  26.7528951  97.3537147  29.9734099  25.3925122
  96.5782277  31.9225370  18.1111628  96.1387267  31.4301749  18.8044485
  97.3290394  31.3798338  17.8703703  89.0574616  28.1136911  18.1136256
  89.8832636  27.8140683  17.7334900  88.7068668  27.3444533  18.5626045
  94.0256149  27.4663379  20.1833930  93.4036158  26.8034084  19.8836158
  94.6961016  27.4924511  19.5007578  87.2583221  26.0323237  19.0725190
  86.4215129  25.6045412  18.8909191  87.2306866  26.2255681  20.0095981
  94.0980676  15.9445167  29.7766436  94.1468832  16.8207290  29.3944205
  94.6403191  15.4022560  29.2038079 104.5835522  26.4886290  29.0567573
 103.7931066  26.4710429  28.5172072 104.3468877  27.0274584  29.8116610
 104.7033397  23.3378757  26.3700301 104.7531402  23.1728764  27.3115824
 104.5947320  22.4706016  25.9798182  93.5869656  26.0167302  13.6592390
  93.7357776  26.7002767  13.0059063  94.3936099  25.9972392  14.1741846
 101.9937160  19.3209685  27.6859608 102.8947022  19.1816150  27.3943606
 102.0685134  19.4864140  28.6257786  96.3279965  16.6976539  26.5312795
  95.4583274  16.9910106  26.2595383  96.5639445  17.2816984  27.2520058
 106.2051594  25.7575698  26.6142323 105.9136402  26.1205679  27.4505784
 105.5923725  25.0442706  26.4355655 104.4538782  20.8808313  25.0822381
 104.9292904  21.0735959  24.2741232 103.5304348  20.9367499  24.8365765
  91.3422289  22.0432480  14.6653459  91.0968331  21.1394810  14.8633669
  91.5118203  22.0449630  13.7232937  99.0318999  12.9156156  24.0478215
  99.5500943  13.6517183  23.7224703  98.6774131  13.2220150  24.8824974
 101.1754831  14.8429656  23.5010088 100.5804763  15.1234669  22.8056576
 100.8904527  15.3323557  24.2726829  97.3550552  23.8993992  29.9320847
  98.2753562  24.0772591  30.1260894  97.3200135  22.9550037  29.7800547
  86.5732717  19.0932585  18.8574122  86.2535502  18.2397894  18.5648496
  86.0266146  19.3081164  19.6132089  90.3512625  21.8095026  22.5743628
  90.5698635  22.7412134  22.5931662  90.7638399  21.4503001  23.3598432
  95.2240490  17.3828232  31.9646377  95.1237217  18.3322589  31.8958468
  95.0062032  17.0546471  31.0922447  86.4420977  22.7135497  20.8267244
  85.7484449  22.2989450  20.3137198  87.1893968  22.7556033  20.2300662
  95.0871760  20.8125371  30.7811439  94.6038842  21.6125731  30.9875328
  95.1732699  20.8233316  29.8278883  88.3557720  22.6453751  18.7033258
  88.3328408  22.7441438  17.7515141  88.6658356  23.4918901  19.0250425
  91.0145098  24.7029906  22.8179873  91.9688351  24.6713848  22.7509804
  90.8157621  24.2420529  23.6330099  91.6044480  23.2731022  25.3850670
  92.4237369  23.7675100  25.4085508  91.8781288  22.3562990  25.3568238
  89.3695327  30.2449525  19.8350071  89.2349794  29.4849926  19.2688069
  88.9527389  30.9690425  19.3678860  92.5264452  31.1418842  20.0468513
  92.4096837  32.0864275  19.9447204  91.7056899  30.8392404  20.4354313
  86.8579394  17.6069156  26.0842868  87.5038258  17.0968110  26.5730093
  86.6496545  18.3437837  26.6586293  99.3832786  24.6750003  31.5835008
 100.2523946  24.8490655  31.2221643  98.9039538  25.4944420  31.4610737
  93.5518967  31.7947104  23.2624442  94.4546213  31.8270714  23.5790937
  93.3256337  30.8647555  23.2770778  95.3072569  30.5478091  19.9234520
  94.3568200  30.5479952  19.8098893  95.6105055  29.8010825  19.4070555
  91.1976885  14.7536773  30.1817882  92.0608347  14.3973578  30.3921206
  90.6242296  14.4150667  30.8693286 111.0425262  36.3838629  20.9880283
 111.6803672  36.2645376  20.2843623 110.9246105  37.3319473  21.0468235
 107.8514968  36.3366057  20.9241807 107.5133480  36.2207122  20.0362342
 108.7204737  35.9357222  20.9042814 103.7101784  38.1901534  16.9138698
 103.1466649  38.0991470  16.1454986 103.5954179  37.3701438  17.3941191
 108.3334751  37.4900909  26.8828013 108.3223392  37.0953707  26.0108517
 108.4955391  36.7566981  27.4761784 101.2566216  39.6852725  19.7522919
 102.0487508  39.3443550  19.3369218 101.4962866  39.7947700  20.6725072
 103.2156970  38.9461638  12.6240298 103.9887846  38.3990625  12.4853173
 103.5682369  39.8105888  12.8354759 105.0542012  40.2738021  25.8307197
 104.7631878  41.1783651  25.7153863 105.6898997  40.3154548  26.5451267
 105.9798219  37.6514869  22.4208557 106.5761792  37.4270892  21.7065520
 106.0373191  36.9099615  23.0234004 110.0131898  39.9599436  22.8256991
 109.7132621  40.8624475  22.7172798 109.6682957  39.6931619  23.6778144
 103.4644379  36.4113233  18.8593695 102.5394876  36.2789447  19.0671387
 103.7128792  37.1907452  19.3563637 100.8253190  36.0546507  19.6937484
 100.9545571  36.3080985  20.6076896 100.1450641  36.6474215  19.3742139
 104.9952677  46.7243756  15.7927958 104.9176707  47.6751582  15.8716439
 104.3914321  46.3789629  16.4502885 107.4869907  33.8971622  28.4489325
 106.7103241  34.4565542  28.4392190 108.1260470  34.3828405  28.9704195
 105.7416279  36.7057075  28.0107292 106.4830964  37.2442119  27.7342116
 105.0353265  37.3323364  28.1678844 111.2171619  38.8486216  26.6079454
 111.6254975  38.4068626  25.8634086 110.4948881  38.2738843  26.8613647
 107.5702689  33.7858823  23.9813011 108.4163884  34.2098236  24.1247660
 107.5101327  33.1292447  24.6751574 111.5400434  39.4087406  20.3631743
 110.9109296  39.5733121  19.6607810 111.1526096  39.8229016  21.1342707
 110.7202134  31.4463191  25.6394184 110.4763066  32.2005251  25.1028460
 110.9962065  31.8248538  26.4741431 112.6740597  37.9901803  24.3171450
 112.8857492  38.6333563  23.6405831 112.6270345  37.1564120  23.8493380
 107.0928396  39.1461814  17.6281828 107.5566741  39.4249517  16.8386450
 106.8285194  38.2445259  17.4454918 103.9852477  38.6933296  20.5661591
 104.5553834  39.1220564  19.9279075 104.5760589  38.4115881  21.2645777
 104.4777643  33.8596723  28.8122602 103.8476304  34.5413004  29.0457999
 104.3713731  33.7479805  27.8675741  99.7722616  33.5268519  19.7388526
  98.9821670  33.7826048  19.2628637 100.2633863  34.3416857  19.8440567
 113.7886425  40.8673759  22.4893807 114.6103869  40.4653946  22.2076489
 113.7848828  40.7641993  23.4409923 101.7237361  33.8913099  16.6972003
 100.9268524  34.0031793  17.2155499 101.4962953  34.2299751  15.8312894
 107.5543029  40.4157802  24.6454518 107.6187461  40.8778209  25.4812690
 106.8453952  39.7855167  24.7736828  98.0560319  33.7799010  22.1703517
  98.3068357  34.6646020  22.4361093  98.5919867  33.6003611  21.3978609
 107.2691046  42.0825909  14.5133498 107.1336721  42.9277445  14.9418346
 107.8100859  42.2845187  13.7499432 103.7558386  28.1617489  31.1747853
 103.3625331  27.6083688  31.8495498 104.5724526  28.4728068  31.5654371
 100.7220444  39.6001347  15.0861423 101.2344964  40.3944598  15.2366988
 101.3743156  38.9027638  15.0195025 102.5315328  42.7167104  17.1684176
 102.7081957  43.6385068  16.9805160 103.3272162  42.4025523  17.5978556
 106.6726347  29.5775368  28.7668110 107.4136060  30.1782522  28.6872572
 106.9044270  28.8353006  28.2086152 101.8167685  34.7631736  27.0446340
 101.7021200  33.8616993  27.3453438 100.9612203  35.0095432  26.6931156
 108.8959523  42.7049476  28.6433840 108.4523377  41.9185855  28.3254745
 109.5576736  42.8928626  27.9777731 103.6546644  44.2345278  23.1694519
 104.2054069  44.1062341  22.3971513 102.8158120  44.5340167  22.8189411
 110.9940761  42.9852276  26.6715241 110.9759236  43.8061157  26.1795511
 111.9160681  42.8606351  26.8965383 107.4513815  40.4996405  27.5138750
 107.9842152  39.7384694  27.2838058 106.9227896  40.2070057  28.2562904
  98.6869360  37.9290002  15.8620994  99.5244582  38.3387010  15.6454701
  98.8647628  36.9889444  15.8321188 109.0845663  33.6525247  20.4386890
 108.1668225  33.8740194  20.2808578 109.5005807  33.7271557  19.5798598
 111.8159568  42.9958289  17.2557511 112.1082542  43.5563346  16.5369876
 112.3258188  43.2886850  18.0110670  98.7095532  35.2680717  16.5331727
  98.5119931  34.6750078  15.8082794  98.1542196  34.9632927  17.2507666
 106.6892255  35.1603824  18.6526320 106.7440865  34.2077660  18.5768797
 105.8783457  35.3163263  19.1367619 104.6284615  33.7780883  16.4116699
 103.8152481  34.0775054  16.8181891 105.1243609  33.3836572  17.1291181
 106.7793193  43.7738640  18.3450964 106.7369372  43.9999487  17.4159496
 107.6955892  43.5402015  18.4936765 110.2258827  34.2422708  25.2431593
 110.5808215  34.4694181  26.1026059 110.8730958  34.5741085  24.6208848
 104.1198690  31.3499239  22.0277934 104.7598069  31.2087998  21.3300897
 103.2876220  31.0633752  21.6516536 104.8958994  40.6501669  18.1412927
 105.6899592  40.1551989  17.9395502 104.1850686  40.1219532  17.7780632
 109.7153838  43.0319765  22.4925294 109.7690861  43.6010701  23.2603010
 108.8468620  43.2021650  22.1279331 101.2041757  34.7944751  14.2172679
 100.2739345  34.7329207  14.4342641 101.2999229  34.2720704  13.4209321
 101.1227306  31.3199564  16.8050921 101.3834124  32.2344897  16.6960081
 101.9444479  30.8524006  16.9547534 102.5952232  32.7337321  23.9749745
 103.2675285  32.5254683  23.3262394 101.7682018  32.5359407  23.5354978
 116.8441493  39.4741371  23.4925079 117.0377383  40.3787182  23.7384354
 116.7442111  39.0148790  24.3263664 108.4977804  29.3599262  25.9915406
 107.8505719  30.0589212  25.8979883 109.2678819  29.7935406  26.3591655
 111.9056602  39.6248114  29.0665960 111.7542108  39.3958666  28.1496043
 111.8961281  40.5818716  29.0797305 108.6741938  37.1980027  24.0512226
 109.6033998  37.3491186  23.8781193 108.2532968  37.2864048  23.1960873
 107.4730270  41.2230691  21.8210764 107.3341356  40.8549476  22.6936702
 106.6844866  41.7378331  21.6494721 108.0678422  46.3239788  13.1636300
 108.2430177  45.8527831  13.9781923 107.3811210  46.9505554  13.3917561
 109.0235485  40.6012294  19.2099601 108.6885318  40.5613064  20.1057251
 108.5239431  39.9357010  18.7370012 102.9979729  36.0079924  24.7352183
 102.8599527  35.2760163  25.3363722 103.9084652  35.9188824  24.4536370
 105.6262030  35.7199883  24.2235862 106.3361648  35.0793076  24.1822481
 105.5831338  35.9712778  25.1462043 113.6148808  42.6567237  27.1442441
 113.5561354  41.9726457  26.4773024 114.0168327  43.3986227  26.6923067
 104.3390964  32.7065101  26.0431502 103.8028321  32.2555840  26.6953098
 103.7507672  32.8411010  25.3001966 102.6339507  49.4729151  19.9376160
 102.8736105  50.1047675  20.6155179 101.7908704  49.1217191  20.2241520
 113.6166216  40.6206821  25.3756421 112.7292994  40.2832742  25.4982820
 114.1864767  39.8889852  25.6125187  95.2695363  36.9530912  18.6999473
  95.9566402  36.6392642  18.1120488  95.1143491  37.8572277  18.4266724
 100.0730085  31.8421109  23.1284496  99.9888274  31.2346778  22.3934906
  99.2512791  32.3330127  23.1293993 107.1467369  45.2808273  22.3417664
 107.0737540  46.0863244  22.8536969 106.7044762  45.4800239  21.5165686
 106.9357149  44.5180043  15.8520486 106.1524670  45.0601723  15.9458710
 107.6349894  45.0354023  16.2514727 109.6066052  45.1795107  24.4975823
 110.3194025  45.8142572  24.4251724 109.1156081  45.2758973  23.6815825
 104.6577966  42.9289550  25.3181394 105.3587425  43.5626033  25.4710788
 104.1873081  43.2704282  24.5577033 112.4579252  35.4834158  23.1433944
 111.8050702  35.7310065  22.4886397 112.8359632  34.6698296  22.8096421
 109.4186426  45.5193851  17.2462114 109.6008820  44.7015507  17.7089867
 110.2419412  45.7361543  16.8087004 109.7528591  44.4462036  14.5077163
 110.2816358  43.9354491  13.8947325 110.0156811  44.1304566  15.3722696
 108.5066825  36.2253969  29.6299981 107.8307462  36.1248098  30.3002356
 109.3294459  36.0693183  30.0935978 100.2545684  42.4625905  22.2512497
 100.8399121  41.7169593  22.3840401 100.0570523  42.7729862  23.1349160
 103.1084339  45.4977153  17.2674939 102.4394715  45.9823281  16.7838979
 102.9697209  45.7446373  18.1818317  94.8463339  35.0331506  20.9716940
  94.8847438  34.4995096  21.7654058  94.3403632  34.5066711  20.3527917
 107.2489608  47.5320896  23.8657597 107.8007916  47.6952518  24.6306682
 107.5895801  48.1225334  23.1937622 102.2254101  29.8796046  24.4679482
 102.2895428  30.7410877  24.0556880 102.1621221  29.2670048  23.7351840
 101.7006374  31.9519179  28.1152516 102.3278412  31.5696256  28.7290041
 100.8434292  31.7333381  28.4808209 112.1000482  42.3582154  29.7206252
 112.6440386  42.9712112  29.2261206 111.5187327  42.9161732  30.2373265
  98.4771916  33.7595608  14.0470871  98.7725357  32.8506286  13.9937925
  97.5759952  33.7383347  13.7251873 110.3857995  45.4802872  20.8521279
 110.2609135  44.6792612  20.3432225 111.0437086  45.9749065  20.3635249
 102.0066163  31.8351604  20.0298420 101.2852749  32.4487572  19.8905893
 102.7959419  32.3709369  19.9515066 112.4492904  43.2811892  22.4800830
 111.5023239  43.1617243  22.4079156 112.7975677  42.3934390  22.5627091
 104.8092477  29.1706031  26.3039071 105.3326879  29.4168327  27.0665381
 104.5904810  30.0026066  25.8842209 100.2059758  31.4409706  14.1710196
  99.8772464  30.5607084  13.9885302 100.5599129  31.3857374  15.0586585
 109.4539337  43.0764608  18.6805182 109.3064299  42.1481316  18.8612752
 110.2792830  43.0984699  18.1962257 113.0573459  43.8993167  19.7670054
 113.9820006  43.6936028  19.6294506 112.8888762  43.6509568  20.6759396
 106.0145022  30.1119726  23.9888742 105.6741842  29.3127539  24.3909422
 105.3084028  30.4121437  23.4165575 106.6661494  27.1969038  22.4416065
 107.4887563  26.7229517  22.3194955 106.9099557  27.9759522  22.9414751
 104.1900073  33.8888159  20.2508044 104.0444653  34.2028462  21.1432325
 103.7125276  34.5073059  19.6978942 106.0496455  30.8790707  20.2988933
 106.0358024  29.9831800  19.9621231 106.7668884  30.8861371  20.9327219
 107.9022586  31.3128047  22.3442061 107.6440364  32.2345118  22.3426391
 107.3707626  30.9158482  23.0342525  98.6645735  36.4293503  23.1895705
  98.1199203  37.2053311  23.3215979  99.5425085  36.7764308  23.0314826
  99.4511757  35.5563400  26.0825862  98.7093493  35.7046035  26.6690492
  99.1304501  35.8171665  25.2192611 107.3955419  45.0979378  25.8806252
 107.7042546  44.8528525  26.7528951 108.1930901  45.3026016  25.3925122
 107.4176031  47.2517288  18.1111628 106.9781022  46.7593666  18.8044485
 108.1684148  46.7090255  17.8703703  99.8968370  43.4428828  18.1136256
 100.7226390  43.1432600  17.7334900  99.5462422  42.6736451  18.5626045
 104.8649903  42.7955297  20.1833930 104.2429913  42.1326002  19.8836158
 105.5354770  42.8216429  19.5007578  98.0976975  41.3615155  19.0725190
  97.2608884  40.9337329  18.8909191  98.0700621  41.5547598  20.0095981
 104.9374431  31.2737085  29.7766436 104.9862586  32.1499208  29.3944205
 105.4796945  30.7314478  29.2038079 115.4229277  41.8178208  29.0567573
 114.6324820  41.8002347  28.5172072 115.1862631  42.3566502  29.8116610
 115.5427152  38.6670674  26.3700301 115.5925157  38.5020682  27.3115824
 115.4341075  37.7997933  25.9798182 104.4263410  41.3459220  13.6592390
 104.5751531  42.0294684  13.0059063 105.2329854  41.3264310  14.1741846
 112.8330914  34.6501602  27.6859608 113.7340777  34.5108067  27.3943606
 112.9078889  34.8156057  28.6257786 107.1673719  32.0268457  26.5312795
 106.2977029  32.3202023  26.2595383 107.4033200  32.6108902  27.2520058
 117.0445348  41.0867616  26.6142323 116.7530157  41.4497596  27.4505784
 116.4317480  40.3734624  26.4355655 115.2932537  36.2100230  25.0822381
 115.7686658  36.4027877  24.2741232 114.3698102  36.2659416  24.8365765
 102.1816043  37.3724398  14.6653459 101.9362085  36.4686728  14.8633669
 102.3511958  37.3741548  13.7232937 109.8712753  28.2448074  24.0478215
 110.3894697  28.9809101  23.7224703 109.5167886  28.5512067  24.8824974
 112.0148585  30.1721574  23.5010088 111.4198517  30.4526587  22.8056576
 111.7298282  30.6615475  24.2726829 108.1944307  39.2285909  29.9320847
 109.1147316  39.4064508  30.1260894 108.1593890  38.2841955  29.7800547
  97.4126472  34.4224503  18.8574122  97.0929256  33.5689811  18.5648496
  96.8659900  34.6373081  19.6132089 101.1906379  37.1386944  22.5743628
 101.4092389  38.0704052  22.5931662 101.6032153  36.7794918  23.3598432
 106.0634245  32.7120150  31.9646377 105.9630972  33.6614507  31.8958468
 105.8455787  32.3838389  31.0922447  97.2814732  38.0427415  20.8267244
  96.5878203  37.6281367  20.3137198  98.0287723  38.0847951  20.2300662
 105.9265515  36.1417289  30.7811439 105.4432596  36.9417649  30.9875328
 106.0126454  36.1525234  29.8278883  99.1951474  37.9745668  18.7033258
  99.1722162  38.0733356  17.7515141  99.5052111  38.8210819  19.0250425
 101.8538852  40.0321823  22.8179873 102.8082106  40.0005766  22.7509804
 101.6551376  39.5712447  23.6330099 102.4438234  38.6022939  25.3850670
 103.2631123  39.0967018  25.4085508 102.7175042  37.6854908  25.3568238
 100.2089081  45.5741443  19.8350071 100.0743549  44.8141844  19.2688069
  99.7921143  46.2982343  19.3678860 103.3658207  46.4710760  20.0468513
 103.2490591  47.4156192  19.9447204 102.5450653  46.1684321  20.4354313
  97.6973149  32.9361073  26.0842868  98.3432012  32.4260027  26.5730093
  97.4890300  33.6729755  26.6586293 110.2226541  40.0041921  31.5835008
 111.0917700  40.1782573  31.2221643 109.7433292  40.8236338  31.4610737
 104.3912721  47.1239022  23.2624442 105.2939968  47.1562632  23.5790937
 104.1650091  46.1939473  23.2770778 106.1466323  45.8770008  19.9234520
 105.1961954  45.8771870  19.8098893 106.4498809  45.1302743  19.4070555
 102.0370640  30.0828690  30.1817882 102.9002101  29.7265495  30.3921206
 101.4636050  29.7442585  30.8693286 114.5495539  53.5193451  16.9138698
 113.9860404  53.4283388  16.1454986 114.4347934  52.6993356  17.3941191
 112.0959970  55.0144643  19.7522919 112.8881262  54.6735467  19.3369218
 112.3356621  55.1239618  20.6725072 114.0550724  54.2753556  12.6240298
 114.8281600  53.7282543  12.4853173 114.4076123  55.1397805  12.8354759
 115.8935767  55.6029938  25.8307197 115.6025633  56.5075569  25.7153863
 116.5292751  55.6446466  26.5451267 116.8191974  52.9806787  22.4208557
 117.4155546  52.7562809  21.7065520 116.8766945  52.2391532  23.0234004
 114.3038134  51.7405151  18.8593695 113.3788630  51.6081365  19.0671387
 114.5522547  52.5199370  19.3563637 111.6646945  51.3838424  19.6937484
 111.7939326  51.6372903  20.6076896 110.9844396  51.9766132  19.3742139
 115.8346432  62.0535674  15.7927958 115.7570462  63.0043499  15.8716439
 115.2308075  61.7081547  16.4502885 116.5810034  52.0348993  28.0107292
 117.3224718  52.5734037  27.7342116 115.8747019  52.6615282  28.1678844
 114.8246231  54.0225214  20.5661591 115.3947588  54.4512482  19.9279075
 115.4154343  53.7407798  21.2645777 115.3171398  49.1888641  28.8122602
 114.6870058  49.8704922  29.0457999 115.2107486  49.0771723  27.8675741
 110.6116370  48.8560437  19.7388526 109.8215424  49.1117966  19.2628637
 111.1027617  49.6708775  19.8440567 112.5631115  49.2205016  16.6972003
 111.7662279  49.3323711  17.2155499 112.3356708  49.5591669  15.8312894
 108.8954073  49.1090928  22.1703517 109.1462112  49.9937938  22.4361093
 109.4313621  48.9295529  21.3978609 114.5952140  43.4909407  31.1747853
 114.2019086  42.9375606  31.8495498 115.4118281  43.8019985  31.5654371
 111.5614198  54.9293265  15.0861423 112.0738719  55.7236515  15.2366988
 112.2136911  54.2319556  15.0195025 113.3709083  58.0459021  17.1684176
 113.5475711  58.9676986  16.9805160 114.1665916  57.7317441  17.5978556
 117.5120101  44.9067286  28.7668110 118.2529815  45.5074439  28.6872572
 117.7438024  44.1644924  28.2086152 112.6561439  50.0923653  27.0446340
 112.5414955  49.1908911  27.3453438 111.8005957  50.3387350  26.6931156
 114.4940398  59.5637195  23.1694519 115.0447823  59.4354259  22.3971513
 113.6551874  59.8632084  22.8189411 109.5263115  53.2581919  15.8620994
 110.3638337  53.6678928  15.6454701 109.7041383  52.3181362  15.8321188
 109.5489286  50.5972635  16.5331727 109.3513686  50.0041995  15.8082794
 108.9935950  50.2924845  17.2507666 117.5286010  50.4895741  18.6526320
 117.5834620  49.5369578  18.5768797 116.7177212  50.6455180  19.1367619
 115.4678370  49.1072801  16.4116699 114.6546235  49.4066972  16.8181891
 115.9637364  48.7128490  17.1291181 114.9592444  46.6791157  22.0277934
 115.5991824  46.5379916  21.3300897 114.1269975  46.3925670  21.6516536
 115.7352748  55.9793587  18.1412927 116.5293347  55.4843907  17.9395502
 115.0244441  55.4511450  17.7780632 112.0435512  50.1236669  14.2172679
 111.1133100  50.0621124  14.4342641 112.1392984  49.6012621  13.4209321
 111.9621061  46.6491482  16.8050921 112.2227878  47.5636815  16.6960081
 112.7838233  46.1815924  16.9547534 113.4345986  48.0629239  23.9749745
 114.1069040  47.8546601  23.3262394 112.6075773  47.8651325  23.5354978
 113.8373483  51.3371842  24.7352183 113.6993281  50.6052080  25.3363722
 114.7478407  51.2480742  24.4536370 116.4655784  51.0491801  24.2235862
 117.1755403  50.4084993  24.1822481 116.4225092  51.3004696  25.1462043
 115.1784718  48.0357019  26.0431502 114.6422075  47.5847757  26.6953098
 114.5901427  48.1702928  25.3001966 113.4733262  64.8021068  19.9376160
 113.7129860  65.4339592  20.6155179 112.6302458  64.4509108  20.2241520
 106.1089117  52.2822830  18.6999473 106.7960157  51.9684560  18.1120488
 105.9537246  53.1864195  18.4266724 110.9123839  47.1713027  23.1284496
 110.8282028  46.5638696  22.3934906 110.0906546  47.6622045  23.1293993
 117.9861123  60.6100191  22.3417664 117.9131295  61.4155162  22.8536969
 117.5438517  60.8092156  21.5165686 115.4971720  58.2581468  25.3181394
 116.1981180  58.8917951  25.4710788 115.0266835  58.5996200  24.5577033
 111.0939439  57.7917823  22.2512497 111.6792875  57.0461511  22.3840401
 110.8964277  58.1021780  23.1349160 113.9478094  60.8269071  17.2674939
 113.2788469  61.3115198  16.7838979 113.8090963  61.0738291  18.1818317
 105.6857093  50.3623423  20.9716940 105.7241193  49.8287014  21.7654058
 105.1797386  49.8358629  20.3527917 113.0647856  45.2087964  24.4679482
 113.1289182  46.0702795  24.0556880 113.0014976  44.5961966  23.7351840
 112.5400128  47.2811096  28.1152516 113.1672167  46.8988174  28.7290041
 111.6828047  47.0625298  28.4808209 109.3165671  49.0887526  14.0470871
 109.6119112  48.1798204  13.9937925 108.4153707  49.0675265  13.7251873
 112.8459918  47.1643522  20.0298420 112.1246504  47.7779490  19.8905893
 113.6353174  47.7001287  19.9515066 115.6486231  44.4997949  26.3039071
 116.1720633  44.7460245  27.0665381 115.4298565  45.3317983  25.8842209
 111.0453512  46.7701623  14.1710196 110.7166219  45.8899002  13.9885302
 111.3992883  46.7149292  15.0586585 116.8538776  45.4411644  23.9888742
 116.5135597  44.6419457  24.3909422 116.1477783  45.7413355  23.4165575
 115.0293827  49.2180077  20.2508044 114.8838408  49.5320380  21.1432325
 114.5519031  49.8364977  19.6978942 116.8890210  46.2082625  20.2988933
 116.8751779  45.3123718  19.9621231 117.6062638  46.2153288  20.9327219
 109.5039489  51.7585421  23.1895705 108.9592957  52.5345229  23.3215979
 110.3818839  52.1056226  23.0314826 110.2905511  50.8855317  26.0825862
 109.5487247  51.0337953  26.6690492 109.9698255  51.1463583  25.2192611
 110.7362125  58.7720746  18.1136256 111.5620145  58.4724518  17.7334900
 110.3856177  58.0028369  18.5626045 115.7043658  58.1247214  20.1833930
 115.0823667  57.4617919  19.8836158 116.3748525  58.1508346  19.5007578
 108.9370730  56.6907073  19.0725190 108.1002638  56.2629247  18.8909191
 108.9094375  56.8839516  20.0095981 115.7768185  46.6029002  29.7766436
 115.8256341  47.4791125  29.3944205 116.3190700  46.0606395  29.2038079
 115.2657165  56.6751138  13.6592390 115.4145285  57.3586602  13.0059063
 116.0723608  56.6556228  14.1741846 118.0067474  47.3560375  26.5312795
 117.1370783  47.6493941  26.2595383 118.2426954  47.9400820  27.2520058
 113.0209798  52.7016315  14.6653459 112.7755840  51.7978645  14.8633669
 113.1905712  52.7033466  13.7232937 108.2520226  49.7516421  18.8574122
 107.9323011  48.8981729  18.5648496 107.7053655  49.9664999  19.6132089
 112.0300134  52.4678862  22.5743628 112.2486144  53.3995970  22.5931662
 112.4425908  52.1086836  23.3598432 116.9027999  48.0412067  31.9646377
 116.8024726  48.9906424  31.8958468 116.6849541  47.7130306  31.0922447
 108.1208486  53.3719332  20.8267244 107.4271958  52.9573285  20.3137198
 108.8681477  53.4139869  20.2300662 116.7659269  51.4709206  30.7811439
 116.2826351  52.2709566  30.9875328 116.8520208  51.4817151  29.8278883
 110.0345229  53.3037586  18.7033258 110.0115917  53.4025273  17.7515141
 110.3445865  54.1502737  19.0250425 112.6932607  55.3613741  22.8179873
 113.6475860  55.3297683  22.7509804 112.4945130  54.9004365  23.6330099
 113.2831989  53.9314857  25.3850670 114.1024878  54.4258936  25.4085508
 113.5568797  53.0146825  25.3568238 111.0482836  60.9033361  19.8350071
 110.9137303  60.1433761  19.2688069 110.6314898  61.6274260  19.3678860
 114.2051961  61.8002678  20.0468513 114.0884346  62.7448110  19.9447204
 113.3844408  61.4976239  20.4354313 108.5366903  48.2652991  26.0842868
 109.1825767  47.7551945  26.5730093 108.3284054  49.0021673  26.6586293
 115.2306476  62.4530939  23.2624442 116.1333722  62.4854550  23.5790937
 115.0043846  61.5231390  23.2770778 116.9860078  61.2061926  19.9234520
 116.0355709  61.2063788  19.8098893 117.2892564  60.4594661  19.4070555
 112.8764394  45.4120608  30.1817882 113.7395856  45.0557413  30.3921206
 112.3029805  45.0734503  30.8693286 116.9482872  67.6114748  18.6999473
 117.6353911  67.2976478  18.1120488 116.7931000  68.5156112  18.4266724
 116.5250848  65.6915341  20.9716940 116.5634947  65.1578932  21.7654058
 116.0191141  65.1650547  20.3527917   2.6461111  52.5404430  98.4906936
   1.8924820  51.9711828  98.3350940   2.7808653  52.5067095  99.4377571
   3.0567526  52.6980040 101.2227180   3.7870915  52.4365328 101.7834883
   2.4474472  51.9608762 101.2629248   1.1382823  50.8387903 101.8201631
   0.4115987  50.7043868 101.2118123   0.7230110  51.1464731 102.6258349
   1.0631691  50.3665956  97.9478484   0.5031249  50.4359145  98.7210046
   0.4575195  50.1906940  97.2277980   2.6487710  67.0422470 100.6408440
   3.2866120  66.9229217  99.9371780   2.5308553  67.9903314 100.6996392
   2.2028978  64.7673924  97.7161648   2.9892067  64.3493347  97.3652065
   2.4667682  65.6720016  97.8843296   2.3739055  70.2046774  92.4150305
   1.7384888  70.2781400  93.1271209   2.0436462  70.7940373  91.7369384
   7.6037405  64.7049157  98.6194626   8.3362577  64.1348374  98.8532456
   6.8476761  64.3170757  99.0601132   5.1262826  58.4170731 103.0789235
   4.7946150  59.2866142 102.8550450   4.5308439  58.1007015 103.7583265
   5.0191489  63.1365817 100.1582585   4.1108366  63.0681225  99.8641346
   4.9679085  63.6137762 100.9864411   6.8853135  61.3382255 101.9360459
   6.2427516  61.6314789 101.2900254   6.3808064  61.2235176 102.7413656
   4.5393299  65.0845429  92.6246318   5.4511155  65.3172815  92.4494016
   4.0302946  65.6682473  92.0621397   3.1462881  70.0671247 100.0159900
   2.5171744  70.2316961  99.3135968   2.7588543  70.4812857 100.7870864
   7.0252113  71.0025685  97.3704263   6.3403151  71.3824586  96.8201297
   7.1095962  71.6121012  98.1036211   2.3264582  62.1047032 105.2922341
   2.0825514  62.8589092 104.7556617   2.6024513  62.4832379 106.1269588
   4.2803045  68.6485644 103.9699607   4.4919940  69.2917404 103.2933988
   4.2332793  67.8147960 103.5021537   1.8829274  61.2603465 100.8736179
   1.0213753  61.5584718 101.1652917   1.9091708  61.4773863  99.9417212
   5.3948873  71.5257599 102.1421964   6.2166316  71.1237787 101.8604646
   5.3911276  71.4225834 103.0938080  13.4854866  67.8696348  98.4906936
  12.7318574  67.3003746  98.3350940  13.6202407  67.8359012  99.4377571
   2.2245957  56.2640312 102.6960549   1.8810227  57.1541954 102.6199659
   2.5924920  56.0741970 101.8330134   2.1896240  66.2548923  91.2032984
   1.6742864  67.0253528  91.4421371   1.9173549  65.5814059  91.8266045
   1.3042498  58.6344967 100.6609782   0.8007293  58.5975102  99.8477587
   1.5973105  59.5437710 100.7206439   7.1630514  69.0081278  93.1386157
   6.3859957  68.6692437  92.6941319   7.8421995  69.0133901  92.4641122
   1.9782543  64.1276015  93.0292765   1.6732679  64.4422164  93.8802908
   2.9312985  64.2057435  93.0720098   5.4021821  68.4815259  99.7952765
   4.7445496  69.1714520  99.8832894   6.2062220  68.8711691 100.1386752
   4.2127280  66.8359632  97.8456707   4.7259162  67.4689624  98.3478417
   4.8628504  66.2360827  97.4800067   1.4749654  76.8143956  90.6017378
   0.8011353  77.1175653  91.2102336   1.8615476  77.6173036  90.2522835
   1.4743159  65.7100503  95.2217728   2.2214978  66.2221900  94.9124850
   1.7434748  65.3884556  96.0822121   4.9789076  71.8165633  95.9735850
   4.5251403  70.9756543  96.0301040   4.3483043  72.4527032  96.3110630
   3.9221996  62.7457619  97.2036517   3.1844753  62.2335005  97.5346760
   4.1748769  62.3058001  96.3919794   3.4222015  73.6542130  96.9085668
   3.7144990  74.2147187  96.1898033   3.9320636  73.9470691  97.6638827
   4.0233623  55.5233871  97.7978286   4.3292500  54.6631235  97.5104201
   4.7486228  56.1151491  97.5977280   1.8321274  64.9006548 104.8959750
   2.1870662  65.1278022 105.7554216   2.4793406  65.2324925 104.2737005
   7.5619011  68.0224984  95.6009079   7.4236910  68.2126580  94.6730268
   7.2055230  68.7844367  96.0577130   7.5888391  70.0901511 100.6120351
   8.0224898  69.9976800 101.4603405   8.3019972  70.0659012  99.9740367
   8.4503941  70.1325212 103.1453236   8.6439831  71.0371023 103.3912511
   8.3504559  69.6732631 103.9791821   3.5657124  68.6052169  89.1364818
   2.9486295  67.8798997  89.0397871   3.0973613  69.3661529  88.7931892
   1.8516246  60.9858513  98.1482848   2.3484946  60.2328475  97.8283919
   1.0803228  61.0222830  97.5826058   9.7046004  66.6898879  99.7901140
   9.6935880  67.5723594  99.4195073   8.8363383  66.3370429  99.5955677
   2.9346027  69.7430200  95.7221272   2.0002306  69.8631663  95.5525976
   3.1122695  68.8402667  95.4581282   6.3218578  65.5847520  96.2571306
   6.7879030  66.4175511  96.1831609   6.7726079  65.1192501  96.9616564
   4.3894809  71.9291341  93.2557458   4.6654653  71.8147935  94.1651332
   3.5199308  71.5308826  93.2169631   4.2935241  57.9528107 100.2962207
   3.3798321  58.1832333 100.4644414   4.7228342  58.0366551 101.1476240
   4.0641700  66.1417999 102.7962101   3.4113150  66.3893906 102.1414554
   4.4422079  65.3282137 102.4624579   1.0248873  76.1777692  96.8990272
   1.2071268  75.3599348  97.3618024   1.8481859  76.3945384  96.4615162
   1.3591039  75.1045877  94.1605320   1.8878805  74.5938331  93.5475482
   1.6219258  74.7888407  95.0250853   1.0601784  73.7348449  98.3333339
   0.9126747  72.8065156  98.5140909   1.8855278  73.7568540  97.8490414
   4.6635906  74.5577008  99.4198212   5.5882454  74.3519869  99.2822663
   4.4951210  74.3093409 100.3287553   1.0563299  61.5886287  93.3265456
   1.2726913  62.4710924  93.0254284   0.5757366  61.1972500  92.5971098
   4.4531222  75.0762675  94.7760303   4.6268100  74.5109098  94.0234156
   4.9460114  75.8763570  94.5939793  10.3070614  67.8399098  96.3950603
  10.7501760  67.0906423  95.9969726   9.4297124  67.8309234  96.0124335
   5.4406395  74.3929440  91.8757201   6.1357300  75.0136132  92.0944516
   5.7829545  73.5424791  92.1509579   7.3397818  71.8429145  93.4044532
   7.8649142  72.1816418  92.6793852   7.2520171  70.9076160  93.2207667
   7.1489599  69.3254515 106.0228459   7.1987604  69.1604522 106.9643981
   7.0403523  68.4581774 105.6326339   9.8503478  69.3104336  98.7873050
  10.6850370  69.7494140  98.9510611   9.9862607  68.8342990  97.9681296
   6.8994984  66.8684071 104.7350538   7.3749106  67.0611717 103.9269389
   5.9760550  66.9243257 104.4893922   1.4775201  58.9031915 103.7006372
   1.9957145  59.6392942 103.3752861   1.1230333  59.2095908 104.5353131
   1.7287795  55.3232197  99.2207269   2.0089549  54.6555386  99.8467695
   2.5138402  55.5161293  98.7081932   5.5996653  63.7449831 102.9678844
   6.5514076  63.8447929 102.9891068   5.4300104  62.9528100 103.4776928
   3.6211033  60.8305414 103.1538245   3.0260965  61.1110427 102.4584733
   3.3360729  61.3199315 103.9254986   2.7518523  74.7828341  91.9140877
   3.6849196  74.7173903  92.1173753   2.6641736  75.6184608  91.4555410
   5.3806540  74.0994212  88.8744825   5.3020171  73.7654075  89.7680583
   6.2016207  74.5915980  88.8736297   8.0784731  66.9655951 102.0821143
   8.0461051  66.0271952 102.2680827   8.6885355  67.0439988 101.3486968
   8.2279219  63.7566994 102.1279427   7.7118268  62.9725451 101.9409355
   9.1119168  63.4285711 102.2925946   5.8889946  57.5008010  98.0875239
   5.6914768  57.1923098  98.9718571   6.4989652  58.2269649  98.2173169
  13.8961281  68.0271958 101.2227180  14.6264669  67.7657246 101.7834883
  13.2868226  67.2900680 101.2629248  11.9776578  66.1679820 101.8201631
  11.2509742  66.0335785 101.2118123  11.5623865  66.4756649 102.6258349
   1.6463593  57.3816917  95.8371771   2.1994632  57.8012370  96.4961794
   1.8833679  56.4552665  95.8794727   5.0242400  59.4917442  95.3450435
   4.4441069  60.1502246  94.9628487   4.7578333  58.6694787  94.9337852
   3.4745966  58.8922500  97.5471755   3.9745745  59.0039034  96.7386074
   4.1181574  58.5883553  98.1872564   3.8067278  61.6517532  94.4006783
   2.9193133  61.9367183  94.1826978   4.2221267  61.4911296  93.5534060
   7.1581814  61.6764053  98.1161122   7.9342204  62.1660506  98.3885739
   6.4329948  62.1022108  98.5732992   9.5954373  62.3891673  99.1735063
  10.1898864  62.1487409  98.4628371   9.6680957  61.6698803  99.8008599
   2.9510492  71.4162207  88.4954803   3.6546342  71.6212210  89.1112459
   2.2273140  71.9838969  88.7603887   3.7808302  67.1672068  94.6157073
   3.7243503  67.6240620  93.7764706   4.3336644  66.4062753  94.4379916
   7.5913108  62.9561800  95.4407193   7.3350042  62.5558436  96.2715400
   6.9665976  63.6705594  95.3157332  11.9025446  65.6957873  97.9478484
  11.3425004  65.7651063  98.7210046  11.2968949  65.5198858  97.2277980
   4.8597189  71.8544736  90.5453263   5.6942793  71.4225935  90.3630738
   4.6981532  71.6826750  91.4730158   4.5143081  68.3576850  91.9109602
   4.4591885  68.1921121  90.9698047   3.8889136  69.0652882  92.0671792
   1.6391326  54.4527735  95.7440858   0.8723722  53.8986222  95.8897540
   2.0502031  54.5249604  96.6055009  13.4881464  82.3714387 100.6408440
  14.1259874  82.2521135  99.9371780  13.3702307  83.3195231 100.6996392
  10.2971170  82.3241815 100.5769965   9.9589682  82.2082880  99.6890499
  11.1660939  81.9232981 100.5570971   6.1557986  84.1777292  96.5666856
   5.5922851  84.0867229  95.7983143   6.0410381  83.3577196  97.0469348
  11.7357545  87.8448260  91.8781320  11.0845525  88.4302340  91.4915334
  12.5301908  88.3754454  91.9376358   5.6613172  84.9337397  92.2768455
   6.4344048  84.3866384  92.1381331   6.0138571  85.7981646  92.4882916
   7.9979450  81.0930063  89.9086905   8.2504970  80.5711584  89.1470368
   7.0604009  80.9296208  90.0113588  13.0422733  80.0965841  97.7161648
  13.8285822  79.6785264  97.3652065  13.3061437  81.0011933  97.8843296
  13.2132810  85.5338692  92.4150305  12.5778643  85.6073318  93.1271209
  12.8830216  86.1232290  91.7369384  18.4431160  80.0341074  98.6194626
  19.1756332  79.4640291  98.8532456  17.6870515  79.6462675  99.0601132
   7.7175739  82.9958169  92.1111280   7.6011997  82.3203072  92.7792364
   7.8277998  82.5090543  91.2943433  10.0607279  82.4568316  95.8157969
   9.6965487  81.9298937  96.5270890  10.9174395  82.0666785  95.6424454
  15.9656580  73.7462649 103.0789235  15.6339905  74.6158059 102.8550450
  15.3702193  73.4298933 103.7583265   9.7012766  77.4858216  90.8119317
   9.8687169  78.3538452  91.1789788   9.5109935  77.6485497  89.8880607
  15.8585243  78.4657735 100.1582585  14.9502121  78.3973143  99.8641346
  15.8072839  78.9429680 100.9864411   9.6801987  79.9415873  91.7965984
   9.5601613  80.3872924  92.6351464   8.9854576  80.2901191  91.2379522
  17.7246890  76.6674173 101.9360459  17.0821270  76.9606706 101.2900254
  17.2201818  76.5527093 102.7413656  15.3787053  80.4137346  92.6246318
  16.2904910  80.6464733  92.4494016  14.8696701  80.9974390  92.0621397
  13.9856636  85.3963165 100.0159900  13.3565498  85.5608879  99.3135968
  13.5982298  85.8104774 100.7870864  17.8645868  86.3317603  97.3704263
  17.1796906  86.7116504  96.8201297  17.9489717  86.9412929  98.1036211
  13.1658337  77.4338949 105.2922341  12.9219268  78.1881010 104.7556617
  13.4418267  77.8124297 106.1269588  15.1196799  83.9777562 103.9699607
  15.3313695  84.6209322 103.2933988  15.0726548  83.1439878 103.5021537
  12.7223028  76.5895382 100.8736179  11.8607507  76.8876636 101.1652917
  12.7485463  76.8065781  99.9417212   9.5384598  85.1337573  97.2809985
  10.0022943  85.4125276  96.4914607   9.2741396  84.2321017  97.0983076
   8.4753484  81.2560725  94.0899550   9.1777527  81.7081769  94.5573476
   8.1434112  80.6144544  94.7179443  16.2342627  86.8549517 102.1421964
  17.0560071  86.4529704 101.8604646  16.2305030  86.7517751 103.0938080
   4.1693563  79.8788857  96.3500160   3.3724726  79.9907551  96.8683656
   3.9419155  80.2175509  95.4841051  24.3248620  83.1988266  98.4906936
  23.5712329  82.6295664  98.3350940  24.4596161  83.1650930  99.4377571
   9.7147248  88.0701668  94.1661655   9.5792923  88.9153204  94.5946503
  10.2557061  88.2720945  93.4027589  13.0639712  71.5932230 102.6960549
  12.7203981  72.4833871 102.6199659  13.4318674  71.4033887 101.8330134
  13.0289995  81.5840841  91.2032984  12.5136618  82.3545445  91.4421371
  12.7567303  80.9105977  91.8266045  10.6137106  76.4290542  96.2618222
   9.7578702  76.0397392  96.0823861  11.0264057  76.5082502  95.4018008
  12.1436252  73.9636885 100.6609782  11.6401048  73.9267020  99.8477587
  12.4366859  74.8729628 100.7206439   8.3879138  74.0475615  99.6675964
   9.2532135  73.8518423  99.3081853   8.4556647  73.8185966 100.5945320
  18.0024269  84.3373195  93.1386157  17.2253712  83.9984355  92.6941319
  18.6815750  84.3425819  92.4641122  12.8176298  79.4567933  93.0292765
  12.5126433  79.7714082  93.8802908  13.7706740  79.5349353  93.0720098
  11.2622730  85.6158156  94.6785719  10.7344091  84.8810916  94.3658956
  10.7610232  86.3932833  94.4325687  16.2415576  83.8107177  99.7952765
  15.5839250  84.5006438  99.8832894  17.0455975  84.2003609 100.1386752
   5.9941457  76.2777823  97.0392330   6.5685209  76.0553004  96.3065523
   6.5812440  76.3466517  97.7920932  15.0521034  82.1651549  97.8456707
  15.5652916  82.7981541  98.3478417  15.7022258  81.5652745  97.4800067
   6.3211044  78.3082284  91.0588216   5.4848357  78.6456970  91.3797490
   6.1815814  78.1731263  90.1215353   8.2964125  73.1519071  95.7667400
   7.6428537  72.8368089  95.1424015   8.2544599  72.5294812  96.4927223
   9.4075330  83.4338366  87.6820692   8.5002392  83.2027620  87.8811841
   9.9046362  82.6375986  87.8694674  12.3143409  92.1435874  90.6017378
  11.6405107  92.4467570  91.2102336  12.7009231  92.9464954  90.2522835
  11.5301865  79.6401005 100.0915047  10.6124427  79.8615952  99.9336736
  11.9462009  79.7147315  99.2326755  12.3136913  81.0392421  95.2217728
  13.0608732  81.5513818  94.9124850  12.5828503  80.7176473  96.0822121
  10.5863563  83.5350961  92.2044682   9.6774783  83.2509994  92.3017152
  10.6158647  83.9550040  91.3447989  15.8182831  87.1457551  95.9735850
  15.3645158  86.3048461  96.0301040  15.1876797  87.7818949  96.3110630
  14.7615750  78.0749537  97.2036517  14.0238507  77.5626923  97.5346760
  15.0142524  77.6349918  96.3919794  14.2615770  88.9834048  96.9085668
  14.5538744  89.5439105  96.1898033  14.7714390  89.2762609  97.6638827
  14.8627378  70.8525789  97.7978286  15.1686254  69.9923152  97.5104201
  15.5879982  71.4443409  97.5977280   9.1348457  81.1479582  98.3054477
   9.1897067  80.1953418  98.2296954   8.3239659  81.3039021  98.7895776
  10.2839651  85.0759705  89.5432761   9.8459081  84.3595564  89.0838398
  11.0250092  85.3035820  88.9817852   7.0740817  79.7656642  96.0644856
   6.2608683  80.0650812  96.4710048   7.5699811  79.3712330  96.7819339
  12.6715029  80.2298466 104.8959750  13.0264417  80.4569939 105.7554216
  13.3187160  80.5616843 104.2737005  18.4012766  83.3516902  95.6009079
  18.2630664  83.5418498  94.6730268  18.0448985  84.1136285  96.0577130
   6.5654892  77.3374997 101.6806091   7.2054271  77.1963756 100.9829055
   5.7332423  77.0509511 101.3044693  18.4282145  85.4193429 100.6120351
  18.8618652  85.3268718 101.4603405  19.1413726  85.3950930  99.9740367
   3.6497959  80.7820509  93.8700836   2.7195547  80.7204965  94.0870798
   3.7455431  80.2596462  93.0737478   3.5683508  77.3075322  96.4579078
   3.8290326  78.2220655  96.3488238   4.3900681  76.8399765  96.6075691
  19.2897695  85.4617130 103.1453236  19.4833585  86.3662940 103.3912511
  19.1898313  85.0024549 103.9791821  10.9434006  75.3475020 105.6443563
  10.2961921  76.0464970 105.5508040  11.7135021  75.7811164 106.0119812
  10.5134624  92.3115546  92.8164457  10.6886380  91.8403589  93.6310080
   9.8267412  92.9381312  93.0445718  11.4691687  86.5888052  98.8627759
  11.1341520  86.5488822  99.7585408  10.9695633  85.9232768  98.3898169
  14.4050879  83.9344087  89.1364818  13.7880049  83.2090915  89.0397871
  13.9367367  84.6953447  88.7931892   6.1949425  78.1529511  88.2586122
   5.3178891  78.0318312  87.8948369   6.6707178  77.3615589  88.0065011
   9.3813351  90.5055801  95.5048643   8.5980873  91.0477482  95.5986868
  10.0806096  91.0229781  95.9042884  12.6910001  76.3150431  98.1482848
  13.1878700  75.5620393  97.8283919  11.9196982  76.3514747  97.5826058
  20.5439758  82.0190796  99.7901140  20.5329634  82.9015512  99.4195073
  19.6757138  81.6662347  99.5955677  13.7739781  85.0722118  95.7221272
  12.8396060  85.1923580  95.5525976  13.9516450  84.1694585  95.4581282
   9.2744969  78.4567814  97.8754533   8.9042757  77.9038854  98.5635439
   9.7704062  77.8525947  97.3229533  17.1612333  80.9139437  96.2571306
  17.6272785  81.7467429  96.1831609  17.6119833  80.4484419  96.9616564
  15.2288564  87.2583259  93.2557458  15.5048408  87.1439853  94.1651332
  14.3593063  86.8600743  93.2169631  15.1328996  73.2820024 100.2962207
  14.2192075  73.5124251 100.4644414  15.5622097  73.3658468 101.1476240
  14.9035454  81.4709916 102.7962101  14.2506904  81.7185824 102.1414554
  15.2815834  80.6574054 102.4624579  11.8642628  91.5069609  96.8990272
  12.0465022  90.6891265  97.3618024  12.6875614  91.7237302  96.4615162
  12.1984793  90.4337795  94.1605320  12.7272560  89.9230249  93.5475482
  12.4613013  90.1180325  95.0250853   2.6515960  77.4285464  93.8238353
   2.3228666  76.5482843  93.6413459   3.0055331  77.3733133  94.7114743
  11.8995539  89.0640367  98.3333339  11.7520501  88.1357074  98.5140909
  12.7249032  89.0860457  97.8490414   5.7657783  77.7158434  94.1913831
   6.1053856  78.2444355  93.4692439   6.2129904  78.0538840  94.9672398
  15.5029661  89.8868925  99.4198212  16.4276208  89.6811787  99.2822663
  15.3344964  89.6385326 100.3287553   8.4601224  76.0995484 103.6416899
   8.1198044  75.3003297 104.0437579   7.7540230  76.3997195 103.0693732
   9.1117696  73.1844797 102.0944222   9.9343765  72.7105275 101.9723112
   9.3555759  73.9635281 102.5942908   7.7525930  76.2133055  92.3907124
   8.4734293  76.5914308  91.8870841   7.1291234  76.9321932  92.4942102
  11.8957053  76.9178204  93.3265456  12.1120668  77.8002842  93.0254284
  11.4151120  76.5264418  92.5971098   8.4952657  76.8666465  99.9517090
   8.4814226  75.9707559  99.6149388   9.2125086  76.8737129 100.5855376
  10.3478788  77.3003806 101.9970218  10.0896566  78.2220876 101.9954548
   9.8163829  76.9034240 102.6870682  15.2924977  90.4054593  94.7760303
  15.4661854  89.8401015  94.0234156  15.7853868  91.2055488  94.5939793
   7.8989553  75.7480846  95.2204660   8.0205465  74.8197492  95.4195548
   7.6091596  75.7619532  94.3082976  10.7680744  73.4335756  98.3571380
  10.7902441  73.4975089  97.4023360  11.1848803  72.5940265  98.5511886
  21.1464368  83.1691016  96.3950603  21.5895514  82.4198341  95.9969726
  20.2690878  83.1601152  96.0124335  16.2800149  89.7221357  91.8757201
  16.9751054  90.3428050  92.0944516  16.6223300  88.8716708  92.1509579
  18.1791573  87.1721063  93.4044532  18.7042897  87.5108335  92.6793852
  18.0913925  86.2368078  93.2207667  17.9883354  84.6546433 106.0228459
  18.0381359  84.4896440 106.9643981  17.8797277  83.7873692 105.6326339
   6.8719612  87.3334978  93.3120547   7.0207733  88.0170443  92.6587220
   7.6786056  87.3140068  93.8270003  20.6897233  84.6396254  98.7873050
  21.5244124  85.0786058  98.9510611  20.8256362  84.1634907  97.9681296
  17.7388739  82.1975989 104.7350538  18.2142860  82.3903635 103.9269389
  16.8154304  82.2535175 104.4893922   4.6272245  83.3600156  94.3181616
   4.3818287  82.4562486  94.5161827   4.7968160  83.3617306  93.3761094
  12.3168955  74.2323832 103.7006372  12.8350899  74.9684859 103.3752861
  11.9624088  74.5387826 104.5353131   3.8967893  79.0928514  91.8167778
   3.2037138  79.1672869  91.1607814   3.6519645  78.3288857  92.3389295
  12.5681549  70.6524115  99.2207269  12.8483303  69.9847304  99.8467695
  13.3532156  70.8453211  98.7081932  10.3715018  89.8283109  90.7832295
   9.7988985  90.4473296  90.3302767  10.9447812  90.3782471  91.3172217
  16.4390408  79.0741749 102.9678844  17.3907831  79.1739847 102.9891068
  16.2693858  78.2820018 103.4776928  14.4604787  76.1597332 103.1538245
  13.8654719  76.4402345 102.4584733  14.1754484  76.6491233 103.9254986
  13.5912278  90.1120259  91.9140877  14.5242951  90.0465821  92.1173753
  13.5035490  90.9476526  91.4555410  16.2200294  89.4286129  88.8744825
  16.1413926  89.0945993  89.7680583  17.0409961  89.9207897  88.8736297
  18.9178486  82.2947869 102.0821143  18.8854806  81.3563869 102.2680827
  19.5279109  82.3731905 101.3486968  10.7561816  81.1643922  88.1248347
  11.7020921  81.0350130  88.1936765  10.3776061  80.4258584  88.6017776
  19.0672974  79.0858912 102.1279427  18.5512023  78.3017369 101.9409355
  19.9512923  78.7577629 102.2925946  16.7283701  72.8299928  98.0875239
  16.5308522  72.5215016  98.9718571  17.3383406  73.5561567  98.2173169
  24.7355035  83.3563875 101.2227180  25.4658424  83.0949164 101.7834883
  24.1261981  82.6192597 101.2629248  22.8170332  81.4971738 101.8201631
  22.0903496  81.3627703 101.2118123  22.4017619  81.8048567 102.6258349
   8.9404734  79.0893898  88.0603233   8.0336189  78.7927011  88.1365946
   9.2180715  78.7923716  87.1937519  10.5566799  73.6330788  94.2147474
   9.7467528  73.2877873  94.5902720  11.2451216  73.3238331  94.8035085
  12.4857348  72.7108835  95.8371771  13.0388386  73.1304288  96.4961794
  12.7227434  71.7844583  95.8794727   7.7103518  75.9480833  88.2015212
   8.5722682  76.2735732  88.4611029   7.8953862  75.1612329  87.6888278
  15.8636155  74.8209360  95.3450435  15.2834824  75.4794164  94.9628487
  15.5972087  73.9986704  94.9337852  14.3139721  74.2214417  97.5471755
  14.8139499  74.3330952  96.7386074  14.9575329  73.9175470  98.1872564
  14.6461033  76.9809450  94.4006783  13.7586888  77.2659101  94.1826978
  15.0615022  76.8203213  93.5534060  17.9975569  77.0055971  98.1161122
  18.7735959  77.4952423  98.3885739  17.2723703  77.4314025  98.5732992
  20.4348127  77.7183590  99.1735063  21.0292618  77.4779326  98.4628371
  20.5074711  76.9990721  99.8008599  13.7904246  86.7454125  88.4954803
  14.4940096  86.9504127  89.1112459  13.0666895  87.3130887  88.7603887
  14.6202056  82.4963986  94.6157073  14.5637258  82.9532537  93.7764706
  15.1730399  81.7354671  94.4379916  18.4306862  78.2853718  95.4407193
  18.1743797  77.8850354  96.2715400  17.8059730  78.9997512  95.3157332
  22.7419200  81.0249791  97.9478484  22.1818758  81.0942980  98.7210046
  22.1362704  80.8490776  97.2277980  15.6990944  87.1836654  90.5453263
  16.5336547  86.7517852  90.3630738  15.5375286  87.0118668  91.4730158
  15.3536836  83.6868767  91.9109602  15.2985639  83.5213039  90.9698047
  14.7282891  84.3944800  92.0671792   8.6632961  73.1876876  91.4894921
   8.6511631  74.1318716  91.6463192   9.5556383  73.0047022  91.1954382
  12.4785081  69.7819653  95.7440858  11.7117476  69.2278140  95.8897540
  12.8895786  69.8541522  96.6055009  24.3275219  97.7006305 100.6408440
  24.9653629  97.5813052  99.9371780  24.2096061  98.6487149 100.6996392
  21.1364925  97.6533733 100.5769965  20.7983436  97.5374798  99.6890499
  22.0054693  97.2524898 100.5570971  16.9951741  99.5069210  96.5666856
  16.4316606  99.4159147  95.7983143  16.8804136  98.6869114  97.0469348
  22.5751299 103.1740177  91.8781320  21.9239279 103.7594258  91.4915334
  23.3695662 103.7046372  91.9376358  16.5006926 100.2629314  92.2768455
  17.2737802  99.7158301  92.1381331  16.8532325 101.1273564  92.4882916
  18.8373204  96.4221981  89.9086905  19.0898725  95.9003502  89.1470368
  17.8997763  96.2588126  90.0113588  23.8816487  95.4257759  97.7161648
  24.6679576  95.0077182  97.3652065  24.1455191  96.3303851  97.8843296
  24.0526564 100.8630609  92.4150305  23.4172397 100.9365236  93.1271209
  23.7223971 101.4524208  91.7369384  29.2824914  95.3632992  98.6194626
  30.0150086  94.7932209  98.8532456  28.5264270  94.9754593  99.0601132
  18.5569493  98.3250086  92.1111280  18.4405751  97.6494990  92.7792364
  18.6671753  97.8382460  91.2943433  20.9001034  97.7860234  95.8157969
  20.5359241  97.2590855  96.5270890  21.7568150  97.3958703  95.6424454
  26.8050335  89.0754566 103.0789235  26.4733659  89.9449977 102.8550450
  26.2095948  88.7590850 103.7583265  20.5406521  92.8150133  90.8119317
  20.7080923  93.6830370  91.1789788  20.3503690  92.9777415  89.8880607
  26.6978998  93.7949652 100.1582585  25.7895875  93.7265061  99.8641346
  26.6466594  94.2721597 100.9864411  20.5195742  95.2707791  91.7965984
  20.3995367  95.7164842  92.6351464  19.8248330  95.6193108  91.2379522
  28.5640644  91.9966091 101.9360459  27.9215025  92.2898624 101.2900254
  28.0595573  91.8819011 102.7413656  26.2180808  95.7429264  92.6246318
  27.1298664  95.9756651  92.4494016  25.7090455  96.3266308  92.0621397
  24.8250390 100.7255082 100.0159900  24.1959253 100.8900797  99.3135968
  24.4376052 101.1396692 100.7870864  28.7039622 101.6609520  97.3704263
  28.0190660 102.0408422  96.8201297  28.7883471 102.2704847  98.1036211
  24.0052091  92.7630867 105.2922341  23.7613023  93.5172927 104.7556617
  24.2812021  93.1416215 106.1269588  25.9590554  99.3069479 103.9699607
  26.1707449  99.9501239 103.2933988  25.9120302  98.4731796 103.5021537
  23.5616783  91.9187300 100.8736179  22.7001262  92.2168554 101.1652917
  23.5879217  92.1357699  99.9417212  20.3778352 100.4629491  97.2809985
  20.8416698 100.7417193  96.4914607  20.1135150  99.5612935  97.0983076
  19.3147238  96.5852643  94.0899550  20.0171282  97.0373687  94.5573476
  18.9827867  95.9436462  94.7179443  27.0736382 102.1841435 102.1421964
  27.8953825 101.7821622 101.8604646  27.0698785 102.0809669 103.0938080
  15.0087318  95.2080775  96.3500160  14.2118481  95.3199469  96.8683656
  14.7812910  95.5467427  95.4841051  35.1642375  98.5280183  98.4906936
  34.4106083  97.9587581  98.3350940  35.2989916  98.4942848  99.4377571
  20.5541003 103.3993585  94.1661655  20.4186678 104.2445121  94.5946503
  21.0950815 103.6012863  93.4027589  23.9033466  86.9224147 102.6960549
  23.5597736  87.8125789 102.6199659  24.2712429  86.7325805 101.8330134
  23.8683749  96.9132758  91.2032984  23.3530373  97.6837363  91.4421371
  23.5961058  96.2397895  91.8266045  21.4530860  91.7582459  96.2618222
  20.5972456  91.3689310  96.0823861  21.8657812  91.8374420  95.4018008
  22.9830007  89.2928803 100.6609782  22.4794802  89.2558938  99.8477587
  23.2760614  90.2021545 100.7206439  19.2272893  89.3767532  99.6675964
  20.0925889  89.1810341  99.3081853  19.2950402  89.1477884 100.5945320
  28.8418023  99.6665113  93.1386157  28.0647466  99.3276273  92.6941319
  29.5209504  99.6717736  92.4641122  23.6570052  94.7859851  93.0292765
  23.3520188  95.1006000  93.8802908  24.6100494  94.8641270  93.0720098
  22.1016484 100.9450074  94.6785719  21.5737846 100.2102833  94.3658956
  21.6003987 101.7224750  94.4325687  27.0809330  99.1399094  99.7952765
  26.4233005  99.8298356  99.8832894  27.8849729  99.5295526 100.1386752
  16.8335212  91.6069740  97.0392330  17.4078964  91.3844922  96.3065523
  17.4206194  91.6758435  97.7920932  25.8914789  97.4943467  97.8456707
  26.4046671  98.1273459  98.3478417  26.5416013  96.8944663  97.4800067
  17.1604799  93.6374201  91.0588216  16.3242111  93.9748888  91.3797490
  17.0209568  93.5023181  90.1215353  19.1357879  88.4810989  95.7667400
  18.4822292  88.1660006  95.1424015  19.0938354  87.8586730  96.4927223
  20.2469084  98.7630284  87.6820692  19.3396146  98.5319538  87.8811841
  20.7440116  97.9667903  87.8694674  23.1537163 107.4727791  90.6017378
  22.4798862 107.7759488  91.2102336  23.5402985 108.2756872  90.2522835
  22.3695620  94.9692923 100.0915047  21.4518181  95.1907870  99.9336736
  22.7855763  95.0439233  99.2326755  23.1530668  96.3684338  95.2217728
  23.9002487  96.8805736  94.9124850  23.4222257  96.0468391  96.0822121
  21.4257318  98.8642879  92.2044682  20.5168537  98.5801912  92.3017152
  21.4552402  99.2841958  91.3447989  26.6576585 102.4749469  95.9735850
  26.2038912 101.6340378  96.0301040  26.0270552 103.1110867  96.3110630
  25.6009505  93.4041455  97.2036517  24.8632262  92.8918841  97.5346760
  25.8536278  92.9641836  96.3919794  25.1009524 104.3125965  96.9085668
  25.3932499 104.8731022  96.1898033  25.6108145 104.6054526  97.6638827
  25.7021132  86.1817707  97.7978286  26.0080009  85.3215070  97.5104201
  26.4273737  86.7735327  97.5977280  19.9742212  96.4771500  98.3054477
  20.0290822  95.5245336  98.2296954  19.1633414  96.6330939  98.7895776
  21.1233406 100.4051623  89.5432761  20.6852835  99.6887482  89.0838398
  21.8643846 100.6327738  88.9817852  17.9134572  95.0948559  96.0644856
  17.1002437  95.3942730  96.4710048  18.4093566  94.7004248  96.7819339
  23.5108783  95.5590384 104.8959750  23.8658171  95.7861857 105.7554216
  24.1580915  95.8908761 104.2737005  29.2406520  98.6808820  95.6009079
  29.1024419  98.8710416  94.6730268  28.8842739  99.4428203  96.0577130
  17.4048646  92.6666915 101.6806091  18.0448026  92.5255674 100.9829055
  16.5726177  92.3801428 101.3044693  29.2675900 100.7485347 100.6120351
  29.7012407 100.6560636 101.4603405  29.9807481 100.7242847  99.9740367
  14.4891714  96.1112427  93.8700836  13.5589302  96.0496883  94.0870798
  14.5849186  95.5888380  93.0737478  14.4077263  92.6367240  96.4579078
  14.6684080  93.5512573  96.3488238  15.2294435  92.1691682  96.6075691
  30.1291449 100.7909047 103.1453236  30.3227340 101.6954858 103.3912511
  30.0292068 100.3316466 103.9791821  21.7827760  90.6766938 105.6443563
  21.1355675  91.3756888 105.5508040  22.5528776  91.1103082 106.0119812
  21.3528378 107.6407464  92.8164457  21.5280134 107.1695507  93.6310080
  20.6661166 108.2673230  93.0445718  22.3085442 101.9179970  98.8627759
  21.9735274 101.8780740  99.7585408  21.8089387 101.2524686  98.3898169
  25.2444633  99.2636004  89.1364818  24.6273804  98.5382833  89.0397871
  24.7761122 100.0245365  88.7931892  17.0343179  93.4821429  88.2586122
  16.1572645  93.3610229  87.8948369  17.5100932  92.6907507  88.0065011
  20.2207105 105.8347719  95.5048643  19.4374627 106.3769399  95.5986868
  20.9199850 106.3521699  95.9042884  23.5303755  91.6442348  98.1482848
  24.0272455  90.8912311  97.8283919  22.7590737  91.6806665  97.5826058
  31.3833513  97.3482714  99.7901140  31.3723389  98.2307429  99.4195073
  30.5150892  96.9954265  99.5955677  24.6133536 100.4014036  95.7221272
  23.6789815 100.5215498  95.5525976  24.7910204  99.4986502  95.4581282
  20.1138724  93.7859731  97.8754533  19.7436511  93.2330772  98.5635439
  20.6097816  93.1817865  97.3229533  28.0006087  96.2431355  96.2571306
  28.4666539  97.0759347  96.1831609  28.4513588  95.7776337  96.9616564
  26.0682318 102.5875176  93.2557458  26.3442162 102.4731771  94.1651332
  25.1986817 102.1892661  93.2169631  25.9722750  88.6111942 100.2962207
  25.0585830  88.8416169 100.4644414  26.4015851  88.6950386 101.1476240
  25.7429208  96.8001834 102.7962101  25.0900659  97.0477741 102.1414554
  26.1209588  95.9865972 102.4624579  22.7036382 106.8361527  96.8990272
  22.8858777 106.0183183  97.3618024  23.5269368 107.0529219  96.4615162
  23.0378548 105.7629712  94.1605320  23.5666314 105.2522167  93.5475482
  23.3006767 105.4472242  95.0250853  11.7621873  95.0763284  93.6999028
  12.0575314  94.1673962  93.6466082  10.8609909  95.0551023  93.3780030
  13.4909714  92.7577382  93.8238353  13.1622421  91.8774760  93.6413459
  13.8449085  92.7025050  94.7114743  22.7389293 104.3932284  98.3333339
  22.5914256 103.4648992  98.5140909  23.5642787 104.4152375  97.8490414
  16.6051538  93.0450351  94.1913831  16.9447610  93.5736273  93.4692439
  17.0523658  93.3830757  94.9672398  26.3423415 105.2160843  99.4198212
  27.2669963 105.0103704  99.2822663  26.1738719 104.9677244 100.3287553
  19.2994978  91.4287402 103.6416899  18.9591799  90.6295215 104.0437579
  18.5933985  91.7289113 103.0693732  19.9511450  88.5136714 102.0944222
  20.7737520  88.0397193 101.9723112  20.1949514  89.2927198 102.5942908
  18.5919685  91.5424973  92.3907124  19.3128047  91.9206226  91.8870841
  17.9684989  92.2613850  92.4942102  22.7350808  92.2470122  93.3265456
  22.9514422  93.1294760  93.0254284  22.2544875  91.8556335  92.5971098
  19.3346412  92.1958383  99.9517090  19.3207981  91.2999476  99.6149388
  20.0518840  92.2029047 100.5855376  21.1872543  92.6295723 101.9970218
  20.9290320  93.5512794 101.9954548  20.6557583  92.2326158 102.6870682
  26.1318731 105.7346510  94.7760303  26.3055609 105.1692933  94.0234156
  26.6247623 106.5347405  94.5939793  18.7383308  91.0772763  95.2204660
  18.8599219  90.1489410  95.4195548  18.4485350  91.0911449  94.3082976
  21.6074498  88.7627674  98.3571380  21.6296195  88.8267007  97.4023360
  22.0242557  87.9232182  98.5511886  31.9858123  98.4982933  96.3950603
  32.4289269  97.7490259  95.9969726  31.1084633  98.4893070  96.0124335
  27.1193904 105.0513275  91.8757201  27.8144809 105.6719968  92.0944516
  27.4617054 104.2008626  92.1509579  29.0185327 102.5012980  93.4044532
  29.5436651 102.8400253  92.6793852  28.9307680 101.5659996  93.2207667
  28.8277108  99.9838350 106.0228459  28.8775113  99.8188358 106.9643981
  28.7191031  99.1165609 105.6326339  17.7113367 102.6626896  93.3120547
  17.8601487 103.3462360  92.6587220  18.5179810 102.6431986  93.8270003
  31.5290987  99.9688172  98.7873050  32.3637879 100.4077976  98.9510611
  31.6650116  99.4926825  97.9681296  28.5782493  97.5267907 104.7350538
  29.0536615  97.7195553 103.9269389  27.6548059  97.5827092 104.4893922
  15.4666000  98.6892074  94.3181616  15.2212042  97.7854404  94.5161827
  15.6361914  98.6909224  93.3761094  23.1562710  89.5615750 103.7006372
  23.6744654  90.2976777 103.3752861  22.8017842  89.8679743 104.5353131
  14.7361647  94.4220431  91.8167778  14.0430892  94.4964786  91.1607814
  14.4913399  93.6580775  92.3389295  23.4075304  85.9816033  99.2207269
  23.6877058  85.3139222  99.8467695  24.1925911  86.1745128  98.7081932
  21.2108772 105.1575027  90.7832295  20.6382739 105.7765214  90.3302767
  21.7841566 105.7074388  91.3172217  27.2784162  94.4033667 102.9678844
  28.2301585  94.5031764 102.9891068  27.1087613  93.6111935 103.4776928
  25.2998542  91.4889250 103.1538245  24.7048474  91.7694263 102.4584733
  25.0148238  91.9783151 103.9254986  24.4306032 105.4412177  91.9140877
  25.3636705 105.3757738  92.1173753  24.3429245 106.2768444  91.4555410
  27.0594049 104.7578047  88.8744825  26.9807680 104.4237911  89.7680583
  27.8803716 105.2499815  88.8736297  29.7572240  97.6239786 102.0821143
  29.7248560  96.6855787 102.2680827  30.3672864  97.7023823 101.3486968
  21.5955571  96.4935839  88.1248347  22.5414676  96.3642047  88.1936765
  21.2169816  95.7550501  88.6017776  29.9066728  94.4150830 102.1279427
  29.3905777  93.6309286 101.9409355  30.7906677  94.0869546 102.2925946
  27.5677455  88.1591845  98.0875239  27.3702277  87.8506934  98.9718571
  28.1777161  88.8853484  98.2173169  35.5748790  98.6855793 101.2227180
  36.3052178  98.4241081 101.7834883  34.9655735  97.9484515 101.2629248
  33.6564087  96.8263656 101.8201631  32.9297251  96.6919621 101.2118123
  33.2411374  97.1340484 102.6258349  19.7798488  94.4185816  88.0603233
  18.8729943  94.1218928  88.1365946  20.0574469  94.1215634  87.1937519
  21.3960554  88.9622705  94.2147474  20.5861282  88.6169790  94.5902720
  22.0844971  88.6530249  94.8035085  23.3251102  88.0400752  95.8371771
  23.8782141  88.4596206  96.4961794  23.5621188  87.1136500  95.8794727
  18.5497273  91.2772751  88.2015212  19.4116437  91.6027649  88.4611029
  18.7347617  90.4904247  87.6888278  26.7029909  90.1501277  95.3450435
  26.1228578  90.8086081  94.9628487  26.4365842  89.3278622  94.9337852
  25.1533475  89.5506335  97.5471755  25.6533254  89.6622870  96.7386074
  25.7969083  89.2467388  98.1872564  25.4854787  92.3101368  94.4006783
  24.5980642  92.5951018  94.1826978  25.9008776  92.1495131  93.5534060
  28.8369323  92.3347889  98.1161122  29.6129713  92.8244341  98.3885739
  28.1117457  92.7605943  98.5732992  31.2741882  93.0475508  99.1735063
  31.8686373  92.8071244  98.4628371  31.3468466  92.3282639  99.8008599
  24.6298001 102.0746042  88.4954803  25.3333851 102.2796045  89.1112459
  23.9060649 102.6422804  88.7603887  25.4595811  97.8255904  94.6157073
  25.4031012  98.2824455  93.7764706  26.0124153  97.0646588  94.4379916
  29.2700617  93.6145636  95.4407193  29.0137551  93.2142271  96.2715400
  28.6453485  94.3289429  95.3157332  33.5812955  96.3541709  97.9478484
  33.0212513  96.4234898  98.7210046  32.9756458  96.1782693  97.2277980
  26.5384698 102.5128572  90.5453263  27.3730302 102.0809770  90.3630738
  26.3769041 102.3410585  91.4730158  26.1930590  99.0160685  91.9109602
  26.1379394  98.8504956  90.9698047  25.5676645  99.7236718  92.0671792
  19.5026716  88.5168794  91.4894921  19.4905385  89.4610634  91.6463192
  20.3950138  88.3338939  91.1954382  23.3178835  85.1111571  95.7440858
  22.5511231  84.5570057  95.8897540  23.7289540  85.1833439  96.6055009
  34.7210242 110.7549677  97.7161648  35.5073331 110.3369100  97.3652065
  34.9848946 111.6595769  97.8843296  40.1218669 110.6924910  98.6194626
  40.8543841 110.1224127  98.8532456  39.3658024 110.3046510  99.0601132
  37.6444089 104.4046484 103.0789235  37.3127414 105.2741895 102.8550450
  37.0489702 104.0882768 103.7583265  31.3800275 108.1442051  90.8119317
  31.5474678 109.0122287  91.1789788  31.1897444 108.3069333  89.8880607
  37.5372752 109.1241570 100.1582585  36.6289630 109.0556978  99.8641346
  37.4860348 109.6013515 100.9864411  31.3589496 110.5999708  91.7965984
  31.2389121 111.0456759  92.6351464  30.6642085 110.9485026  91.2379522
  39.4034399 107.3258008 101.9360459  38.7608779 107.6190542 101.2900254
  38.8989327 107.2110929 102.7413656  37.0574562 111.0721182  92.6246318
  37.9692419 111.3048568  92.4494016  36.5484210 111.6558226  92.0621397
  34.8445845 108.0922785 105.2922341  34.6006777 108.8464845 104.7556617
  35.1205776 108.4708132 106.1269588  34.4010537 107.2479218 100.8736179
  33.5395016 107.5460471 101.1652917  34.4272972 107.4649617  99.9417212
  46.0036129 113.8572101  98.4906936  45.2499838 113.2879499  98.3350940
  46.1383670 113.8234765  99.4377571  34.7427221 102.2516065 102.6960549
  34.3991490 103.1417707 102.6199659  35.1106183 102.0617723 101.8330134
  34.7077504 112.2424676  91.2032984  34.1924127 113.0129281  91.4421371
  34.4354812 111.5689812  91.8266045  32.2924615 107.0874377  96.2618222
  31.4366211 106.6981227  96.0823861  32.7051566 107.1666338  95.4018008
  33.8223761 104.6220720 100.6609782  33.3188557 104.5850855  99.8477587
  34.1154368 105.5313463 100.7206439  30.0666647 104.7059450  99.6675964
  30.9319644 104.5102259  99.3081853  30.1344156 104.4769802 100.5945320
  39.6811778 114.9957031  93.1386157  38.9041220 114.6568190  92.6941319
  40.3603259 115.0009654  92.4641122  34.4963807 110.1151768  93.0292765
  34.1913942 110.4297917  93.8802908  35.4494249 110.1933188  93.0720098
  27.6728966 106.9361658  97.0392330  28.2472718 106.7136839  96.3065523
  28.2599949 107.0050352  97.7920932  36.7308543 112.8235385  97.8456707
  37.2440425 113.4565377  98.3478417  37.3809767 112.2236580  97.4800067
  27.9998553 108.9666119  91.0588216  27.1635866 109.3040805  91.3797490
  27.8603323 108.8315099  90.1215353  29.9751634 103.8102907  95.7667400
  29.3216046 103.4951924  95.1424015  29.9332108 103.1878647  96.4927223
  33.2089374 110.2984840 100.0915047  32.2911936 110.5199787  99.9336736
  33.6249518 110.3731151  99.2326755  33.9924422 111.6976256  95.2217728
  34.7396241 112.2097653  94.9124850  34.2616012 111.3760309  96.0822121
  36.4403259 108.7333372  97.2036517  35.7026016 108.2210758  97.5346760
  36.6930033 108.2933754  96.3919794  36.5414887 101.5109624  97.7978286
  36.8473763 100.6506988  97.5104201  37.2667491 102.1027244  97.5977280
  28.7528326 110.4240477  96.0644856  27.9396192 110.7234648  96.4710048
  29.2487320 110.0296166  96.7819339  34.3502538 110.8882302 104.8959750
  34.7051926 111.1153775 105.7554216  34.9974669 111.2200678 104.2737005
  40.0800275 114.0100737  95.6009079  39.9418173 114.2002333  94.6730268
  39.7236494 114.7720120  96.0577130  28.2442401 107.9958833 101.6806091
  28.8841780 107.8547592 100.9829055  27.4119931 107.7093346 101.3044693
  25.2471017 107.9659158  96.4579078  25.5077835 108.8804491  96.3488238
  26.0688190 107.4983600  96.6075691  32.6221515 106.0058856 105.6443563
  31.9749430 106.7048805 105.5508040  33.3922530 106.4395000 106.0119812
  27.8736934 108.8113346  88.2586122  26.9966400 108.6902147  87.8948369
  28.3494687 108.0199425  88.0065011  34.3697510 106.9734266  98.1482848
  34.8666209 106.2204228  97.8283919  33.5984491 107.0098583  97.5826058
  42.2227267 112.6774632  99.7901140  42.2117143 113.5599347  99.4195073
  41.3544647 112.3246183  99.5955677  30.9532478 109.1151649  97.8754533
  30.5830266 108.5622690  98.5635439  31.4491571 108.5109783  97.3229533
  38.8399842 111.5723273  96.2571306  39.3060294 112.4051264  96.1831609
  39.2907342 111.1068254  96.9616564  36.8116504 103.9403860 100.2962207
  35.8979584 104.1708086 100.4644414  37.2409606 104.0242304 101.1476240
  36.5822963 112.1293752 102.7962101  35.9294413 112.3769659 102.1414554
  36.9603343 111.3157890 102.4624579  24.3303469 108.0869299  93.8238353
  24.0016175 107.2066678  93.6413459  24.6842840 108.0316968  94.7114743
  27.4445292 108.3742269  94.1913831  27.7841365 108.9028190  93.4692439
  27.8917413 108.7122675  94.9672398  30.1388733 106.7579320 103.6416899
  29.7985553 105.9587133 104.0437579  29.4327739 107.0581031 103.0693732
  30.7905205 103.8428632 102.0944222  31.6131274 103.3689110 101.9723112
  31.0343268 104.6219116 102.5942908  29.4313439 106.8716891  92.3907124
  30.1521802 107.2498143  91.8870841  28.8078743 107.5905767  92.4942102
  33.5744562 107.5762040  93.3265456  33.7908177 108.4586677  93.0254284
  33.0938629 107.1848253  92.5971098  30.1740166 107.5250301  99.9517090
  30.1601735 106.6291394  99.6149388  30.8912595 107.5320965 100.5855376
  32.0266297 107.9587641 101.9970218  31.7684075 108.8804712 101.9954548
  31.4951338 107.5618076 102.6870682  29.5777062 106.4064681  95.2204660
  29.6992974 105.4781327  95.4195548  29.2879105 106.4203367  94.3082976
  32.4468253 104.0919592  98.3571380  32.4689950 104.1558925  97.4023360
  32.8636312 103.2524100  98.5511886  42.8251877 113.8274851  96.3950603
  43.2683023 113.0782176  95.9969726  41.9478387 113.8184987  96.0124335
  42.3684742 115.2980089  98.7873050  43.2031633 115.7369893  98.9510611
  42.5043871 114.8218743  97.9681296  39.4176248 112.8559824 104.7350538
  39.8930369 113.0487471 103.9269389  38.4941813 112.9119010 104.4893922
  33.9956464 104.8907668 103.7006372  34.5138408 105.6268695 103.3752861
  33.6411597 105.1971661 104.5353131  25.5755402 109.7512349  91.8167778
  24.8824647 109.8256704  91.1607814  25.3307154 108.9872693  92.3389295
  34.2469058 101.3107950  99.2207269  34.5270812 100.6431139  99.8467695
  35.0319665 101.5037046  98.7081932  38.1177917 109.7325584 102.9678844
  39.0695340 109.8323682 102.9891068  37.9481367 108.9403853 103.4776928
  36.1392296 106.8181168 103.1538245  35.5442228 107.0986180 102.4584733
  35.8541993 107.3075068 103.9254986  40.5965994 112.9531704 102.0821143
  40.5642315 112.0147705 102.2680827  41.2066618 113.0315741 101.3486968
  32.4349325 111.8227757  88.1248347  33.3808430 111.6933965  88.1936765
  32.0563570 111.0842419  88.6017776  40.7460483 109.7442747 102.1279427
  40.2299532 108.9601204 101.9409355  41.6300431 109.4161464 102.2925946
  38.4071210 103.4883763  98.0875239  38.2096031 103.1798851  98.9718571
  39.0170915 104.2145402  98.2173169  46.4142544 114.0147711 101.2227180
  47.1445933 113.7532999 101.7834883  45.8049490 113.2776433 101.2629248
  44.4957841 112.1555573 101.8201631  43.7691005 112.0211538 101.2118123
  44.0805128 112.4632402 102.6258349  30.6192242 109.7477733  88.0603233
  29.7123698 109.4510846  88.1365946  30.8968224 109.4507551  87.1937519
  32.2354308 104.2914623  94.2147474  31.4255037 103.9461708  94.5902720
  32.9238725 103.9822167  94.8035085  34.1644857 103.3692670  95.8371771
  34.7175895 103.7888123  96.4961794  34.4014943 102.4428418  95.8794727
  29.3891027 106.6064669  88.2015212  30.2510191 106.9319567  88.4611029
  29.5741371 105.8196164  87.6888278  37.5423664 105.4793195  95.3450435
  36.9622333 106.1377999  94.9628487  37.2759596 104.6570540  94.9337852
  35.9927230 104.8798253  97.5471755  36.4927008 104.9914787  96.7386074
  36.6362838 104.5759306  98.1872564  36.3248542 107.6393285  94.4006783
  35.4374397 107.9242936  94.1826978  36.7402531 107.4787049  93.5534060
  39.6763078 107.6639806  98.1161122  40.4523468 108.1536259  98.3885739
  38.9511212 108.0897861  98.5732992  42.1135636 108.3767426  99.1735063
  42.7080127 108.1363162  98.4628371  42.1862220 107.6574556  99.8008599
  36.2989565 113.1547821  94.6157073  36.2424767 113.6116373  93.7764706
  36.8517908 112.3938506  94.4379916  40.1094371 108.9437553  95.4407193
  39.8531306 108.5434189  96.2715400  39.4847239 109.6581347  95.3157332
  44.4206709 111.6833626  97.9478484  43.8606267 111.7526816  98.7210046
  43.8150212 111.5074611  97.2277980  30.3420470 103.8460712  91.4894921
  30.3299140 104.7902552  91.6463192  31.2343892 103.6630857  91.1954382
  34.1572590 100.4403488  95.7440858  33.3904985  99.8861975  95.8897540
  34.5683295 100.5125357  96.6055009  47.3808641 116.8401542  97.7978286
  47.6867518 115.9798905  97.5104201  48.1061246 117.4319162  97.5977280
  45.0862813 116.6399868  99.2207269  45.3664567 115.9723057  99.8467695
  45.8713420 116.8328964  98.7081932  44.9966344 115.7695406  95.7440858
  44.2298740 115.2153893  95.8897540  45.4077049 115.8417275  96.6055009
   2.6461113  29.5466553  85.2152242   1.8924821  28.9773951  85.0596247
   2.7808654  29.5129217  86.1622877   3.0567528  29.7042163  87.9472487
   3.7870916  29.4427451  88.5080190   2.4474473  28.9670885  87.9874555
   1.1382825  27.8450025  88.5446938   0.4115988  27.7105990  87.9363430
   0.7230112  28.1526854  89.3503656   1.0631692  27.3728078  84.6723791
   0.5031250  27.4421268  85.4455353   0.4575196  27.1969063  83.9523287
   2.6487711  44.0484592  87.3653747   3.2866121  43.9291340  86.6617087
   2.5308554  44.9965436  87.4241699   2.2028979  41.7736046  84.4406955
   2.9892069  41.3555469  84.0897372   2.4667684  42.6782138  84.6088603
   2.3739057  47.2108896  79.1395611   1.7384890  47.2843523  79.8516516
   2.0436463  47.8002495  78.4614691   7.6037407  41.7111279  85.3439933
   8.3362578  41.1410496  85.5777763   6.8476762  41.3232880  85.7846439
   5.1262827  35.4232853  89.8034542   4.7946152  36.2928264  89.5795757
   4.5308440  35.1069137  90.4828572   1.6194346  47.6245399  89.2030454
   1.3195069  48.5270438  89.0946262   1.2745406  47.3577583  90.0551607
   5.0191490  40.1427940  86.8827892   4.1108368  40.0743348  86.5886653
   4.9679086  40.6199885  87.7109717   6.8853137  38.3444378  88.6605766
   6.2427517  38.6376911  88.0145560   6.3808065  38.2297298  89.4658962
   4.5393300  42.0907551  79.3491625   5.4511156  42.3234938  79.1739322
   4.0302947  42.6744595  78.7866704   2.8234068  46.5132179  92.9852917
   3.2317424  46.0714590  92.2407550   2.1011329  45.9384807  93.2387110
   3.1462883  47.0733370  86.7405206   2.5171745  47.2379084  86.0381274
   2.7588545  47.4874979  87.5116170   7.0252114  48.0087808  84.0949570
   6.3403153  48.3886709  83.5446603   7.1095964  48.6183134  84.8281518
   2.3264583  39.1109154  92.0167648   2.0825515  39.8651215  91.4801924
   2.6024514  39.4894502  92.8514895   4.2803046  45.6547767  90.6944914
   4.4919941  46.2979526  90.0179295   4.2332794  44.8210083  90.2266844
   1.8829275  38.2665587  87.5981486   1.0213754  38.5646841  87.8898223
   1.9091710  38.4835986  86.6662518   5.3948874  48.5319722  88.8667271
   6.2166318  48.1299909  88.5849953   5.3911277  48.4287956  89.8183387
  13.4854867  44.8758470  85.2152242  12.7318575  44.3065869  85.0596247
  13.6202408  44.8421135  86.1622877   2.6003210  50.6498239  93.0488705
   2.5821685  51.4707120  92.5568974   3.5223130  50.5252314  93.2738846
   2.2245959  33.2702435  89.4205855   1.8810228  34.1604076  89.3444966
   2.5924921  33.0804092  88.5575440   2.1896241  43.2611046  77.9278290
   1.6742865  44.0315650  78.1666678   1.9173550  42.5876182  78.5511352
   1.3042499  35.6407090  87.3855089   0.8007295  35.6037225  86.5722894
   1.5973106  36.5499832  87.4451745   7.1630516  46.0143400  79.8631464
   6.3859958  45.6754560  79.4186626   7.8421996  46.0196024  79.1886429
   1.9782545  41.1338138  79.7538072   1.6732680  41.4484287  80.6048215
   2.9312987  41.2119558  79.7965405   5.4021822  45.4877382  86.5198072
   4.7445497  46.1776643  86.6078200   6.2062222  45.8773814  86.8632058
   4.2127281  43.8421754  84.5702014   4.7259163  44.4751746  85.0723723
   4.8628505  43.2422950  84.2045374   1.4749655  53.8206079  77.3262685
   0.8011354  54.1237775  77.9347643   1.8615477  54.6235159  76.9768142
   1.4743160  42.7162626  81.9463034   2.2214979  43.2284023  81.6370156
   1.7434749  42.3946678  82.8067428   4.9789077  48.8227756  82.6981156
   4.5251405  47.9818666  82.7546347   4.3483044  49.4589154  83.0355936
   3.9221997  39.7519742  83.9281824   3.1844754  39.2397128  84.2592066
   4.1748771  39.3120123  83.1165101   3.4222017  50.6604252  83.6330974
   3.7144991  51.2209310  82.9143340   3.9320637  50.9532813  84.3884133
   4.0233624  32.5295994  84.5223593   4.3292501  31.6693357  84.2349508
   4.7486229  33.1213614  84.3222587   1.8321276  41.9068671  91.6205057
   2.1870663  42.1340144  92.4799523   2.4793407  42.2387048  90.9982312
   7.5619013  45.0287107  82.3254386   7.4236911  45.2188703  81.3975575
   7.2055231  45.7906490  82.7822437   7.5888392  47.0963634  87.3365657
   8.0224899  47.0038923  88.1848711   8.3019973  47.0721134  86.6985673
   1.3216287  50.6965728  88.8698758   1.3753309  51.2656664  89.6376474
   0.4531068  50.8667613  88.5052795   8.4503942  47.1387335  89.8698543
   8.6439832  48.0433145  90.1157818   8.3504560  46.6794754  90.7037128
   3.5119050  47.2894077  95.4439423   3.3604557  47.0604629  94.5269507
   3.5023730  48.2464679  95.4570768   3.5657125  45.6114292  75.8610125
   2.9486296  44.8861120  75.7643178   3.0973614  46.3723652  75.5177199
   5.2211257  50.3213200  93.5215905   5.1623803  49.6372420  92.8546488
   5.6230775  51.0632190  93.0696531   5.2228664  48.2852784  91.7529885
   4.3355443  47.9478706  91.8756284   5.7927215  47.5535815  91.9898650
   1.8516247  37.9920636  84.8728155   2.3484947  37.2390598  84.5529225
   1.0803229  38.0284952  84.3071364   9.7046005  43.6961001  86.5146447
   9.6935881  44.5785717  86.1440380   8.8363384  43.3432552  86.3200984
   1.2128501  52.8441070  90.8749287   1.9256473  53.4788535  90.8025188
   0.7218530  52.9404936  90.0589289   2.9346028  46.7492323  82.4466578
   2.0002307  46.8693785  82.2771283   3.1122697  45.8464790  82.1826588
   6.3218580  42.5909642  82.9816613   6.7879032  43.4237634  82.9076915
   6.7726080  42.1254624  83.6861871   4.3894811  48.9353464  79.9802765
   4.6654655  48.8210058  80.8896639   3.5199309  48.5370948  79.9414938
   4.2935242  34.9590229  87.0207514   3.3798322  35.1894456  87.1889721
   4.7228344  35.0428673  87.8721546   4.0641701  43.1480121  89.5207408
   3.4113151  43.3956029  88.8659861   4.4422081  42.3344259  89.1869885
   1.0248875  53.1839814  83.6235578   1.2071269  52.3661470  84.0863331
   1.8481861  53.4007507  83.1860468   1.3591040  52.1107999  80.8850627
   1.8878807  51.6000454  80.2720789   1.6219260  51.7950530  81.7496160
   3.7062931  50.0228117  96.0979715   4.2502835  50.6358075  95.6034670
   3.1249776  50.5807696  96.6146728   1.9920444  53.1448835  87.2294743
   1.8671583  52.3438575  86.7205689   2.6499535  53.6395029  86.7408713
   4.0555352  50.9457855  88.8574293   3.1085688  50.8263206  88.7852620
   4.4038125  50.0580353  88.9400555   1.0601786  50.7410572  85.0578645
   0.9126748  49.8127279  85.2386216   1.8855279  50.7630662  84.5735721
   4.6635907  51.5639130  86.1443518   5.5882455  51.3581992  86.0067969
   4.4951211  51.3155531  87.0532860   1.0563300  38.5948409  80.0510763
   1.2726914  39.4773047  79.7499591   0.5757367  38.2034623  79.3216405
   4.4531224  52.0824798  81.5005610   4.6268101  51.5171220  80.7479462
   4.9460115  52.8825693  81.3185100  10.3070615  44.8461221  83.1195909
  10.7501761  44.0968546  82.7215033   9.4297125  44.8371357  82.7369641
   5.4406396  51.3991562  78.6002508   6.1357301  52.0198255  78.8189823
   5.7829546  50.5486913  78.8754886   7.3397819  48.8491268  80.1289839
   7.8649143  49.1878540  79.4039159   7.2520172  47.9138283  79.9452973
   7.0291725  49.4824171  95.4341037   6.2387269  49.4648310  94.8945536
   6.7925080  50.0212465  96.1890073   7.1489600  46.3316638  92.7473765
   7.1987605  46.1666645  93.6889288   7.0403524  45.4643897  92.3571646
   4.4393363  42.3147566  94.0633072   5.3403226  42.1754031  93.7717070
   4.5141337  42.4802020  95.0031249   8.6507797  48.7513579  92.9915787
   8.3592606  49.1143560  93.8279248   8.0379929  48.0380587  92.8129119
   9.8503480  46.3166459  85.5118357  10.6850371  46.7556263  85.6755917
   9.9862608  45.8405112  84.6926603   6.8994985  43.8746194  91.4595845
   7.3749107  44.0673840  90.6514696   5.9760551  43.9305380  91.2139228
   1.4775202  35.9094037  90.4251679   1.9957146  36.6455064  90.0998167
   1.1230335  36.2158031  91.2598438   1.7287796  32.3294320  85.9452575
   2.0089550  31.6617509  86.5713002   2.5138403  32.5223415  85.4327239
   5.5996654  40.7511954  89.6924150   6.5514077  40.8510052  89.7136374
   5.4300105  39.9590222  90.2022235   3.6211034  37.8367537  89.8783551
   3.0260966  38.1172550  89.1830040   3.3360731  38.3261438  90.6500292
   2.7518524  51.7890464  78.6386184   3.6849198  51.7236026  78.8419059
   2.6641737  52.6246731  78.1800716   5.3806541  51.1056334  75.5990131
   5.3020173  50.7716198  76.4925889   6.2016208  51.5978102  75.5981604
   8.0784732  43.9718074  88.8066450   8.0461052  43.0334074  88.9926134
   8.6885356  44.0502110  88.0732275   8.2279221  40.7629117  88.8524733
   7.7118269  39.9787574  88.6654662   9.1119169  40.4347834  89.0171253
   5.8889948  34.5070133  84.8120546   5.6914769  34.1985221  85.6963878
   6.4989653  35.2331771  84.9418476  13.8961282  45.0334080  87.9472487
  14.6264671  44.7719369  88.5080190  13.2868228  44.2962802  87.9874555
  11.9776579  43.1741943  88.5446938  11.2509743  43.0397908  87.9363430
  11.5623866  43.4818772  89.3503656   1.6463594  34.3879039  82.5617077
   2.1994633  34.8074493  83.2207100   1.8833681  33.4614788  82.6040033
   5.0242401  36.4979565  82.0695741   4.4441070  37.1564369  81.6873794
   4.7578334  35.6756909  81.6583159   3.4745968  35.8984622  84.2717062
   3.9745746  36.0101157  83.4631381   4.1181576  35.5945675  84.9117870
   3.8067279  38.6579655  81.1252090   2.9193134  38.9429306  80.9072284
   4.2221268  38.4973418  80.2779367   7.1581816  38.6826176  84.8406429
   7.9342206  39.1722628  85.1131046   6.4329950  39.1084230  85.2978298
   9.5954374  39.3953795  85.8980370  10.1898865  39.1549531  85.1873678
   9.6680958  38.6760926  86.5253906   2.9510493  48.4224330  75.2200110
   3.6546343  48.6274332  75.8357765   2.2273142  48.9901092  75.4849193
   3.7808303  44.1734191  81.3402380   3.7243505  44.6302742  80.5010012
   4.3336646  43.4124876  81.1625223   7.5913109  39.9623923  82.1652499
   7.3350043  39.5620558  82.9960707   6.9665977  40.6767717  82.0402639
  11.9025447  42.7019996  84.6723791  11.3425005  42.7713185  85.4455353
  11.2968950  42.5260981  83.9523287   4.8597190  48.8606859  77.2698570
   5.6942794  48.4288057  77.0876045   4.6981533  48.6888873  78.1975464
   4.5143082  45.3638972  78.6354909   4.4591886  45.1983244  77.6943353
   3.8889138  46.0715005  78.7917099   1.8288990  47.6687884  97.9608472
   2.6980149  47.8428536  97.5995107   1.3495741  48.4882301  97.8384201
   1.6391327  31.4589858  82.4686164   0.8723723  30.9048345  82.6142847
   2.0502032  31.5311727  83.3300316  13.4881465  59.3776510  87.3653747
  14.1259875  59.2583257  86.6617087  13.3702308  60.3257354  87.4241699
  10.2971172  59.3303938  87.3015271   9.9589683  59.2145003  86.4135806
  11.1660940  58.9295103  87.2816277   6.1557987  61.1839414  83.2912162
   5.5922852  61.0929351  82.5228450   6.0410382  60.3639319  83.7714655
  10.7790955  60.4838790  93.2601477  10.7679595  60.0891588  92.3881980
  10.9411594  59.7504862  93.8535248   3.7022419  62.6790606  86.1296383
   4.4943711  62.3381431  85.7142682   3.9419069  62.7885581  87.0498536
  11.7357546  64.8510382  78.6026627  11.0845526  65.4364463  78.2160641
  12.5301909  65.3816577  78.6621665   5.6613173  61.9399519  79.0013761
   6.4344049  61.3928506  78.8626637   6.0138572  62.8043769  79.2128223
   7.4998216  63.2675902  92.2080661   7.2088082  64.1721532  92.0927327
   8.1355200  63.3092429  92.9224730   8.4254423  60.6452750  88.7982020
   9.0217995  60.4208773  88.0838983   8.4829394  59.9037496  89.4007468
   7.9979451  58.0992185  76.6332211   8.2504972  57.5773707  75.8715674
   7.0604010  57.9358331  76.7358895  13.0422734  57.1027964  84.4406955
  13.8285823  56.6847387  84.0897372  13.3061438  58.0074056  84.6088603
  13.2132811  62.5400814  79.1395611  12.5778644  62.6135441  79.8516516
  12.8830218  63.1294413  78.4614691  18.4431161  57.0403197  85.3439933
  19.1756333  56.4702414  85.5777763  17.6870517  56.6524797  85.7846439
   7.7175740  60.0020291  78.8356586   7.6011998  59.3265195  79.5037671
   7.8278000  59.5152665  78.0188739  10.0607281  59.4630439  82.5403276
   9.6965488  58.9361059  83.2516197  10.9174397  59.0728908  82.3669761
  15.9656581  50.7524771  89.8034542  15.6339906  51.6220182  89.5795757
  15.3702195  50.4361055  90.4828572   9.7012768  54.4920338  77.5364624
   9.8687170  55.3600575  77.9035095   9.5109937  54.6547620  76.6125913
  12.4588101  62.9537317  89.2030454  12.1588824  63.8562356  89.0946262
  12.1139160  62.6869500  90.0551607   5.9100582  59.4051114  85.2367159
   4.9851079  59.2727328  85.4444851   6.1584996  60.1845333  85.7337101
  15.8585245  55.4719857  86.8827892  14.9502122  55.4035266  86.5886653
  15.8072840  55.9491802  87.7109717   9.6801989  56.9477996  78.5211291
   9.5601614  57.3935046  79.3596771   8.9854577  57.2963313  77.9624829
   3.2709393  59.0484388  86.0710948   3.4001775  59.3018866  86.9850360
   2.5906845  59.6412096  85.7515603   7.4408881  69.7181637  82.1701422
   7.3632910  70.6689463  82.2489903   6.8370524  69.3727510  82.8276348
   9.9326110  56.8909503  94.8262789   9.1559444  57.4503423  94.8165654
  10.5716673  57.3766286  95.3477659  17.7246891  53.6736296  88.6605766
  17.0821271  53.9668829  88.0145560  17.2201820  53.5589216  89.4658962
  15.3787055  57.4199469  79.3491625  16.2904911  57.6526856  79.1739322
  14.8696702  58.0036513  78.7866704   8.1872483  59.6994956  94.3880756
   8.9287167  60.2380000  94.1115580   7.4809468  60.3261245  94.5452308
  13.6627822  61.8424097  92.9852917  14.0711178  61.4006507  92.2407550
  12.9405084  61.2676724  93.2387110  10.0158892  56.7796703  90.3586474
  10.8620088  57.2036117  90.5021123   9.9557530  56.1230328  91.0525038
  13.9856637  62.4025287  86.7405206  13.3565499  62.5671001  86.0381274
  13.5982299  62.8166897  87.5116170  17.8645869  63.3379725  84.0949570
  17.1796907  63.7178627  83.5446603  17.9489718  63.9475052  84.8281518
  13.1658338  54.4401072  92.0167648  12.9219270  55.1943132  91.4801924
  13.4418268  54.8186419  92.8514895  15.1196801  60.9839684  90.6944914
  15.3313696  61.6271444  90.0179295  15.0726549  60.1502001  90.2266844
  12.7223029  53.5957505  87.5981486  11.8607509  53.8938758  87.8898223
  12.7485464  53.8127904  86.6662518   9.5384599  62.1399695  84.0055291
  10.0022944  62.4187398  83.2159914   9.2741397  61.2383140  83.8228382
   6.4308680  61.6871177  86.9435055   7.0010037  62.1158445  86.3052539
   7.0216792  61.4053762  87.6419240   8.4753485  58.2622848  80.8144857
   9.1777528  58.7143891  81.2818783   8.1434113  57.6206667  81.4424750
   6.9233846  56.8534604  95.1896066   6.2932507  57.5350885  95.4231463
   6.8169934  56.7417686  94.2449204   2.2178819  56.5206400  86.1161990
   1.4277873  56.7763929  85.6402101   2.7090066  57.3354738  86.2214031
  16.2342628  63.8611640  88.8667271  17.0560072  63.4591827  88.5849953
  16.2305031  63.7579874  89.8183387   4.1693564  56.8850980  83.0745467
   3.3724728  56.9969674  83.5928963   3.9419156  57.2237632  82.2086357
   9.9999232  63.4095683  91.0227981  10.0643664  63.8716090  91.8586153
   9.2910156  62.7793048  91.1510291   0.5016522  56.7736891  88.5476981
   0.7524560  57.6583901  88.8134557   1.0376070  56.5941492  87.7752073
  24.3248622  60.2050388  85.2152242  23.5712330  59.6357786  85.0596247
  24.4596163  60.1713053  86.1622877   9.7147250  65.0763790  80.8906962
   9.5792924  65.9215326  81.3191810  10.2557062  65.2783068  80.1272896
   6.2014589  51.1555370  97.5521317   5.8081535  50.6021569  98.2268961
   7.0180730  51.4665949  97.9427835   3.1676647  62.5939228  81.4634887
   3.6801168  63.3882479  81.6140452   3.8199360  61.8965519  81.3968488
   4.9771532  65.7104985  83.5457640   5.1538160  66.6322949  83.3578624
   5.7728365  65.3963404  83.9752020   9.1182550  52.5713249  95.1441574
   9.8592264  53.1720402  95.0646036   9.3500473  51.8290887  94.5859616
   4.2623888  57.7569617  93.4219803   4.1477403  56.8554874  93.7226902
   3.4068406  58.0033313  93.0704620  11.3415726  65.6987357  95.0207304
  10.8979580  64.9123735  94.7028208  12.0032940  65.8866507  94.3551195
   6.1002847  67.2283159  89.5467982   6.6510272  67.1000222  88.7744976
   5.2614323  67.5278048  89.1962875  13.4396964  65.9790157  93.0488705
  13.4215439  66.7999038  92.5568974  14.3616884  65.8544232  93.2738846
   9.8970018  63.4934286  93.8912214  10.4298355  62.7322575  93.6611522
   9.3684099  63.2007938  94.6336368  13.0639713  48.5994352  89.4205855
  12.7203983  49.4895994  89.3444966  13.4318676  48.4096010  88.5575440
   1.1325564  60.9227883  82.2394457   1.9700786  61.3324891  82.0228165
   1.3103831  59.9827325  82.2094651  13.0289996  58.5902963  77.9278290
  12.5136619  59.3607568  78.1666678  12.7567304  57.9168100  78.5511352
  10.6137107  53.4352664  82.9863529   9.7578703  53.0459515  82.8069167
  11.0264059  53.5144625  82.1263314  12.1436254  50.9699007  87.3855089
  11.6401049  50.9329143  86.5722894  12.4366860  51.8791750  87.4451745
   8.3879139  51.0537737  86.3921270   9.2532136  50.8580546  86.0327160
   8.4556648  50.8248089  87.3190627  18.0024270  61.3435318  79.8631464
  17.2253713  61.0046478  79.4186626  18.6815751  61.3487941  79.1886429
  12.8176299  56.4630056  79.7538072  12.5126435  56.7776205  80.6048215
  13.7706741  56.5411475  79.7965405  11.2622731  62.6220279  81.4031026
  10.7344092  61.8873038  81.0904263  10.7610234  63.3994955  81.1570994
  16.2415577  60.8169299  86.5198072  15.5839251  61.5068561  86.6078200
  17.0455976  61.2065731  86.8632058   5.9941458  53.2839945  83.7637637
   6.5685210  53.0615127  83.0310830   6.5812441  53.3528640  84.5166238
  15.0521036  59.1713672  84.5702014  15.5652917  59.8043664  85.0723723
  15.7022260  58.5714868  84.2045374   6.3211046  55.3144406  77.7833522
   5.4848358  55.6519093  78.1042797   6.1815815  55.1793386  76.8460659
   8.2964126  50.1581194  82.4912707   7.6428539  49.8430211  81.8669321
   8.2544600  49.5356934  83.2172529   9.4075331  60.4400489  74.4065999
   8.5002393  60.2089743  74.6057148   9.9046363  59.6438108  74.5939980
  12.3143410  69.1497996  77.3262685  11.6405109  69.4529693  77.9347643
  12.7009232  69.9527077  76.9768142  11.5301867  56.6463128  86.8160354
  10.6124428  56.8678075  86.6582042  11.9462010  56.7209438  85.9572061
  12.3136914  58.0454543  81.9463034  13.0608733  58.5575940  81.6370156
  12.5828504  57.7238596  82.8067428  10.5863565  60.5413084  78.9289989
   9.6774784  60.2572117  79.0262458  10.6158648  60.9612163  78.0693296
  15.8182832  64.1519673  82.6981156  15.3645159  63.3110583  82.7546347
  15.1876799  64.7881072  83.0355936  14.7615751  55.0811659  83.9281824
  14.0238508  54.5689046  84.2592066  15.0142525  54.6412041  83.1165101
  14.2615771  65.9896170  83.6330974  14.5538746  66.5501227  82.9143340
  14.7714392  66.2824731  84.3884133  14.8627379  47.8587911  84.5223593
  15.1686256  46.9985275  84.2349508  15.5879984  48.4505532  84.3222587
   1.1551735  58.2618598  82.9105191   0.9576135  57.6687959  82.1856257
   0.5998399  57.9570808  83.6281130   9.1348459  58.1541705  85.0299784
   9.1897068  57.2015541  84.9542261   8.3239661  58.3101144  85.5141082
  10.2839652  62.0821828  76.2678067   9.8459082  61.3657687  75.8083705
  11.0250093  62.3097942  75.7063159   7.0740818  56.7718764  82.7890163
   6.2608684  57.0712935  83.1955355   7.5699813  56.3774453  83.5064645
   9.2249396  66.7676521  84.7224428   9.1825575  66.9937368  83.7932960
  10.1412095  66.5339896  84.8710229  12.6715030  57.2360589  91.6205057
  13.0264418  57.4632062  92.4799523  13.3187161  57.5678966  90.9982312
  18.4012767  60.3579025  82.3254386  18.2630666  60.5480621  81.3975575
  18.0448986  61.1198407  82.7822437   6.5654893  54.3437120  88.4051398
   7.2054273  54.2025879  87.7074361   5.7332424  54.0571633  88.0290000
  18.4282147  62.4255552  87.3365657  18.8618653  62.3330841  88.1848711
  19.1413727  62.4013052  86.6985673   7.3415197  63.6439550  84.5186390
   8.1355796  63.1489870  84.3168965   6.6306890  63.1157413  84.1554096
  12.1610042  66.0257646  88.8698758  12.2147064  66.5948582  89.6376474
  11.2924823  66.1959531  88.5052795   3.6497961  57.7882632  80.5946143
   2.7195549  57.7267087  80.8116105   3.7455433  57.2658585  79.7982784
   3.5683510  54.3137445  83.1824385   3.8290327  55.2282778  83.0733545
   4.3900682  53.8461887  83.3320997   5.0408435  55.7275202  90.3523209
   5.7131488  55.5192564  89.7035858   4.2138222  55.5297288  89.9128441
  19.2897696  62.4679252  89.8698543  19.4833586  63.3725063  90.1157818
  19.1898314  62.0086671  90.7037128  10.9434007  52.3537143  92.3688870
  10.2961922  53.0527093  92.2753346  11.7135022  52.7873287  92.7365118
  14.3512805  62.6185995  95.4439423  14.1998311  62.3896547  94.5269507
  14.3417484  63.5756596  95.4570768  11.1198141  60.1917908  90.4285690
  12.0490201  60.3429067  90.2554657  10.6989171  60.2801929  89.5734336
   9.9186473  64.2168572  88.1984227   9.7797559  63.8487357  89.0710166
   9.1301069  64.7316212  88.0268185  10.5134625  69.3177669  79.5409764
  10.6886381  68.8465712  80.3555387   9.8267413  69.9443435  79.7691025
  11.4691688  63.5950175  85.5873065  11.1341521  63.5550945  86.4830715
  10.9695634  62.9294891  85.1143475   5.4435932  59.0017805  91.1125646
   5.3055730  58.2698044  91.7137185   6.3540856  58.9126705  90.8309834
  14.4050880  60.9406209  75.8610125  13.7880051  60.2153037  75.7643178
  13.9367368  61.7015570  75.5177199   8.0718233  58.7137764  90.6009326
   8.7817851  58.0730956  90.5595944   8.0287541  58.9650659  91.5235507
  16.0605012  65.6505118  93.5215905  16.0017558  64.9664338  92.8546488
  16.4624530  66.3924108  93.0696531   6.7847167  55.7002982  92.4204965
   6.2484524  55.2493721  93.0726562   6.1963875  55.8348891  91.6775430
   5.0795710  72.4667031  86.3149624   5.3192309  73.0985556  86.9928643
   4.2364907  72.1155071  86.6014983   6.1949426  55.1591634  74.9831429
   5.3178892  55.0380434  74.6193676   6.6707179  54.3677712  74.7310318
  16.0622419  63.6144702  91.7529885  15.1749198  63.2770623  91.8756284
  16.6320970  62.8827733  91.9898650   2.5186288  54.8358990  89.5057960
   2.4344477  54.2284659  88.7708370   1.6968995  55.3268008  89.5067456
   9.5923572  68.2746154  88.7191128   9.5193744  69.0801125  89.2310433
   9.1500965  68.4738120  87.8939149   9.3813352  67.5117924  82.2293950
   8.5980874  68.0539604  82.3232174  10.0806097  68.0291904  82.6288191
  12.6910002  53.3212553  84.8728155  13.1878702  52.5682516  84.5529225
  11.9196983  53.3576870  84.3071364  20.5439759  59.0252919  86.5146447
  20.5329636  59.9077634  86.1440380  19.6757139  58.6724470  86.3200984
  12.0522256  68.1732988  90.8749287  12.7650228  68.8080453  90.8025188
  11.5612284  68.2696854  90.0589289  13.7739783  62.0784241  82.4466578
  12.8396061  62.1985703  82.2771283  13.9516451  61.1756707  82.1826588
   9.2744971  55.4629936  84.5999840   8.9042758  54.9100977  85.2880745
   9.7704063  54.8588070  84.0474840  17.1612334  57.9201560  82.9816613
  17.6272786  58.7529551  82.9076915  17.6119835  57.4546541  83.6861871
   7.1034169  65.9227431  91.6954858   7.8043629  66.5563914  91.8484252
   6.6329284  66.2642163  90.9350497  15.2288565  64.2645381  79.9802765
  15.5048409  64.1501976  80.8896639  14.3593064  63.8662866  79.9414938
  15.1328997  50.2882147  87.0207514  14.2192077  50.5186374  87.1889721
  15.5622098  50.3720591  87.8721546  14.9035455  58.4772039  89.5207408
  14.2506906  58.7247946  88.8659861  15.2815835  57.6636177  89.1869885
  11.8642629  68.5131732  83.6235578  12.0465024  67.6953388  84.0863331
  12.6875615  68.7299424  83.1860468  12.1984795  67.4399917  80.8850627
  12.7272561  66.9292372  80.2720789  12.4613014  67.1242447  81.7496160
  10.9523028  59.2191850  96.0073445  10.2763665  59.1185979  96.6775820
  11.7750662  59.0631064  96.4709442   2.7001887  65.4563786  88.6285960
   3.2855324  64.7107474  88.7613864   2.5026726  65.7667743  89.5122624
   5.5540543  68.4915034  83.6448403   4.8850918  68.9761161  83.1612443
   5.4153412  68.7384254  84.5591781   9.6945811  70.5258777  90.2431061
  10.2464119  70.6890399  91.0080146  10.0352005  71.1163215  89.5711086
   4.6710304  52.8733927  90.8452946   4.7351631  53.7348758  90.4330343
   4.6077425  52.2607929  90.1125304   4.1462577  54.9457060  94.4925980
   4.7734616  54.5634137  95.1063504   3.2890496  54.7271262  94.8581672
  14.5456685  65.3520035  96.0979715  15.0896589  65.9649993  95.6034670
  13.9643530  65.9099613  96.6146728  12.8314198  68.4740753  87.2294743
  12.7065338  67.6730493  86.7205689  13.4893290  68.9686946  86.7408713
   4.4522367  54.8289485  86.4071883   3.7308952  55.4425453  86.2679357
   5.2415622  55.3647250  86.3288529  14.8949107  66.2749773  88.8574293
  13.9479442  66.1555124  88.7852620  15.2431880  65.3872271  88.9400555
   7.2548680  52.1643912  92.6812535   7.7783082  52.4106208  93.4438844
   7.0361013  52.9963947  92.2615672   2.6515961  54.4347586  80.5483660
   2.3228667  53.5544965  80.3658766   3.0055332  54.3795255  81.4360049
  11.8995540  66.0702489  85.0578645  11.7520503  65.1419197  85.2386216
  12.7249034  66.0922580  84.5735721   5.7657784  54.7220556  80.9159138
   6.1053857  55.2506478  80.1937746   6.2129905  55.0600962  81.6917704
  15.5029662  66.8931048  86.1443518  16.4276209  66.6873909  86.0067969
  15.3344965  66.6447449  87.0532860   8.4601225  53.1057607  90.3662206
   8.1198046  52.3065420  90.7682886   7.7540232  53.4059318  89.7939039
   9.1117697  50.1906919  88.8189529   9.9343766  49.7167398  88.6968419
   9.3555761  50.9697403  89.3188215   7.7525932  53.2195178  79.1152430
   8.4734294  53.5976431  78.6116147   7.1291236  53.9384055  79.2187408
  11.8957054  53.9240327  80.0510763  12.1120669  54.8064965  79.7499591
  11.4151122  53.5326540  79.3216405   6.6356276  56.8826040  86.6281507
   6.4900857  57.1966343  87.5205789   6.1581479  57.5010940  86.0752406
   8.4952659  53.8728588  86.6762397   8.4814227  52.9769681  86.3394695
   9.2125087  53.8799252  87.3100683  10.3478789  54.3065928  88.7215524
  10.0896567  55.2282999  88.7199855   9.8163830  53.9096363  89.4115988
  15.2924978  67.4116715  81.5005610  15.4661856  66.8463138  80.7479462
  15.7853869  68.2117610  81.3185100   1.1101938  59.4231384  89.5669168
   0.5655406  60.1991192  89.6989443   1.9881288  59.7702189  89.4088290
   7.8989555  52.7542968  81.9449967   8.0205466  51.8259614  82.1440854
   7.6091597  52.7681654  81.0328282  10.7680745  50.4397879  85.0816687
  10.7902442  50.5037212  84.1268666  11.1848804  49.6002387  85.2757193
  21.1464369  60.1753138  83.1195909  21.5895515  59.4260464  82.7215033
  20.2690880  60.1663275  82.7369641  16.2800151  66.7283480  78.6002508
  16.9751055  67.3490172  78.8189823  16.6223301  65.8778831  78.8754886
   1.8967960  58.5501281  92.4599325   1.1549696  58.6983916  93.0463956
   1.5760704  58.8109546  91.5966075  18.1791574  64.1783185  80.1289839
  18.7042898  64.5170458  79.4039159  18.0913926  63.2430201  79.9452973
   9.8411622  68.0917259  92.2579715  10.1498749  67.8466406  93.1302415
  10.6387105  68.2963897  91.7698586   9.8632235  70.2455169  84.4885092
   9.4237225  69.7531547  85.1817949  10.6140351  69.7028136  84.2477167
   2.3424574  66.4366709  84.4909720   3.1682593  66.1370481  84.1108364
   1.9918626  65.6674332  84.9399509   7.3106107  65.7893178  86.5607394
   6.6886116  65.1263883  86.2609621   7.9810974  65.8154310  85.8781041
   7.3830634  54.2674966  96.1539900   7.4318790  55.1437088  95.7717669
   7.9253148  53.7252359  95.5811543  17.8685480  64.8116089  95.4341037
  17.0781024  64.7940228  94.8945536  17.6318834  65.3504383  96.1890073
  17.9883355  61.6608555  92.7473765  18.0381360  61.4958563  93.6889288
  17.8797278  60.7935814  92.3571646   6.8719614  64.3397101  80.0365854
   7.0207734  65.0232565  79.3832527   7.6786057  64.3202191  80.5515310
  15.2787117  57.6439483  94.0633072  16.1796980  57.5045948  93.7717070
  15.3535092  57.8093938  95.0031249   9.6129923  55.0206338  92.9086258
   8.7433232  55.3139904  92.6368847   9.8489403  55.6046783  93.6293522
  19.4901552  64.0805497  92.9915787  19.1986360  64.4435477  93.8279248
  18.8773683  63.3672505  92.8129119  20.6897234  61.6458377  85.5118357
  21.5244125  62.0848181  85.6755917  20.8256363  61.1697030  84.6926603
  17.7388740  59.2038111  91.4595845  18.2142862  59.3965758  90.6514696
  16.8154305  59.2597297  91.2139228   4.6272247  60.3662279  81.0426923
   4.3818289  59.4624609  81.2407133   4.7968161  60.3679429  80.1006401
  12.3168956  51.2385955  90.4251679  12.8350900  51.9746982  90.0998167
  11.9624089  51.5449948  91.2598438   3.8967894  56.0990636  78.5413084
   3.2037139  56.1734991  77.8853120   3.6519646  55.3350980  79.0634601
  12.5681551  47.6586238  85.9452575  12.8483304  46.9909427  86.5713002
  13.3532158  47.8515333  85.4327239  10.3715019  66.8345231  77.5077602
   9.7988986  67.4535419  77.0548073  10.9447813  67.3844593  78.0417523
  16.4390409  56.0803872  89.6924150  17.3907832  56.1801969  89.7136374
  16.2693859  55.2882140  90.2022235  14.4604788  53.1659455  89.8783551
  13.8654721  53.4464467  89.1830040  14.1754485  53.6553356  90.6500292
  13.5912279  67.1182382  78.6386184  14.5242952  67.0527943  78.8419059
  13.5035492  67.9538648  78.1800716  16.2200296  66.4348252  75.5990131
  16.1413927  66.1008116  76.4925889  17.0409962  66.9270020  75.5981604
  18.9178487  59.3009991  88.8066450  18.8854807  58.3625992  88.9926134
  19.5279110  59.3794028  88.0732275  10.7561818  58.1706044  74.8493654
  11.7020922  58.0412252  74.9182072  10.3776063  57.4320706  75.3263082
  19.0672975  56.0921035  88.8524733  18.5512024  55.3079491  88.6654662
  19.9512924  55.7639751  89.0171253  16.7283702  49.8362050  84.8120546
  16.5308523  49.5277138  85.6963878  17.3383408  50.5623689  84.9418476
  24.7355037  60.3625998  87.9472487  25.4658425  60.1011286  88.5080190
  24.1261982  59.6254720  87.9874555  22.8170334  58.5033861  88.5446938
  22.0903497  58.3689826  87.9363430  22.4017621  58.8110689  89.3503656
  10.6400510  62.2223790  96.3094311  11.5603520  62.4002389  96.5034358
  10.6050093  61.2779836  96.1574010   8.9404735  56.0956021  74.7848539
   8.0336190  55.7989133  74.8611253   9.2180716  55.7985839  73.9182826
   3.6362583  60.1324825  88.9517092   3.8548592  61.0641933  88.9705126
   4.0488357  59.7732799  89.7371896  10.5566800  50.6392910  80.9392781
   9.7467529  50.2939995  81.3148027  11.2451217  50.3300454  81.5280392
  12.4857349  49.7170957  82.5617077  13.0388387  50.1366411  83.2207100
  12.7227435  48.7906705  82.6040033   8.5090448  55.7058031  98.3419841
   8.4087175  56.6552388  98.2731932   8.2911990  55.3776270  97.4695911
   7.7103519  52.9542956  74.9260518   8.5722683  53.2797854  75.1856336
   7.8953864  52.1674452  74.4133584  15.8636156  51.8271482  82.0695741
  15.2834825  52.4856286  81.6873794  15.5972089  51.0048827  81.6583159
  14.3139722  51.2276540  84.2717062  14.8139501  51.3393075  83.4631381
  14.9575330  50.9237593  84.9117870   8.3721718  59.1355170  97.1584903
   7.8888800  59.9355530  97.3648792   8.4582657  59.1463114  96.2052347
   1.6407678  60.9683549  85.0806722   1.6178366  61.0671237  84.1288605
   1.9508314  61.8148700  85.4023888   4.2995056  63.0259704  89.1953337
   5.2538309  62.9943647  89.1283268   4.1007579  62.5650328  90.0103562
   4.8894438  61.5960820  91.7624134   5.7087327  62.0904899  91.7858971
   5.1631245  60.6792788  91.7341702  14.6461034  53.9871573  81.1252090
  13.7586889  54.2721223  80.9072284  15.0615023  53.8265336  80.2779367
  17.9975570  54.0118094  84.8406429  18.7735960  54.5014546  85.1131046
  17.2723704  54.4376148  85.2978298  20.4348129  54.7245713  85.8980370
  21.0292619  54.4841449  85.1873678  20.5074712  54.0052843  86.5253906
   2.6545284  68.5679324  86.2123534   2.5199752  67.8079725  85.6461532
   2.2377347  69.2920224  85.7452323  13.7904247  63.7516247  75.2200110
  14.4940097  63.9566250  75.8357765  13.0666896  64.3193009  75.4849193
  14.6202058  59.5026109  81.3402380  14.5637259  59.9594660  80.5010012
  15.1730400  58.7416793  81.1625223  18.4306864  55.2915840  82.1652499
  18.1743798  54.8912476  82.9960707  17.8059732  56.0059634  82.0402639
  22.7419201  58.0311914  84.6723791  22.1818759  58.1005103  85.4455353
  22.1362705  57.8552898  83.9523287   5.8114410  69.4648641  86.4241977
   5.6946794  70.4094073  86.3220667   4.9906856  69.1622202  86.8127776
  15.6990945  64.1898777  77.2698570  16.5336549  63.7579975  77.0876045
  15.5375288  64.0180790  78.1975464  15.3536837  60.6930890  78.6354909
  15.2985641  60.5275161  77.6943353  14.7282892  61.4006923  78.7917099
  12.6682744  62.9979802  97.9608472  13.5373904  63.1720454  97.5995107
  12.1889496  63.8174219  97.8384201   8.6632962  50.1938999  78.2140227
   8.6511632  51.1380839  78.3708498   9.5556384  50.0109144  77.9199689
   6.8368924  70.1176903  89.6397905   7.7396171  70.1500513  89.9564400
   6.6106294  69.1877354  89.6544241   8.5922526  68.8707889  86.3007984
   7.6418157  68.8709751  86.1872356   8.8955013  68.1240624  85.7844019
  12.4785082  46.7881775  82.4686164  11.7117478  46.2340262  82.6142847
  12.8895787  46.8603644  83.3300316   4.4826843  53.0766571  96.5591346
   5.3458304  52.7203376  96.7694670   3.9092254  52.7380466  97.2466750
  24.3275220  74.7068428  87.3653747  24.9653630  74.5875175  86.6617087
  24.2096063  75.6549272  87.4241699  21.1364926  74.6595856  87.3015271
  20.7983438  74.5436920  86.4135806  22.0054694  74.2587021  87.2816277
  16.9951742  76.5131332  83.2912162  16.4316607  76.4221269  82.5228450
  16.8804137  75.6931237  83.7714655  21.6184709  75.8130707  93.2601477
  21.6073350  75.4183506  92.3881980  21.7805349  75.0796780  93.8535248
  14.5416174  78.0082524  86.1296383  15.3337466  77.6673348  85.7142682
  14.7812824  78.1177499  87.0498536  22.5751301  80.1802300  78.6026627
  21.9239280  80.7656380  78.2160641  23.3695663  80.7108495  78.6621665
  16.5006928  77.2691437  79.0013761  17.2737804  76.7220424  78.8626637
  16.8532327  78.1335686  79.2128223  18.3391970  78.5967819  92.2080661
  18.0481836  79.5013450  92.0927327  18.9748955  78.6384347  92.9224730
  19.2648177  75.9744668  88.7982020  19.8611749  75.7500690  88.0838983
  19.3223149  75.2329413  89.4007468  18.8373206  73.4284103  76.6332211
  19.0898726  72.9065624  75.8715674  17.8997765  73.2650249  76.7358895
  23.8816488  72.4319881  84.4406955  24.6679578  72.0139305  84.0897372
  24.1455193  73.3365974  84.6088603  24.0526566  77.8692732  79.1395611
  23.4172399  77.9427358  79.8516516  23.7223972  78.4586331  78.4614691
  29.2824915  72.3695115  85.3439933  30.0150087  71.7994331  85.5777763
  28.5264271  71.9816715  85.7846439  18.5569494  75.3312209  78.8356586
  18.4405752  74.6557112  79.5037671  18.6671754  74.8444583  78.0188739
  20.9001035  74.7922356  82.5403276  20.5359242  74.2652977  83.2516197
  21.7568151  74.4020825  82.3669761  26.8050336  66.0816689  89.8034542
  26.4733661  66.9512100  89.5795757  26.2095949  65.7652973  90.4828572
  20.5406522  69.8212256  77.5364624  20.7080925  70.6892492  77.9035095
  20.3503691  69.9839538  76.6125913  23.2981855  78.2829235  89.2030454
  22.9982578  79.1854274  89.0946262  22.9532915  78.0161418  90.0551607
  16.7494337  74.7343032  85.2367159  15.8244833  74.6019246  85.4444851
  16.9978750  75.5137251  85.7337101  26.6978999  70.8011775  86.8827892
  25.7895876  70.7327183  86.5886653  26.6466595  71.2783720  87.7109717
  20.5195743  72.2769913  78.5211291  20.3995368  72.7226964  79.3596771
  19.8248331  72.6255231  77.9624829  14.1103148  74.3776305  86.0710948
  14.2395529  74.6310784  86.9850360  13.4300599  74.9704013  85.7515603
  18.2802635  85.0473555  82.1701422  18.2026665  85.9981380  82.2489903
  17.6764279  84.7019428  82.8276348  20.7719865  72.2201421  94.8262789
  19.9953199  72.7795341  94.8165654  21.4110428  72.7058204  95.3477659
  28.5640646  69.0028213  88.6605766  27.9215026  69.2960747  88.0145560
  28.0595574  68.8881134  89.4658962  26.2180809  72.7491387  79.3491625
  27.1298665  72.9818773  79.1739322  25.7090456  73.3328431  78.7866704
  19.0266237  75.0286874  94.3880756  19.7680922  75.5671918  94.1115580
  18.3203223  75.6553163  94.5452308  24.5021577  77.1716014  92.9852917
  24.9104933  76.7298425  92.2407550  23.7798838  76.5968642  93.2387110
  20.8552647  72.1088621  90.3586474  21.7013842  72.5328035  90.5021123
  20.7951285  71.4522245  91.0525038  24.8250392  77.7317205  86.7405206
  24.1959254  77.8962919  86.0381274  24.4376054  78.1458815  87.5116170
  28.7039623  78.6671643  84.0949570  28.0190662  79.0470544  83.5446603
  28.7883473  79.2766970  84.8281518  24.0052092  69.7692990  92.0167648
  23.7613024  70.5235050  91.4801924  24.2812023  70.1478337  92.8514895
  25.9590555  76.3131602  90.6944914  26.1707450  76.9563362  90.0179295
  25.9120303  75.4793918  90.2266844  23.5616784  68.9249423  87.5981486
  22.7001263  69.2230676  87.8898223  23.5879219  69.1419821  86.6662518
  20.3778353  77.4691613  84.0055291  20.8416699  77.7479316  83.2159914
  20.1135151  76.5675058  83.8228382  17.2702434  77.0163095  86.9435055
  17.8403792  77.4450363  86.3052539  17.8610546  76.7345679  87.6419240
  19.3147239  73.5914765  80.8144857  20.0171283  74.0435809  81.2818783
  18.9827868  72.9498584  81.4424750  17.7627601  72.1826522  95.1896066
  17.1326262  72.8642803  95.4231463  17.6563689  72.0709604  94.2449204
  13.0572573  71.8498318  86.1161990  12.2671627  72.1055847  85.6402101
  13.5483821  72.6646656  86.2214031  27.0736383  79.1903557  88.8667271
  27.8953827  78.7883745  88.5849953  27.0698786  79.0871791  89.8183387
  15.0087319  72.2142897  83.0745467  14.2118482  72.3261592  83.5928963
  14.7812911  72.5529550  82.2086357  20.8392986  78.7387601  91.0227981
  20.9037419  79.2008008  91.8586153  20.1303910  78.1084966  91.1510291
  11.3410276  72.1028809  88.5476981  11.5918315  72.9875818  88.8134557
  11.8769825  71.9233410  87.7752073  35.1642376  75.5342306  85.2152242
  34.4106084  74.9649704  85.0596247  35.2989917  75.5004970  86.1622877
  20.5541004  80.4055708  80.8906962  20.4186679  81.2507244  81.3191810
  21.0950817  80.6074986  80.1272896  17.0408344  66.4847288  97.5521317
  16.6475289  65.9313486  98.2268961  17.8574484  66.7957866  97.9427835
  14.0070401  77.9231146  81.4634887  14.5194922  78.7174396  81.6140452
  14.6593114  77.2257437  81.3968488  15.8165286  81.0396902  83.5457640
  15.9931914  81.9614867  83.3578624  16.6122120  80.7255322  83.9752020
  19.9576305  67.9005167  95.1441574  20.6986018  68.5012320  95.0646036
  20.1894228  67.1582805  94.5859616  15.1017643  73.0861534  93.4219803
  14.9871158  72.1846792  93.7226902  14.2462160  73.3325231  93.0704620
  22.1809480  81.0279275  95.0207304  21.7373335  80.2415653  94.7028208
  22.8426694  81.2158425  94.3551195  16.9396602  82.5575076  89.5467982
  17.4904027  82.4292140  88.7744976  16.1008078  82.8569965  89.1962875
  24.2790719  81.3082075  93.0488705  24.2609194  82.1290956  92.5568974
  25.2010639  81.1836150  93.2738846  20.7363773  78.8226204  93.8912214
  21.2692109  78.0614492  93.6611522  20.2077854  78.5299856  94.6336368
  23.9033468  63.9286270  89.4205855  23.5597737  64.8187912  89.3444966
  24.2712430  63.7387928  88.5575440  11.9719318  76.2519800  82.2394457
  12.8094540  76.6616809  82.0228165  12.1497586  75.3119243  82.2094651
  23.8683750  73.9194881  77.9278290  23.3530374  74.6899486  78.1666678
  23.5961059  73.2460017  78.5511352  21.4530861  68.7644582  82.9863529
  20.5972458  68.3751432  82.8069167  21.8657813  68.8436543  82.1263314
  22.9830008  66.2990925  87.3855089  22.4794804  66.2621060  86.5722894
  23.2760615  67.2083668  87.4451745  19.2272894  66.3829655  86.3921270
  20.0925891  66.1872464  86.0327160  19.2950403  66.1540007  87.3190627
  28.8418024  76.6727236  79.8631464  28.0647467  76.3338395  79.4186626
  29.5209505  76.6779859  79.1886429  23.6570054  71.7921973  79.7538072
  23.3520189  72.1068122  80.6048215  24.6100496  71.8703393  79.7965405
  22.1016485  77.9512196  81.4031026  21.5737847  77.2164956  81.0904263
  21.6003988  78.7286873  81.1570994  27.0809331  76.1461217  86.5198072
  26.4233006  76.8360478  86.6078200  27.8849731  76.5357649  86.8632058
  16.8335213  68.6131863  83.7637637  17.4078965  68.3907044  83.0310830
  17.4206195  68.6820557  84.5166238  25.8914790  74.5005590  84.5702014
  26.4046672  75.1335582  85.0723723  26.5416014  73.9006785  84.2045374
  17.1604800  70.6436324  77.7833522  16.3242112  70.9811010  78.1042797
  17.0209570  70.5085304  76.8460659  19.1357881  65.4873112  82.4912707
  18.4822293  65.1722129  81.8669321  19.0938355  64.8648852  83.2172529
  20.2469086  75.7692407  74.4065999  19.3396147  75.5381660  74.6057148
  20.7440118  74.9730026  74.5939980  23.1537164  84.4789914  77.3262685
  22.4798863  84.7821611  77.9347643  23.5402986  85.2818994  76.9768142
  22.3695621  71.9755045  86.8160354  21.4518182  72.1969992  86.6582042
  22.7855765  72.0501356  85.9572061  23.1530669  73.3746461  81.9463034
  23.9002488  73.8867858  81.6370156  23.4222258  73.0530514  82.8067428
  21.4257319  75.8705002  78.9289989  20.5168538  75.5864034  79.0262458
  21.4552403  76.2904080  78.0693296  26.6576586  79.4811591  82.6981156
  26.2038914  78.6402501  82.7546347  26.0270553  80.1172989  83.0355936
  25.6009506  70.4103577  83.9281824  24.8632263  69.8980963  84.2592066
  25.8536280  69.9703959  83.1165101  25.1009526  81.3188088  83.6330974
  25.3932500  81.8793145  82.9143340  25.6108146  81.6116649  84.3884133
  25.7021133  63.1879829  84.5223593  26.0080010  62.3277193  84.2349508
  26.4273738  63.7797449  84.3222587  11.9945489  73.5910516  82.9105191
  11.7969889  72.9979876  82.1856257  11.4392153  73.2862726  83.6281130
  19.9742213  73.4833622  85.0299784  20.0290823  72.5307459  84.9542261
  19.1633415  73.6393061  85.5141082  21.1233407  77.4113745  76.2678067
  20.6852837  76.6949604  75.8083705  21.8643848  77.6389860  75.7063159
  17.9134573  72.1010682  82.7890163  17.1002438  72.4004853  83.1955355
  18.4093567  71.7066371  83.5064645  20.0643151  82.0968439  84.7224428
  20.0219330  82.3229285  83.7932960  20.9805850  81.8631813  84.8710229
  23.5108785  72.5652506  91.6205057  23.8658172  72.7923980  92.4799523
  24.1580916  72.8970883  90.9982312  29.2406522  75.6870942  82.3254386
  29.1024420  75.8772538  81.3975575  28.8842740  76.4490325  82.7822437
  17.4048648  69.6729037  88.4051398  18.0448027  69.5317797  87.7074361
  16.5726178  69.3863551  88.0290000  29.2675901  77.7547469  87.3365657
  29.7012408  77.6622758  88.1848711  29.9807482  77.7304970  86.6985673
  18.1808952  78.9731468  84.5186390  18.9749550  78.4781788  84.3168965
  17.4700644  78.4449331  84.1554096  23.0003796  81.3549563  88.8698758
  23.0540818  81.9240500  89.6376474  22.1318577  81.5251448  88.5052795
  14.4891715  73.1174550  80.5946143  13.5589303  73.0559005  80.8116105
  14.5849187  72.5950502  79.7982784  14.4077264  69.6429362  83.1824385
  14.6684081  70.5574696  83.0733545  15.2294436  69.1753805  83.3320997
  15.8802189  71.0567120  90.3523209  16.5525243  70.8484482  89.7035858
  15.0531976  70.8589206  89.9128441  30.1291451  77.7971170  89.8698543
  30.3227341  78.7016980  90.1157818  30.0292069  77.3378589  90.7037128
  21.7827761  67.6829061  92.3688870  21.1355677  68.3819010  92.2753346
  22.5528777  68.1165204  92.7365118  25.1906559  77.9477913  95.4439423
  25.0392066  77.7188464  94.5269507  25.1811239  78.9048514  95.4570768
  21.9591896  75.5209825  90.4285690  22.8883956  75.6720985  90.2554657
  21.5382926  75.6093846  89.5734336  20.7580228  79.5460490  88.1984227
  20.6191313  79.1779274  89.0710166  19.9694824  80.0608129  88.0268185
  21.3528380  84.6469586  79.5409764  21.5280135  84.1757630  80.3555387
  20.6661168  85.2735353  79.7691025  22.3085443  78.9242093  85.5873065
  21.9735275  78.8842863  86.4830715  21.8089388  78.2586809  85.1143475
  16.2829687  74.3309723  91.1125646  16.1449485  73.5989961  91.7137185
  17.1934610  74.2418623  90.8309834  25.2444634  76.2698127  75.8610125
  24.6273805  75.5444955  75.7643178  24.7761123  77.0307487  75.5177199
  18.9111987  74.0429682  90.6009326  19.6211606  73.4022874  90.5595944
  18.8681296  74.2942577  91.5235507  26.8998766  80.9797035  93.5215905
  26.8411312  80.2956255  92.8546488  27.3018284  81.7216025  93.0696531
  17.6240921  71.0294900  92.4204965  17.0878278  70.5785638  93.0726562
  17.0357630  71.1640809  91.6775430  15.9189465  87.7958949  86.3149624
  16.1586063  88.4277473  86.9928643  15.0758661  87.4446989  86.6014983
  17.0343180  70.4883551  74.9831429  16.1572647  70.3672352  74.6193676
  17.5100933  69.6969630  74.7310318  26.9016173  78.9436619  91.7529885
  26.0142952  78.6062541  91.8756284  27.4714724  78.2119650  91.9898650
   8.5545320  75.2760711  85.0772936   9.2416360  74.9622441  84.4893952
   8.3993449  76.1802076  84.8040188  13.3580043  70.1650908  89.5057960
  13.2738231  69.5576577  88.7708370  12.5362749  70.6559926  89.5067456
  20.4317327  83.6038072  88.7191128  20.3587498  84.4093043  89.2310433
  19.9894720  83.8030037  87.8939149  20.2207106  82.8409842  82.2293950
  19.4374628  83.3831522  82.3232174  20.9199852  83.3583821  82.6288191
  23.5303756  68.6504471  84.8728155  24.0272456  67.8974433  84.5529225
  22.7590738  68.6868788  84.3071364  31.3833514  74.3544837  86.5146447
  31.3723390  75.2369552  86.1440380  30.5150893  74.0016387  86.3200984
  22.8916010  83.5024906  90.8749287  23.6043982  84.1372370  90.8025188
  22.4006039  83.5988772  90.0589289  24.6133537  77.4076158  82.4466578
  23.6789816  77.5277621  82.2771283  24.7910206  76.5048625  82.1826588
  20.1138725  70.7921854  84.5999840  19.7436513  70.2392894  85.2880745
  20.6097818  70.1879988  84.0474840  28.0006089  73.2493478  82.9816613
  28.4666541  74.0821469  82.9076915  28.4513589  72.7838459  83.6861871
  17.9427924  81.2519349  91.6954858  18.6437383  81.8855832  91.8484252
  17.4723039  81.5934081  90.9350497  26.0682320  79.5937299  79.9802765
  26.3442164  79.4793893  80.8896639  25.1986818  79.1954784  79.9414938
  25.9722751  65.6174065  87.0207514  25.0585831  65.8478291  87.1889721
  26.4015853  65.7012509  87.8721546  25.7429210  73.8063957  89.5207408
  25.0900660  74.0539864  88.8659861  26.1209590  72.9928095  89.1869885
  22.7036384  83.8423650  83.6235578  22.8858778  83.0245306  84.0863331
  23.5269370  84.0591342  83.1860468  23.0378549  82.7691835  80.8850627
  23.5666316  82.2584289  80.2720789  23.3006769  82.4534365  81.7496160
  21.7916783  74.5483768  96.0073445  21.1157420  74.4477897  96.6775820
  22.6144417  74.3922981  96.4709442  13.5395642  80.7855704  88.6285960
  14.1249079  80.0399392  88.7613864  13.3420480  81.0959661  89.5122624
  16.3934297  83.8206952  83.6448403  15.7244672  84.3053079  83.1612443
  16.2547167  84.0676172  84.5591781   8.1313297  73.3561304  87.3490403
   8.1697396  72.8224895  88.1427521   7.6253589  72.8296510  86.7301381
  20.5339566  85.8550695  90.2431061  21.0857874  86.0182317  91.0080146
  20.8745759  86.4455133  89.5711086  15.5104059  68.2025845  90.8452946
  15.5745385  69.0640676  90.4330343  15.4471179  67.5899846  90.1125304
  14.9856331  70.2748977  94.4925980  15.6128370  69.8926055  95.1063504
  14.1284250  70.0563179  94.8581672  25.3850440  80.6811953  96.0979715
  25.9290344  81.2941911  95.6034670  24.8037285  81.2391531  96.6146728
  11.7621874  72.0825406  80.4244335  12.0575315  71.1736085  80.3711388
  10.8609910  72.0613146  80.1025337  23.6707953  83.8032671  87.2294743
  23.5459092  83.0022410  86.7205689  24.3287044  84.2978864  86.7408713
  15.2916121  70.1581403  86.4071883  14.5702707  70.7717371  86.2679357
  16.0809377  70.6939168  86.3288529  25.7342861  81.6041691  88.8574293
  24.7873197  81.4847042  88.7852620  26.0825634  80.7164189  88.9400555
  18.0942435  67.4935830  92.6812535  18.6176836  67.7398126  93.4438844
  17.8754768  68.3255864  92.2615672  13.4909716  69.7639504  80.5483660
  13.1622422  68.8836883  80.3658766  13.8449086  69.7087173  81.4360049
  22.7389295  81.3994407  85.0578645  22.5914257  80.4711114  85.2386216
  23.5642788  81.4214498  84.5735721  16.6051539  70.0512474  80.9159138
  16.9447611  70.5798395  80.1937746  17.0523659  70.3892880  81.6917704
  26.3423416  82.2222966  86.1443518  27.2669964  82.0165827  86.0067969
  26.1738720  81.9739367  87.0532860  19.2994980  68.4349525  90.3662206
  18.9591800  67.6357338  90.7682886  18.5933986  68.7351236  89.7939039
  19.9511452  65.5198837  88.8189529  20.7737521  65.0459315  88.6968419
  20.1949515  66.2989321  89.3188215  18.5919686  68.5487096  79.1152430
  19.3128049  68.9268348  78.6116147  17.9684990  69.2675972  79.2187408
  22.7350809  69.2532245  80.0510763  22.9514423  70.1356882  79.7499591
  22.2544876  68.8618458  79.3216405  17.4750030  72.2117958  86.6281507
  17.3294611  72.5258261  87.5205789  16.9975234  72.8302858  86.0752406
  19.3346413  69.2020506  86.6762397  19.3207982  68.3061599  86.3394695
  20.0518841  69.2091169  87.3100683  21.1872544  69.6357846  88.7215524
  20.9290322  70.5574917  88.7199855  20.6557584  69.2388280  89.4115988
  26.1318733  82.7408633  81.5005610  26.3055610  82.1755056  80.7479462
  26.6247624  83.5409528  81.3185100  11.9495692  74.7523302  89.5669168
  11.4049161  75.5283110  89.6989443  12.8275042  75.0994107  89.4088290
  18.7383309  68.0834886  81.9449967  18.8599220  67.1551532  82.1440854
  18.4485351  68.0973572  81.0328282  21.6074500  65.7689796  85.0816687
  21.6296196  65.8329130  84.1268666  22.0242559  64.9294305  85.2757193
  31.9858124  75.5045056  83.1195909  32.4289270  74.7552381  82.7215033
  31.1084634  75.4955192  82.7369641  27.1193905  82.0575397  78.6002508
  27.8144810  82.6782090  78.8189823  27.4617055  81.2070749  78.8754886
  12.7361714  73.8793198  92.4599325  11.9943450  74.0275834  93.0463956
  12.4154459  74.1401464  91.5966075  29.0185328  79.5075103  80.1289839
  29.5436652  79.8462376  79.4039159  28.9307681  78.5722118  79.9452973
  20.6805377  83.4209177  92.2579715  20.9892503  83.1758323  93.1302415
  21.4780859  83.6255815  91.7698586  20.7025989  85.5747086  84.4885092
  20.2630979  85.0823465  85.1817949  21.4534106  85.0320054  84.2477167
  13.1818328  81.7658627  84.4909720  14.0076348  81.4662399  84.1108364
  12.8312380  80.9966250  84.9399509  18.1499861  81.1185095  86.5607394
  17.5279870  80.4555800  86.2609621  18.8204728  81.1446227  85.8781041
  11.3826933  79.6844954  85.4498654  10.5458841  79.2567128  85.2682655
  11.3550578  79.8777397  86.3869445  18.2224389  69.5966883  96.1539900
  18.2712544  70.4729006  95.7717669  18.7646903  69.0544276  95.5811543
  28.7079234  80.1408007  95.4341037  27.9174778  80.1232145  94.8945536
  28.4712589  80.6796300  96.1890073  28.8277109  76.9900473  92.7473765
  28.8775114  76.8250480  93.6889288  28.7191033  76.1227732  92.3571646
  17.7113368  79.6689019  80.0365854  17.8601488  80.3524483  79.3832527
  18.5179812  79.6494109  80.5515310  26.1180872  72.9731401  94.0633072
  27.0190735  72.8337866  93.7717070  26.1928846  73.1385856  95.0031249
  20.4523677  70.3498256  92.9086258  19.5826987  70.6431822  92.6368847
  20.6883157  70.9338701  93.6293522  30.3295306  79.4097415  92.9915787
  30.0380115  79.7727395  93.8279248  29.7167438  78.6964423  92.8129119
  31.5290989  76.9750294  85.5118357  32.3637880  77.4140098  85.6755917
  31.6650117  76.4988947  84.6926603  28.5782494  74.5330029  91.4595845
  29.0536616  74.7257675  90.6514696  27.6548060  74.5889215  91.2139228
  15.4666001  75.6954196  81.0426923  15.2212043  74.7916526  81.2407133
  15.6361916  75.6971347  80.1006401  23.1562711  66.5677873  90.4251679
  23.6744655  67.3038900  90.0998167  22.8017844  66.8741866  91.2598438
  14.7361649  71.4282554  78.5413084  14.0430894  71.5026909  77.8853120
  14.4913401  70.6642898  79.0634601  23.4075305  62.9878155  85.9452575
  23.6877059  62.3201344  86.5713002  24.1925912  63.1807251  85.4327239
  21.2108774  82.1637149  77.5077602  20.6382741  82.7827336  77.0548073
  21.7841567  82.7136511  78.0417523  27.2784163  71.4095789  89.6924150
  28.2301586  71.5093887  89.7136374  27.1087614  70.6174058  90.2022235
  25.2998543  68.4951372  89.8783551  24.7048475  68.7756385  89.1830040
  25.0148240  68.9845273  90.6500292  24.4306033  82.4474299  78.6386184
  25.3636707  82.3819861  78.8419059  24.3429246  83.2830566  78.1800716
  27.0594050  81.7640170  75.5990131  26.9807682  81.4300033  76.4925889
  27.8803717  82.2561938  75.5981604  29.7572241  74.6301909  88.8066450
  29.7248561  73.6917910  88.9926134  30.3672865  74.7085946  88.0732275
  21.5955572  73.4997962  74.8493654  22.5414677  73.3704170  74.9182072
  21.2169817  72.7612624  75.3263082  29.9066730  71.4212952  88.8524733
  29.3905778  70.6371409  88.6654662  30.7906678  71.0931669  89.0171253
  27.5677457  65.1653968  84.8120546  27.3702278  64.8569056  85.6963878
  28.1777162  65.8915607  84.9418476  35.5748791  75.6917916  87.9472487
  36.3052180  75.4303204  88.5080190  34.9655737  74.9546638  87.9874555
  33.6564088  73.8325778  88.5446938  32.9297252  73.6981743  87.9363430
  33.2411375  74.1402607  89.3503656  21.4794265  77.5515708  96.3094311
  22.3997274  77.7294307  96.5034358  21.4443848  76.6071753  96.1574010
  19.7798489  71.4247938  74.7848539  18.8729945  71.1281051  74.8611253
  20.0574470  71.1277756  73.9182826  10.6976430  72.7454302  85.2347586
  10.3779214  71.8919610  84.9421960  10.1509858  72.9602880  85.9905553
  14.4756337  75.4616743  88.9517092  14.6942347  76.3933850  88.9705126
  14.8882111  75.1024717  89.7371896  21.3960555  65.9684828  80.9392781
  20.5861283  65.6231913  81.3148027  22.0844972  65.6592372  81.5280392
  23.3251103  65.0462875  82.5617077  23.8782142  65.4658328  83.2207100
  23.5621190  64.1198623  82.6040033  19.3484203  71.0349948  98.3419841
  19.2480929  71.9844305  98.2731932  19.1305745  70.7068187  97.4695911
  18.5497274  68.2834873  74.9260518  19.4116438  68.6089772  75.1856336
  18.7347618  67.4966369  74.4133584  10.5664690  76.3657213  87.2040707
   9.8728161  75.9511166  86.6910662  11.3137681  76.4077750  86.6074126
  26.7029910  67.1563400  82.0695741  26.1228579  67.8148204  81.6873794
  26.4365843  66.3340745  81.6583159  25.1533477  66.5568458  84.2717062
  25.6533255  66.6684992  83.4631381  25.7969085  66.2529511  84.9117870
  19.2115473  74.4647087  97.1584903  18.7282554  75.2647447  97.3648792
  19.2976412  74.4755032  96.2052347  12.4801432  76.2975467  85.0806722
  12.4572120  76.3963154  84.1288605  12.7902069  77.1440618  85.4023888
  15.1388810  78.3551622  89.1953337  16.0932064  78.3235564  89.1283268
  14.9401334  77.8942246  90.0103562  15.7288192  76.9252738  91.7624134
  16.5481081  77.4196817  91.7858971  16.0025000  76.0084706  91.7341702
  25.4854788  69.3163490  81.1252090  24.5980643  69.6013141  80.9072284
  25.9008777  69.1557254  80.2779367  28.8369325  69.3410011  84.8406429
  29.6129715  69.8306464  85.1131046  28.1117459  69.7668066  85.2978298
  31.2741883  70.0537631  85.8980370  31.8686374  69.8133366  85.1873678
  31.3468467  69.3344761  86.5253906  13.4939039  83.8971241  86.2123534
  13.3593507  83.1371642  85.6461532  13.0771101  84.6212141  85.7452323
  24.6298002  79.0808165  75.2200110  25.3333852  79.2858168  75.8357765
  23.9060651  79.6484927  75.4849193  25.4595812  74.8318026  81.3402380
  25.4031014  75.2886578  80.5010012  26.0124155  74.0708711  81.1625223
  29.2700618  70.6207758  82.1652499  29.0137552  70.2204394  82.9960707
  28.6453486  71.3351552  82.0402639  33.5812956  73.3603831  84.6723791
  33.0212514  73.4297021  85.4455353  32.9756459  73.1844816  83.9523287
  16.6508165  84.7940558  86.4241977  16.5340549  85.7385991  86.3220667
  15.8300611  84.4914120  86.8127776  26.5384699  79.5190694  77.2698570
  27.3730303  79.0871893  77.0876045  26.3769042  79.3472708  78.1975464
  26.1930591  76.0222808  78.6354909  26.1379395  75.8567079  77.6943353
  25.5676647  76.7298840  78.7917099  10.9823106  71.2590872  92.4616331
  11.6281970  70.7489826  92.9503556  10.7740258  71.9959554  93.0359757
  23.5076499  78.3271719  97.9608472  24.3767658  78.5012372  97.5995107
  23.0283250  79.1466136  97.8384201  19.5026717  65.5230917  78.2140227
  19.4905387  66.4672756  78.3708498  20.3950139  65.3401062  77.9199689
  17.6762679  85.4468820  89.6397905  18.5789926  85.4792431  89.9564400
  17.4500049  84.5169271  89.6544241  19.4316281  84.1999807  86.3007984
  18.4811912  84.2001669  86.1872356  19.7348767  83.4532541  85.7844019
  23.3178836  62.1173693  82.4686164  22.5511232  61.5632180  82.6142847
  23.7289541  62.1895562  83.3300316  15.3220597  68.4058489  96.5591346
  16.1852059  68.0495294  96.7694670  14.7486008  68.0672384  97.2466750
  35.1668974  90.0360345  87.3653747  35.8047384  89.9167093  86.6617087
  35.0489817  90.9841189  87.4241699  31.9758681  89.9887773  87.3015271
  31.6377192  89.8728838  86.4135806  32.8448449  89.5878939  87.2816277
  27.8345496  91.8423250  83.2912162  27.2710361  91.7513187  82.5228450
  27.7197891  91.0223154  83.7714655  32.4578464  91.1422625  93.2601477
  32.4467104  90.7475423  92.3881980  32.6199103  90.4088698  93.8535248
  25.3809928  93.3374441  86.1296383  26.1731220  92.9965266  85.7142682
  25.6206578  93.4469416  87.0498536  33.4145055  95.5094218  78.6026627
  32.7633035  96.0948298  78.2160641  34.2089418  96.0400412  78.6621665
  27.3400682  92.5983355  79.0013761  28.1131558  92.0512342  78.8626637
  27.6926081  93.4627604  79.2128223  29.1785725  93.9259737  92.2080661
  28.8875591  94.8305368  92.0927327  29.8142709  93.9676265  92.9224730
  30.1041932  91.3036585  88.7982020  30.7005504  91.0792608  88.0838983
  30.1616903  90.5621331  89.4007468  29.6766960  88.7576021  76.6332211
  29.9292481  88.2357542  75.8715674  28.7391519  88.5942166  76.7358895
  34.7210243  87.7611799  84.4406955  35.5073332  87.3431222  84.0897372
  34.9848947  88.6657891  84.6088603  34.8920320  93.1984649  79.1395611
  34.2566153  93.2719276  79.8516516  34.5617727  93.7878248  78.4614691
  40.1218670  87.6987032  85.3439933  40.8543842  87.1286249  85.5777763
  39.3658026  87.3108633  85.7846439  29.3963249  90.6604127  78.8356586
  29.2799507  89.9849030  79.5037671  29.5065509  90.1736501  78.0188739
  31.7394790  90.1214274  82.5403276  31.3752997  89.5944895  83.2516197
  32.5961906  89.7312743  82.3669761  37.6444090  81.4108606  89.8034542
  37.3127415  82.2804017  89.5795757  37.0489704  81.0944890  90.4828572
  31.3800277  85.1504174  77.5364624  31.5474679  86.0184410  77.9035095
  31.1897446  85.3131455  76.6125913  34.1375610  93.6121152  89.2030454
  33.8376333  94.5146191  89.0946262  33.7926669  93.3453336  90.0551607
  27.5888091  90.0634949  85.2367159  26.6638588  89.9311163  85.4444851
  27.8372505  90.8429169  85.7337101  37.5372754  86.1303693  86.8827892
  36.6289631  86.0619101  86.5886653  37.4860349  86.6075638  87.7109717
  31.3589498  87.6061831  78.5211291  31.2389123  88.0518882  79.3596771
  30.6642086  87.9547149  77.9624829  24.9496902  89.7068223  86.0710948
  25.0789284  89.9602702  86.9850360  24.2694354  90.2995931  85.7515603
  29.1196390 100.3765473  82.1701422  29.0420419 101.3273298  82.2489903
  28.5158033 100.0311345  82.8276348  31.6113619  87.5493338  94.8262789
  30.8346953  88.1087258  94.8165654  32.2504182  88.0350121  95.3477659
  39.4034400  84.3320131  88.6605766  38.7608780  84.6252664  88.0145560
  38.8989329  84.2173051  89.4658962  37.0574564  88.0783304  79.3491625
  37.9692420  88.3110691  79.1739322  36.5484211  88.6620348  78.7866704
  29.8659992  90.3578792  94.3880756  30.6074676  90.8963836  94.1115580
  29.1596977  90.9845080  94.5452308  35.3415331  92.5007932  92.9852917
  35.7498687  92.0590343  92.2407550  34.6192593  91.9260560  93.2387110
  31.6946401  87.4380539  90.3586474  32.5407597  87.8619952  90.5021123
  31.6345039  86.7814163  91.0525038  35.6644146  93.0609123  86.7405206
  35.0353008  93.2254837  86.0381274  35.2769808  93.4750732  87.5116170
  39.5433378  93.9963561  84.0949570  38.8584416  94.3762462  83.5446603
  39.6277227  94.6058887  84.8281518  34.8445847  85.0984907  92.0167648
  34.6006779  85.8526968  91.4801924  35.1205777  85.4770255  92.8514895
  36.7984310  91.6423520  90.6944914  37.0101205  92.2855279  90.0179295
  36.7514058  90.8085836  90.2266844  34.4010538  84.2541340  87.5981486
  33.5395018  84.5522594  87.8898223  34.4272973  84.4711739  86.6662518
  31.2172108  92.7983531  84.0055291  31.6810453  93.0771234  83.2159914
  30.9528906  91.8966975  83.8228382  28.1096189  92.3455012  86.9435055
  28.6797546  92.7742281  86.3052539  28.7004301  92.0637597  87.6419240
  30.1540994  88.9206683  80.8144857  30.8565037  89.3727727  81.2818783
  29.8221622  88.2790502  81.4424750  28.6021355  87.5118440  95.1896066
  27.9720016  88.1934721  95.4231463  28.4957443  87.4001521  94.2449204
  23.8966328  87.1790236  86.1161990  23.1065382  87.4347764  85.6402101
  24.3877575  87.9938574  86.2214031  37.9130137  94.5195475  88.8667271
  38.7347581  94.1175662  88.5849953  37.9092540  94.4163709  89.8183387
  25.8481073  87.5434815  83.0745467  25.0512237  87.6553509  83.5928963
  25.6206665  87.8821467  82.2086357  31.6786741  94.0679518  91.0227981
  31.7431173  94.5299926  91.8586153  30.9697665  93.4376883  91.1510291
  22.1804031  87.4320726  88.5476981  22.4312069  88.3167736  88.8134557
  22.7163579  87.2525328  87.7752073  46.0036131  90.8634223  85.2152242
  45.2499839  90.2941622  85.0596247  46.1383672  90.8296888  86.1622877
  31.3934759  95.7347626  80.8906962  31.2580433  96.5799161  81.3191810
  31.9344571  95.9366903  80.1272896  27.8802098  81.8139206  97.5521317
  27.4869044  81.2605404  98.2268961  28.6968239  82.1249784  97.9427835
  24.8464156  93.2523064  81.4634887  25.3588677  94.0466314  81.6140452
  25.4986869  92.5549354  81.3968488  26.6559041  96.3688820  83.5457640
  26.8325669  97.2906785  83.3578624  27.4515874  96.0547239  83.9752020
  30.7970059  83.2297085  95.1441574  31.5379773  83.8304238  95.0646036
  31.0287982  82.4874723  94.5859616  25.9411397  88.4153452  93.4219803
  25.8264912  87.5138709  93.7226902  25.0855915  88.6617149  93.0704620
  33.0203235  96.3571192  95.0207304  32.5767089  95.5707571  94.7028208
  33.6820449  96.5450343  94.3551195  27.7790356  97.8866994  89.5467982
  28.3297781  97.7584057  88.7744976  26.9401832  98.1861883  89.1962875
  35.1184473  96.6373992  93.0488705  35.1002948  97.4582873  92.5568974
  36.0404393  96.5128067  93.2738846  31.5757527  94.1518122  93.8912214
  32.1085864  93.3906410  93.6611522  31.0471608  93.8591774  94.6336368
  34.7427222  79.2578188  89.4205855  34.3991492  80.1479829  89.3444966
  35.1106185  79.0679845  88.5575440  22.8113073  91.5811718  82.2394457
  23.6488295  91.9908726  82.0228165  22.9891340  90.6411160  82.2094651
  34.7077505  89.2486799  77.9278290  34.1924128  90.0191403  78.1666678
  34.4354813  88.5751935  78.5511352  32.2924616  84.0936500  82.9863529
  31.4366212  83.7043350  82.8069167  32.7051568  84.1728460  82.1263314
  33.8223763  81.6282843  87.3855089  33.3188558  81.5912978  86.5722894
  34.1154369  82.5375586  87.4451745  30.0666648  81.7121573  86.3921270
  30.9319645  81.5164381  86.0327160  30.1344157  81.4831924  87.3190627
  39.6811779  92.0019153  79.8631464  38.9041222  91.6630313  79.4186626
  40.3603260  92.0071777  79.1886429  34.4963808  87.1213891  79.7538072
  34.1913944  87.4360040  80.6048215  35.4494250  87.1995311  79.7965405
  32.9410240  93.2804114  81.4031026  32.4131601  92.5456874  81.0904263
  32.4397743  94.0578791  81.1570994  37.9203086  91.4753135  86.5198072
  37.2626760  92.1652396  86.6078200  38.7243485  91.8649567  86.8632058
  27.6728967  83.9423780  83.7637637  28.2472719  83.7198962  83.0310830
  28.2599950  84.0112475  84.5166238  36.7308545  89.8297507  84.5702014
  37.2440426  90.4627499  85.0723723  37.3809769  89.2298703  84.2045374
  27.9998555  85.9728241  77.7833522  27.1635867  86.3102928  78.1042797
  27.8603324  85.8377221  76.8460659  29.9751635  80.8165029  82.4912707
  29.3216048  80.5014047  81.8669321  29.9332109  80.1940770  83.2172529
  31.0862840  91.0984324  74.4065999  30.1789902  90.8673578  74.6057148
  31.5833872  90.3021944  74.5939980  33.9930919  99.8081832  77.3262685
  33.3192618 100.1113528  77.9347643  34.3796741 100.6110912  76.9768142
  33.2089376  87.3046963  86.8160354  32.2911937  87.5261910  86.6582042
  33.6249519  87.3793273  85.9572061  33.9924423  88.7038379  81.9463034
  34.7396242  89.2159776  81.6370156  34.2616013  88.3822431  82.8067428
  32.2651073  91.1996919  78.9289989  31.3562293  90.9155952  79.0262458
  32.2946157  91.6195998  78.0693296  37.4970341  94.8103509  82.6981156
  37.0432668  93.9694419  82.7546347  36.8664308  95.4464907  83.0355936
  36.4403260  85.7395495  83.9281824  35.7026017  85.2272881  84.2592066
  36.6930034  85.2995876  83.1165101  35.9403280  96.6480005  83.6330974
  36.2326255  97.2085063  82.9143340  36.4501901  96.9408566  84.3884133
  36.5414888  78.5171747  84.5223593  36.8473765  77.6569110  84.2349508
  37.2667493  79.1089367  84.3222587  22.8339244  88.9202433  82.9105191
  22.6363644  88.3271794  82.1856257  22.2785908  88.6154644  83.6281130
  30.8135968  88.8125540  85.0299784  30.8684577  87.8599376  84.9542261
  30.0027170  88.9684979  85.5141082  31.9627161  92.7405663  76.2678067
  31.5246591  92.0241522  75.8083705  32.7037602  92.9681778  75.7063159
  28.7528327  87.4302600  82.7890163  27.9396193  87.7296770  83.1955355
  29.2487322  87.0358288  83.5064645  30.9036905  97.4260357  84.7224428
  30.8613084  97.6521203  83.7932960  31.8199604  97.1923731  84.8710229
  34.3502539  87.8944424  91.6205057  34.7051927  88.1215897  92.4799523
  34.9974670  88.2262801  90.9982312  40.0800276  91.0162860  82.3254386
  39.9418175  91.2064456  81.3975575  39.7236495  91.7782243  82.7822437
  28.2442402  85.0020955  88.4051398  28.8841782  84.8609714  87.7074361
  27.4119933  84.7155469  88.0290000  40.1069656  93.0839387  87.3365657
  40.5406162  92.9914676  88.1848711  40.8201236  93.0596887  86.6985673
  29.0202706  94.3023386  84.5186390  29.8143305  93.8073706  84.3168965
  28.3094398  93.7741249  84.1554096  33.8397551  96.6841481  88.8698758
  33.8934573  97.2532417  89.6376474  32.9712332  96.8543366  88.5052795
  25.3285470  88.4466467  80.5946143  24.3983058  88.3850923  80.8116105
  25.4242942  87.9242420  79.7982784  25.2471019  84.9721280  83.1824385
  25.5077836  85.8866613  83.0733545  26.0688191  84.5045723  83.3320997
  26.7195944  86.3859037  90.3523209  27.3918997  86.1776399  89.7035858
  25.8925730  86.1881123  89.9128441  40.9685205  93.1263088  89.8698543
  41.1621095  94.0308898  90.1157818  40.8685823  92.6670507  90.7037128
  32.6221516  83.0120978  92.3688870  31.9749431  83.7110928  92.2753346
  33.3922531  83.4457122  92.7365118  36.0300314  93.2769830  95.4439423
  35.8785820  93.0480382  94.5269507  36.0204993  94.2340432  95.4570768
  32.7985650  90.8501743  90.4285690  33.7277710  91.0012903  90.2554657
  32.3776680  90.9385764  89.5734336  31.5973982  94.8752408  88.1984227
  31.4585068  94.5071192  89.0710166  30.8088578  95.3900047  88.0268185
  32.1922134  99.9761504  79.5409764  32.3673890  99.5049547  80.3555387
  31.5054922 100.6027270  79.7691025  33.1479197  94.2534010  85.5873065
  32.8129030  94.2134780  86.4830715  32.6483143  93.5878726  85.1143475
  27.1223441  89.6601640  91.1125646  26.9843239  88.9281879  91.7137185
  28.0328365  89.5710540  90.8309834  36.0838389  91.5990045  75.8610125
  35.4667560  90.8736873  75.7643178  35.6154877  92.3599405  75.5177199
  29.7505742  89.3721600  90.6009326  30.4605360  88.7314792  90.5595944
  29.7075050  89.6234494  91.5235507  37.7392521  96.3088953  93.5215905
  37.6805067  95.6248173  92.8546488  38.1412039  97.0507943  93.0696531
  28.4634676  86.3586818  92.4204965  27.9272033  85.9077556  93.0726562
  27.8751384  86.4932726  91.6775430  26.7583219 103.1250867  86.3149624
  26.9979818 103.7569391  86.9928643  25.9152416 102.7738907  86.6014983
  27.8736935  85.8175469  74.9831429  26.9966401  85.6964270  74.6193676
  28.3494688  85.0261547  74.7310318  37.7409928  94.2728537  91.7529885
  36.8536707  93.9354459  91.8756284  38.3108479  93.5411568  91.9898650
  19.3939075  90.6052629  85.0772936  20.0810115  90.2914359  84.4893952
  19.2387204  91.5093993  84.8040188  24.1973797  85.4942825  89.5057960
  24.1131986  84.8868495  88.7708370  23.3756503  85.9851844  89.5067456
  31.2711081  98.9329989  88.7191128  31.1981253  99.7384961  89.2310433
  30.8288474  99.1321955  87.8939149  31.0600861  98.1701759  82.2293950
  30.2768383  98.7123439  82.3232174  31.7593606  98.6875739  82.6288191
  34.3697511  83.9796389  84.8728155  34.8666210  83.2266351  84.5529225
  33.5984492  84.0160705  84.3071364  42.2227268  89.6836754  86.5146447
  42.2117145  90.5661470  86.1440380  41.3544648  89.3308305  86.3200984
  33.7309765  98.8316823  90.8749287  34.4437737  99.4664288  90.8025188
  33.2399793  98.9280689  90.0589289  35.4527292  92.7368076  82.4466578
  34.5183570  92.8569538  82.2771283  35.6303960  91.8340543  82.1826588
  30.9532480  86.1213772  84.5999840  30.5830267  85.5684812  85.2880745
  31.4491572  85.5171905  84.0474840  38.8399843  88.5785395  82.9816613
  39.3060295  89.4113387  82.9076915  39.2907343  88.1130377  83.6861871
  28.7821678  96.5811267  91.6954858  29.4831138  97.2147750  91.8484252
  28.3116793  96.9225998  90.9350497  36.9076074  94.9229217  79.9802765
  37.1835918  94.8085811  80.8896639  36.0380573  94.5246701  79.9414938
  36.8116506  80.9465982  87.0207514  35.8979586  81.1770209  87.1889721
  37.2409607  81.0304426  87.8721546  36.5822964  89.1355874  89.5207408
  35.9294414  89.3831782  88.8659861  36.9603344  88.3220012  89.1869885
  33.5430138  99.1715567  83.6235578  33.7252533  98.3537223  84.0863331
  34.3663124  99.3883260  83.1860468  33.8772304  98.0983753  80.8850627
  34.4060070  97.5876207  80.2720789  34.1400523  97.7826283  81.7496160
  32.6310537  89.8775685  96.0073445  31.9551174  89.7769815  96.6775820
  33.4538171  89.7214899  96.4709442  24.3789396  96.1147622  88.6285960
  24.9642833  95.3691310  88.7613864  24.1814235  96.4251579  89.5122624
  27.2328052  99.1498869  83.6448403  26.5638427  99.6344997  83.1612443
  27.0940921  99.3968090  84.5591781  18.9707051  88.6853222  87.3490403
  19.0091151  88.1516813  88.1427521  18.4647344  88.1588428  86.7301381
  31.3733320 101.1842613  90.2431061  31.9251628 101.3474234  91.0080146
  31.7139514 101.7747051  89.5711086  26.3497813  83.5317763  90.8452946
  26.4139140  84.3932593  90.4330343  26.2864934  82.9191764  90.1125304
  25.8250086  85.6040895  94.4925980  26.4522125  85.2217972  95.1063504
  24.9678005  85.3855097  94.8581672  36.2244194  96.0103870  96.0979715
  36.7684098  96.6233828  95.6034670  35.6431039  96.5683449  96.6146728
  22.6015629  87.4117324  80.4244335  22.8969070  86.5028003  80.3711388
  21.7003664  87.3905064  80.1025337  34.5101707  99.1324588  87.2294743
  34.3852847  98.3314328  86.7205689  35.1680799  99.6270782  86.7408713
  26.1309876  85.4873321  86.4071883  25.4096461  86.1009288  86.2679357
  26.9203131  86.0231086  86.3288529  36.5736616  96.9333608  88.8574293
  35.6266951  96.8138960  88.7852620  36.9219389  96.0456106  88.9400555
  28.9336189  82.8227747  92.6812535  29.4570591  83.0690044  93.4438844
  28.7148522  83.6547782  92.2615672  24.3303470  85.0931422  80.5483660
  24.0016176  84.2128801  80.3658766  24.6842841  85.0379091  81.4360049
  33.5783049  96.7286325  85.0578645  33.4308012  95.8003032  85.2386216
  34.4036543  96.7506415  84.5735721  27.4445293  85.3804392  80.9159138
  27.7841366  85.9090313  80.1937746  27.8917414  85.7184798  81.6917704
  37.1817171  97.5514883  86.1443518  38.1063718  97.3457745  86.0067969
  37.0132474  97.3031284  87.0532860  30.1388734  83.7641442  90.3662206
  29.7985555  82.9649255  90.7682886  29.4327740  84.0643153  89.7939039
  30.7905206  80.8490755  88.8189529  31.6131275  80.3751233  88.6968419
  31.0343270  81.6281239  89.3188215  29.4313441  83.8779013  79.1152430
  30.1521803  84.2560266  78.6116147  28.8078745  84.5967890  79.2187408
  33.5744563  84.5824162  80.0510763  33.7908178  85.4648800  79.7499591
  33.0938631  84.1910376  79.3216405  28.3143785  87.5409875  86.6281507
  28.1688366  87.8550178  87.5205789  27.8368988  88.1594776  86.0752406
  30.1740168  84.5312423  86.6762397  30.1601736  83.6353517  86.3394695
  30.8912596  84.5383087  87.3100683  32.0266298  84.9649764  88.7215524
  31.7684076  85.8866834  88.7199855  31.4951339  84.5680198  89.4115988
  36.9712487  98.0700551  81.5005610  37.1449365  97.5046973  80.7479462
  37.4641378  98.8701446  81.3185100  22.7889447  90.0815220  89.5669168
  22.2442915  90.8575028  89.6989443  23.6668797  90.4286024  89.4088290
  29.5777064  83.4126804  81.9449967  29.6992975  82.4843450  82.1440854
  29.2879106  83.4265490  81.0328282  32.4468254  81.0981714  85.0816687
  32.4689951  81.1621047  84.1268666  32.8636313  80.2586223  85.2757193
  42.8251878  90.8336974  83.1195909  43.2683024  90.0844299  82.7215033
  41.9478389  90.8247110  82.7369641  37.9587660  97.3867315  78.6002508
  38.6538564  98.0074008  78.8189823  38.3010810  96.5362666  78.8754886
  23.5755469  89.2085116  92.4599325  22.8337205  89.3567751  93.0463956
  23.2548213  89.4693382  91.5966075  39.8579083  94.8367021  80.1289839
  40.3830407  95.1754293  79.4039159  39.7701435  93.9014036  79.9452973
  31.5199131  98.7501094  92.2579715  31.8286258  98.5050241  93.1302415
  32.3174613  98.9547733  91.7698586  31.5419744 100.9039004  84.4885092
  31.1024734 100.4115383  85.1817949  32.2927860 100.3611972  84.2477167
  24.0212082  97.0950545  84.4909720  24.8470102  96.7954317  84.1108364
  23.6706134  96.3258167  84.9399509  28.9893616  96.4477013  86.5607394
  28.3673625  95.7847718  86.2609621  29.6598483  96.4738145  85.8781041
  22.2220688  95.0136871  85.4498654  21.3852596  94.5859046  85.2682655
  22.1944333  95.2069315  86.3869445  29.0618143  84.9258801  96.1539900
  29.1106299  85.8020924  95.7717669  29.6040657  84.3836194  95.5811543
  39.5472989  95.4699924  95.4341037  38.7568533  95.4524063  94.8945536
  39.3106343  96.0088218  96.1890073  39.6670864  92.3192391  92.7473765
  39.7168869  92.1542398  93.6889288  39.5584787  91.4519650  92.3571646
  28.5507123  94.9980936  80.0365854  28.6995243  95.6816401  79.3832527
  29.3573566  94.9786026  80.5515310  36.9574626  88.3023319  94.0633072
  37.8584489  88.1629784  93.7717070  37.0322601  88.4677774  95.0031249
  31.2917432  85.6790173  92.9086258  30.4220741  85.9723740  92.6368847
  31.5276912  86.2630618  93.6293522  41.1689061  94.7389332  92.9915787
  40.8773869  95.1019313  93.8279248  40.5561192  94.0256340  92.8129119
  42.3684743  92.3042212  85.5118357  43.2031634  92.7432016  85.6755917
  42.5043872  91.8280865  84.6926603  39.4176249  89.8621947  91.4595845
  39.8930371  90.0549593  90.6514696  38.4941814  89.9181133  91.2139228
  26.3059756  91.0246114  81.0426923  26.0605797  90.1208444  81.2407133
  26.4755670  91.0263264  80.1006401  33.9956465  81.8969790  90.4251679
  34.5138409  82.6330817  90.0998167  33.6411598  82.2033784  91.2598438
  25.5755403  86.7574472  78.5413084  24.8824648  86.8318827  77.8853120
  25.3307155  85.9934815  79.0634601  34.2469060  78.3170073  85.9452575
  34.5270813  77.6493262  86.5713002  35.0319667  78.5099169  85.4327239
  32.0502528  97.4929067  77.5077602  31.4776495  98.1119254  77.0548073
  32.6235322  98.0428428  78.0417523  38.1177918  86.7387707  89.6924150
  39.0695341  86.8385805  89.7136374  37.9481368  85.9465975  90.2022235
  36.1392297  83.8243290  89.8783551  35.5442230  84.1048303  89.1830040
  35.8541994  84.3137191  90.6500292  35.2699788  97.7766217  78.6386184
  36.2030461  97.7111779  78.8419059  35.1823001  98.6122484  78.1800716
  37.8987805  97.0932087  75.5990131  37.8201436  96.7591951  76.4925889
  38.7197471  97.5853855  75.5981604  40.5965996  89.9593827  88.8066450
  40.5642316  89.0209827  88.9926134  41.2066619  90.0377863  88.0732275
  32.4349327  88.8289880  74.8493654  33.3808431  88.6996088  74.9182072
  32.0563572  88.0904541  75.3263082  40.7460484  86.7504870  88.8524733
  40.2299533  85.9663327  88.6654662  41.6300433  86.4223587  89.0171253
  38.4071211  80.4945886  84.8120546  38.2096032  80.1860974  85.6963878
  39.0170917  81.2207524  84.9418476  46.4142546  91.0209833  87.9472487
  47.1445934  90.7595122  88.5080190  45.8049491  90.2838555  87.9874555
  44.4957843  89.1617696  88.5446938  43.7691006  89.0273661  87.9363430
  44.0805130  89.4694525  89.3503656  32.3188019  92.8807626  96.3094311
  33.2391029  93.0586225  96.5034358  32.2837602  91.9363671  96.1574010
  30.6192244  86.7539856  74.7848539  29.7123699  86.4572969  74.8611253
  30.8968225  86.4569674  73.9182826  21.5370184  88.0746219  85.2347586
  21.2172968  87.2211528  84.9421960  20.9903612  88.2894798  85.9905553
  25.3150092  90.7908660  88.9517092  25.5336101  91.7225768  88.9705126
  25.7275866  90.4316635  89.7371896  32.2354309  81.2976746  80.9392781
  31.4255038  80.9523831  81.3148027  32.9238726  80.9884289  81.5280392
  34.1644858  80.3754792  82.5617077  34.7175896  80.7950246  83.2207100
  34.4014944  79.4490541  82.6040033  30.1877957  86.3641866  98.3419841
  30.0874684  87.3136223  98.2731932  29.9699499  86.0360105  97.4695911
  29.3891028  83.6126791  74.9260518  30.2510192  83.9381689  75.1856336
  29.5741373  82.8258287  74.4133584  21.4058444  91.6949131  87.2040707
  20.7121916  91.2803084  86.6910662  22.1531435  91.7369667  86.6074126
  37.5423665  82.4855318  82.0695741  36.9622334  83.1440122  81.6873794
  37.2759598  81.6632662  81.6583159  35.9927231  81.8860375  84.2717062
  36.4927010  81.9976910  83.4631381  36.6362839  81.5821428  84.9117870
  30.0509227  89.7939005  97.1584903  29.5676309  90.5939365  97.3648792
  30.1370166  89.8046950  96.2052347  23.3195187  91.6267385  85.0806722
  23.2965875  91.7255072  84.1288605  23.6295823  92.4732535  85.4023888
  25.9782565  93.6843540  89.1953337  26.9325818  93.6527482  89.1283268
  25.7795088  93.2234163  90.0103562  26.5681947  92.2544656  91.7624134
  27.3874836  92.7488734  91.7858971  26.8418754  91.3376624  91.7341702
  36.3248543  84.6455408  81.1252090  35.4374398  84.9305059  80.9072284
  36.7402532  84.4849171  80.2779367  39.6763079  84.6701929  84.8406429
  40.4523469  85.1598381  85.1131046  38.9511213  85.0959983  85.2978298
  42.1135638  85.3829548  85.8980370  42.7080128  85.1425284  85.1873678
  42.1862221  84.6636679  86.5253906  24.3332793  99.2263159  86.2123534
  24.1987261  98.4663560  85.6461532  23.9164856  99.9504059  85.7452323
  35.4691756  94.4100083  75.2200110  36.1727606  94.6150085  75.8357765
  34.7454405  94.9776845  75.4849193  36.2989567  90.1609944  81.3402380
  36.2424768  90.6178495  80.5010012  36.8517909  89.4000629  81.1625223
  40.1094373  85.9499676  82.1652499  39.8531307  85.5496311  82.9960707
  39.4847241  86.6643470  82.0402639  44.4206710  88.6895749  84.6723791
  43.8606268  88.7588938  85.4455353  43.8150214  88.5136734  83.9523287
  27.4901919 100.1232476  86.4241977  27.3734303 101.0677909  86.3220667
  26.6694365  99.8206038  86.8127776  37.3778454  94.8482612  77.2698570
  38.2124058  94.4163810  77.0876045  37.2162797  94.6764626  78.1975464
  37.0324346  91.3514725  78.6354909  36.9773150  91.1858997  77.6943353
  36.4070401  92.0590758  78.7917099  21.8216861  86.5882790  92.4616331
  22.4675725  86.0781744  92.9503556  21.6134012  87.3251471  93.0359757
  34.3470253  93.6563637  97.9608472  35.2161413  93.8304289  97.5995107
  33.8677005  94.4758054  97.8384201  30.3420471  80.8522834  78.2140227
  30.3299141  81.7964674  78.3708498  31.2343893  80.6692980  77.9199689
  28.5156433 100.7760738  89.6397905  29.4183680 100.8084348  89.9564400
  28.2893803  99.8461189  89.6544241  30.2710035  99.5291725  86.3007984
  29.3205666  99.5293586  86.1872356  30.5742521  98.7824459  85.7844019
  34.1572591  77.4465611  82.4686164  33.3904987  76.8924098  82.6142847
  34.5683296  77.5187480  83.3300316  26.1614352  83.7350407  96.5591346
  27.0245813  83.3787211  96.7694670  25.5879763  83.3964301  97.2466750
  46.0062729 105.3652263  87.3653747  46.6441139 105.2459010  86.6617087
  45.8883572 106.3133107  87.4241699  42.8152435 105.3179691  87.3015271
  42.4770947 105.2020756  86.4135806  43.6842203 104.9170856  87.2816277
  38.6739251 107.1715168  83.2912162  38.1104116 107.0805104  82.5228450
  38.5591646 106.3515072  83.7714655  43.2972218 106.4714543  93.2601477
  43.2860859 106.0767341  92.3881980  43.4592858 105.7380615  93.8535248
  36.2203683 108.6666359  86.1296383  37.0124975 108.3257184  85.7142682
  36.4600333 108.7761334  87.0498536  44.2538810 110.8386135  78.6026627
  43.6026789 111.4240216  78.2160641  45.0483172 111.3692330  78.6621665
  38.1794437 107.9275272  79.0013761  38.9525313 107.3804259  78.8626637
  38.5319836 108.7919522  79.2128223  40.0179479 109.2551655  92.2080661
  39.7269345 110.1597285  92.0927327  40.6536464 109.2968182  92.9224730
  40.9435686 106.6328503  88.7982020  41.5399258 106.4084526  88.0838983
  41.0010658 105.8913249  89.4007468  40.5160715 104.0867938  76.6332211
  40.7686235 103.5649460  75.8715674  39.5785274 103.9234084  76.7358895
  45.5603997 103.0903717  84.4406955  46.3467087 102.6723140  84.0897372
  45.8242702 103.9949809  84.6088603  45.7314075 108.5276567  79.1395611
  45.0959908 108.6011194  79.8516516  45.4011481 109.1170166  78.4614691
  50.9612424 103.0278950  85.3439933  51.6937596 102.4578167  85.5777763
  50.2051780 102.6400550  85.7846439  40.2357003 105.9896044  78.8356586
  40.1193261 105.3140948  79.5037671  40.3459263 105.5028418  78.0188739
  42.5788544 105.4506192  82.5403276  42.2146751 104.9236813  83.2516197
  43.4355660 105.0604661  82.3669761  48.4837845  96.7400524  89.8034542
  48.1521170  97.6095935  89.5795757  47.8883458  96.4236808  90.4828572
  42.2194031 100.4796091  77.5364624  42.3868434 101.3476328  77.9035095
  42.0291200 100.6423373  76.6125913  44.9769364 108.9413070  89.2030454
  44.6770087 109.8438109  89.0946262  44.6320424 108.6745253  90.0551607
  38.4281846 105.3926867  85.2367159  37.5032342 105.2603081  85.4444851
  38.6766259 106.1721086  85.7337101  48.3766508 101.4595610  86.8827892
  47.4683385 101.3911019  86.5886653  48.3254104 101.9367555  87.7109717
  42.1983252 102.9353749  78.5211291  42.0782877 103.3810800  79.3596771
  41.5035840 103.2839066  77.9624829  35.7890657 105.0360141  86.0710948
  35.9183038 105.2894619  86.9850360  35.1088108 105.6287849  85.7515603
  42.4507374 102.8785256  94.8262789  41.6740708 103.4379176  94.8165654
  43.0897937 103.3642039  95.3477659  50.2428155  99.6612049  88.6605766
  49.6002535  99.9544582  88.0145560  49.7383083  99.5464969  89.4658962
  47.8968318 103.4075222  79.3491625  48.8086174 103.6402609  79.1739322
  47.3877965 103.9912266  78.7866704  40.7053746 105.6870709  94.3880756
  41.4468431 106.2255753  94.1115580  39.9990732 106.3136998  94.5452308
  46.1809086 107.8299850  92.9852917  46.5892442 107.3882260  92.2407550
  45.4586347 107.2552477  93.2387110  42.5340156 102.7672457  90.3586474
  43.3801351 103.1911870  90.5021123  42.4738794 102.1106081  91.0525038
  46.5037900 108.3901040  86.7405206  45.8746763 108.5546754  86.0381274
  46.1163563 108.8042650  87.5116170  50.3827132 109.3255478  84.0949570
  49.6978171 109.7054380  83.5446603  50.4670982 109.9350805  84.8281518
  45.6839601 100.4276825  92.0167648  45.4400533 101.1818885  91.4801924
  45.9599532 100.8062172  92.8514895  47.6378064 106.9715437  90.6944914
  47.8494959 107.6147197  90.0179295  47.5907812 106.1377754  90.2266844
  45.2404293  99.5833258  87.5981486  44.3788772  99.8814511  87.8898223
  45.2666728  99.8003657  86.6662518  42.0565862 108.1275448  84.0055291
  42.5204208 108.4063151  83.2159914  41.7922660 107.2258893  83.8228382
  38.9489943 107.6746930  86.9435055  39.5191301 108.1034198  86.3052539
  39.5398055 107.3929515  87.6419240  40.9934748 104.2498601  80.8144857
  41.6958792 104.7019644  81.2818783  40.6615377 103.6082420  81.4424750
  39.4415110 102.8410357  95.1896066  38.8113771 103.5226638  95.4231463
  39.3351198 102.7293439  94.2449204  34.7360082 102.5082153  86.1161990
  33.9459136 102.7639682  85.6402101  35.2271330 103.3230491  86.2214031
  48.7523892 109.8487393  88.8667271  49.5741336 109.4467580  88.5849953
  48.7486295 109.7455627  89.8183387  36.6874828 102.8726733  83.0745467
  35.8905991 102.9845427  83.5928963  36.4600420 103.2113385  82.2086357
  42.5180495 109.3971436  91.0227981  42.5824928 109.8591843  91.8586153
  41.8091419 108.7668801  91.1510291  33.0197785 102.7612644  88.5476981
  33.2705824 103.6459654  88.8134557  33.5557334 102.5817245  87.7752073
  56.8429885 106.1926141  85.2152242  56.0893593 105.6233539  85.0596247
  56.9777426 106.1588806  86.1622877  42.2328513 111.0639543  80.8906962
  42.0974188 111.9091079  81.3191810  42.7738326 111.2658821  80.1272896
  38.7195853  97.1431123  97.5521317  38.3262798  96.5897322  98.2268961
  39.5361993  97.4541702  97.9427835  35.6857910 108.5814981  81.4634887
  36.1982431 109.3758232  81.6140452  36.3380623 107.8841272  81.3968488
  37.4952795 111.6980738  83.5457640  37.6719423 112.6198702  83.3578624
  38.2909629 111.3839157  83.9752020  41.6363814  98.5589002  95.1441574
  42.3773527  99.1596156  95.0646036  41.8681736  97.8166640  94.5859616
  36.7805152 103.7445370  93.4219803  36.6658667 102.8430627  93.7226902
  35.9249669 103.9909066  93.0704620  43.8596989 111.6863110  95.0207304
  43.4160844 110.8999489  94.7028208  44.5214203 111.8742260  94.3551195
  38.6184111 113.2158912  89.5467982  39.1691536 113.0875975  88.7744976
  37.7795587 113.5153801  89.1962875  45.9578227 111.9665910  93.0488705
  45.9396703 112.7874791  92.5568974  46.8798148 111.8419985  93.2738846
  42.4151282 109.4810039  93.8912214  42.9479618 108.7198328  93.6611522
  41.8865363 109.1883691  94.6336368  45.5820977  94.5870105  89.4205855
  45.2385246  95.4771747  89.3444966  45.9499939  94.3971763  88.5575440
  33.6506827 106.9103636  82.2394457  34.4882049 107.3200644  82.0228165
  33.8285095 105.9703078  82.2094651  45.5471259 104.5778716  77.9278290
  45.0317883 105.3483321  78.1666678  45.2748568 103.9043853  78.5511352
  43.1318370  99.4228417  82.9863529  42.2759967  99.0335268  82.8069167
  43.5445322  99.5020378  82.1263314  44.6617517  96.9574760  87.3855089
  44.1582313  96.9204896  86.5722894  44.9548124  97.8667503  87.4451745
  40.9060403  97.0413490  86.3921270  41.7713400  96.8456299  86.0327160
  40.9737912  96.8123842  87.3190627  50.5205533 107.3311071  79.8631464
  49.7434976 106.9922231  79.4186626  51.1997014 107.3363694  79.1886429
  45.3357563 102.4505809  79.7538072  45.0307698 102.7651958  80.6048215
  46.2888005 102.5287228  79.7965405  43.7803994 108.6096032  81.4031026
  43.2525356 107.8748791  81.0904263  43.2791497 109.3870708  81.1570994
  48.7596840 106.8045052  86.5198072  48.1020515 107.4944314  86.6078200
  49.5637240 107.1941484  86.8632058  38.5122722  99.2715698  83.7637637
  39.0866474  99.0490880  83.0310830  39.0993704  99.3404393  84.5166238
  47.5702299 105.1589425  84.5702014  48.0834181 105.7919417  85.0723723
  48.2203523 104.5590621  84.2045374  38.8392309 101.3020159  77.7833522
  38.0029621 101.6394846  78.1042797  38.6997079 101.1669139  76.8460659
  40.8145390  96.1456947  82.4912707  40.1609802  95.8305964  81.8669321
  40.7725864  95.5232687  83.2172529  41.9256595 106.4276242  74.4065999
  41.0183656 106.1965496  74.6057148  42.4227627 105.6313861  74.5939980
  44.8324673 115.1373749  77.3262685  44.1586372 115.4405446  77.9347643
  45.2190495 115.9402830  76.9768142  44.0483130 102.6338881  86.8160354
  43.1305691 102.8553828  86.6582042  44.4643274 102.7085191  85.9572061
  44.8318178 104.0330296  81.9463034  45.5789997 104.5451693  81.6370156
  45.1009767 103.7114349  82.8067428  43.1044828 106.5288837  78.9289989
  42.1956047 106.2447870  79.0262458  43.1339912 106.9487916  78.0693296
  48.3364095 110.1395426  82.6981156  47.8826422 109.2986336  82.7546347
  47.7058062 110.7756825  83.0355936  47.2797015 101.0687413  83.9281824
  46.5419772 100.5564799  84.2592066  47.5323788 100.6287794  83.1165101
  46.7797035 111.9771923  83.6330974  47.0720009 112.5376980  82.9143340
  47.2895655 112.2700484  84.3884133  47.3808642  93.8463665  84.5223593
  47.6867519  92.9861028  84.2349508  48.1061247  94.4381285  84.3222587
  33.6732998 104.2494351  82.9105191  33.4757398 103.6563712  82.1856257
  33.1179662 103.9446561  83.6281130  41.6529722 104.1417458  85.0299784
  41.7078332 103.1891294  84.9542261  40.8420924 104.2976897  85.5141082
  42.8020916 108.0697581  76.2678067  42.3640346 107.3533440  75.8083705
  43.5431357 108.2973695  75.7063159  39.5922082 102.7594517  82.7890163
  38.7789947 103.0588688  83.1955355  40.0881076 102.3650206  83.5064645
  41.7430660 112.7552274  84.7224428  41.7006839 112.9813121  83.7932960
  42.6593359 112.5215649  84.8710229  45.1896294 103.2236342  91.6205057
  45.5445681 103.4507815  92.4799523  45.8368425 103.5554719  90.9982312
  50.9194031 106.3454778  82.3254386  50.7811929 106.5356374  81.3975575
  50.5630249 107.1074161  82.7822437  39.0836157 100.3312873  88.4051398
  39.7235536 100.1901632  87.7074361  38.2513687 100.0447386  88.0290000
  50.9463410 108.4131305  87.3365657  51.3799917 108.3206594  88.1848711
  51.6594991 108.3888805  86.6985673  39.8596461 109.6315303  84.5186390
  40.6537059 109.1365623  84.3168965  39.1488153 109.1033166  84.1554096
  44.6791305 112.0133399  88.8698758  44.7328327 112.5824335  89.6376474
  43.8106086 112.1835284  88.5052795  36.1679224 103.7758385  80.5946143
  35.2376812 103.7142840  80.8116105  36.2636696 103.2534338  79.7982784
  36.0864773 100.3013198  83.1824385  36.3471590 101.2158531  83.0733545
  36.9081945  99.8337640  83.3320997  37.5589698 101.7150955  90.3523209
  38.2312752 101.5068317  89.7035858  36.7319485 101.5173041  89.9128441
  51.8078960 108.4555005  89.8698543  52.0014850 109.3600816  90.1157818
  51.7079578 107.9962424  90.7037128  43.4615270  98.3412896  92.3688870
  42.8143185  99.0402846  92.2753346  44.2316286  98.7749040  92.7365118
  46.8694068 108.6061748  95.4439423  46.7179575 108.3772300  94.5269507
  46.8598748 109.5632350  95.4570768  43.6379405 106.1793661  90.4285690
  44.5671465 106.3304820  90.2554657  43.2170435 106.2677682  89.5734336
  42.4367737 110.2044325  88.1984227  42.2978822 109.8363110  89.0710166
  41.6482333 110.7191965  88.0268185  43.0315889 115.3053422  79.5409764
  43.2067644 114.8341465  80.3555387  42.3448677 115.9319188  79.7691025
  43.9872952 109.5825928  85.5873065  43.6522784 109.5426698  86.4830715
  43.4876897 108.9170644  85.1143475  37.9617196 104.9893558  91.1125646
  37.8236994 104.2573797  91.7137185  38.8722119 104.9002458  90.8309834
  46.9232143 106.9281962  75.8610125  46.3061314 106.2028790  75.7643178
  46.4548632 107.6891323  75.5177199  40.5899496 104.7013517  90.6009326
  41.2999115 104.0606710  90.5595944  40.5468805 104.9526412  91.5235507
  48.5786275 111.6380871  93.5215905  48.5198821 110.9540091  92.8546488
  48.9805793 112.3799861  93.0696531  39.3028430 101.6878735  92.4204965
  38.7665787 101.2369474  93.0726562  38.7145139 101.8224644  91.6775430
  38.7130689 101.1467387  74.9831429  37.8360156 101.0256187  74.6193676
  39.1888442 100.3553465  74.7310318  48.5803682 109.6020455  91.7529885
  47.6930461 109.2646376  91.8756284  49.1502233 108.8703486  91.9898650
  30.2332829 105.9344546  85.0772936  30.9203869 105.6206276  84.4893952
  30.0780958 106.8385911  84.8040188  35.0367552 100.8234743  89.5057960
  34.9525740 100.2160412  88.7708370  34.2150258 101.3143761  89.5067456
  42.1104836 114.2621907  88.7191128  42.0375007 115.0676878  89.2310433
  41.6682229 114.4613873  87.8939149  41.8994615 113.4993677  82.2293950
  41.1162137 114.0415357  82.3232174  42.5987361 114.0167657  82.6288191
  45.2091265  99.3088306  84.8728155  45.7059965  98.5558269  84.5529225
  44.4378247  99.3452623  84.3071364  53.0621023 105.0128672  86.5146447
  53.0510899 105.8953387  86.1440380  52.1938402 104.6600223  86.3200984
  44.5703519 114.1608741  90.8749287  45.2831491 114.7956206  90.8025188
  44.0793548 114.2572607  90.0589289  46.2921046 108.0659994  82.4466578
  45.3577325 108.1861456  82.2771283  46.4697715 107.1632460  82.1826588
  41.7926234 101.4505689  84.5999840  41.4224022 100.8976730  85.2880745
  42.2885327 100.8463823  84.0474840  49.6793597 103.9077313  82.9816613
  50.1454050 104.7405305  82.9076915  50.1301098 103.4422294  83.6861871
  39.6215433 111.9103184  91.6954858  40.3224892 112.5439667  91.8484252
  39.1510548 112.2517916  90.9350497  47.7469829 110.2521134  79.9802765
  48.0229672 110.1377729  80.8896639  46.8774327 109.8538619  79.9414938
  47.6510260  96.2757900  87.0207514  46.7373340  96.5062127  87.1889721
  48.0803362  96.3596344  87.8721546  47.4216719 104.4647792  89.5207408
  46.7688169 104.7123699  88.8659861  47.7997099 103.6511930  89.1869885
  44.3823893 114.5007485  83.6235578  44.5646287 113.6829141  84.0863331
  45.2056879 114.7175177  83.1860468  44.7166058 113.4275670  80.8850627
  45.2453825 112.9168125  80.2720789  44.9794278 113.1118200  81.7496160
  43.4704292 105.2067603  96.0073445  42.7944929 105.1061732  96.6775820
  44.2931926 105.0506817  96.4709442  35.2183151 111.4439539  88.6285960
  35.8036588 110.6983227  88.7613864  35.0207989 111.7543496  89.5122624
  29.8100806 104.0145140  87.3490403  29.8484905 103.4808730  88.1427521
  29.3041098 103.4880345  86.7301381  37.1891568  98.8609680  90.8452946
  37.2532894  99.7224511  90.4330343  37.1258688  98.2483682  90.1125304
  36.6643840 100.9332813  94.4925980  37.2915879 100.5509890  95.1063504
  35.8071759 100.7147015  94.8581672  47.0637949 111.3395788  96.0979715
  47.6077853 111.9525746  95.6034670  46.4824794 111.8975366  96.6146728
  33.4409383 102.7409242  80.4244335  33.7362824 101.8319920  80.3711388
  32.5397419 102.7196981  80.1025337  45.3495462 114.4616506  87.2294743
  45.2246601 113.6606246  86.7205689  46.0074553 114.9562699  86.7408713
  36.9703630 100.8165238  86.4071883  36.2490216 101.4301206  86.2679357
  37.7596886 101.3523003  86.3288529  47.4130370 112.2625526  88.8574293
  46.4660706 112.1430877  88.7852620  47.7613143 111.3748024  88.9400555
  39.7729944  98.1519665  92.6812535  40.2964345  98.3981961  93.4438844
  39.5542277  98.9839700  92.2615672  35.1697225 100.4223339  80.5483660
  34.8409931  99.5420718  80.3658766  35.5236595 100.3671008  81.4360049
  44.4176804 112.0578242  85.0578645  44.2701766 111.1294950  85.2386216
  45.2430297 112.0798333  84.5735721  38.2839048 100.7096309  80.9159138
  38.6235120 101.2382231  80.1937746  38.7311168 101.0476715  81.6917704
  48.0210925 112.8806801  86.1443518  48.9457473 112.6749662  86.0067969
  47.8526229 112.6323202  87.0532860  40.9782489  99.0933360  90.3662206
  40.6379309  98.2941173  90.7682886  40.2721495  99.3935071  89.7939039
  41.6298961  96.1782672  88.8189529  42.4525030  95.7043151  88.6968419
  41.8737024  96.9573156  89.3188215  40.2707195  99.2070931  79.1152430
  40.9915558  99.5852184  78.6116147  39.6472499  99.9259808  79.2187408
  44.4138318  99.9116080  80.0510763  44.6301932 100.7940718  79.7499591
  43.9332385  99.5202293  79.3216405  39.1537539 102.8701793  86.6281507
  39.0082120 103.1842096  87.5205789  38.6762743 103.4886693  86.0752406
  41.0133922  99.8604341  86.6762397  40.9995491  98.9645434  86.3394695
  41.7306350  99.8675005  87.3100683  42.8660053 100.2941681  88.7215524
  42.6077831 101.2158752  88.7199855  42.3345093  99.8972116  89.4115988
  47.8106242 113.3992468  81.5005610  47.9843119 112.8338891  80.7479462
  48.3035133 114.1993363  81.3185100  33.6283201 105.4107137  89.5669168
  33.0836670 106.1866945  89.6989443  34.5062551 105.7577942  89.4088290
  40.4170818  98.7418721  81.9449967  40.5386729  97.8135368  82.1440854
  40.1272860  98.7557407  81.0328282  43.2862008  96.4273632  85.0816687
  43.3083705  96.4912965  84.1268666  43.7030068  95.5878140  85.2757193
  53.6645633 106.1628891  83.1195909  54.1076779 105.4136217  82.7215033
  52.7872143 106.1539028  82.7369641  48.7981414 112.7159233  78.6002508
  49.4932319 113.3365925  78.8189823  49.1404564 111.8654584  78.8754886
  34.4149223 104.5377034  92.4599325  33.6730959 104.6859669  93.0463956
  34.0941968 104.7985299  91.5966075  50.6972837 110.1658938  80.1289839
  51.2224161 110.5046211  79.4039159  50.6095190 109.2305954  79.9452973
  42.3592886 114.0793012  92.2579715  42.6680012 113.8342159  93.1302415
  43.1568368 114.2839650  91.7698586  34.8605837 112.4242462  84.4909720
  35.6863857 112.1246234  84.1108364  34.5099889 111.6550085  84.9399509
  39.8287370 111.7768931  86.5607394  39.2067379 111.1139636  86.2609621
  40.4992237 111.8030063  85.8781041  33.0614442 110.3428789  85.4498654
  32.2246350 109.9150963  85.2682655  33.0338087 110.5361232  86.3869445
  39.9011898 100.2550719  96.1539900  39.9500053 101.1312842  95.7717669
  40.4434412  99.7128112  95.5811543  50.3866743 110.7991842  95.4341037
  49.5962287 110.7815981  94.8945536  50.1500098 111.3380136  96.1890073
  50.5064618 107.6484308  92.7473765  50.5562623 107.4834316  93.6889288
  50.3978542 106.7811567  92.3571646  39.3900877 110.3272854  80.0365854
  39.5388997 111.0108318  79.3832527  40.1967321 110.3077944  80.5515310
  47.7968381 103.6315236  94.0633072  48.6978244 103.4921701  93.7717070
  47.8716355 103.7969691  95.0031249  42.1311186 101.0082091  92.9086258
  41.2614495 101.3015657  92.6368847  42.3670666 101.5922536  93.6293522
  52.0082815 110.0681250  92.9915787  51.7167624 110.4311230  93.8279248
  51.3954946 109.3548258  92.8129119  53.2078498 107.6334130  85.5118357
  54.0425389 108.0723934  85.6755917  53.3437626 107.1572783  84.6926603
  50.2570003 105.1913864  91.4595845  50.7324125 105.3841511  90.6514696
  49.3335569 105.2473050  91.2139228  37.1453510 106.3538032  81.0426923
  36.8999552 105.4500362  81.2407133  37.3149425 106.3555182  80.1006401
  44.8350220  97.2261708  90.4251679  45.3532164  97.9622735  90.0998167
  44.4805353  97.5325701  91.2598438  36.4149158 102.0866389  78.5413084
  35.7218403 102.1610744  77.8853120  36.1700909 101.3226733  79.0634601
  45.0862814  93.6461991  85.9452575  45.3664568  92.9785180  86.5713002
  45.8713421  93.8391086  85.4327239  42.8896283 112.8220984  77.5077602
  42.3170250 113.4411172  77.0548073  43.4629076 113.3720346  78.0417523
  48.9571672 102.0679625  89.6924150  49.9089095 102.1677722  89.7136374
  48.7875123 101.2757893  90.2022235  46.9786052  99.1535208  89.8783551
  46.3835984  99.4340221  89.1830040  46.6935749  99.6429109  90.6500292
  46.1093542 113.1058135  78.6386184  47.0424216 113.0403696  78.8419059
  46.0216755 113.9414401  78.1800716  48.7381559 112.4224005  75.5990131
  48.6595191 112.0883869  76.4925889  49.5591226 112.9145773  75.5981604
  51.4359750 105.2885744  88.8066450  51.4036070 104.3501745  88.9926134
  52.0460374 105.3669781  88.0732275  43.2743081 104.1581797  74.8493654
  44.2202186 104.0288005  74.9182072  42.8957326 103.4196459  75.3263082
  51.5854239 102.0796788  88.8524733  51.0693287 101.2955244  88.6654662
  52.4694187 101.7515504  89.0171253  49.2464966  95.8237803  84.8120546
  49.0489787  95.5152891  85.6963878  49.8564671  96.5499442  84.9418476
  57.2536300 106.3501751  87.9472487  57.9839689 106.0887039  88.5080190
  56.6443246 105.6130473  87.9874555  55.3351597 104.4909614  88.5446938
  54.6084761 104.3565579  87.9363430  54.9198884 104.7986442  89.3503656
  43.1581774 108.2099543  96.3094311  44.0784783 108.3878142  96.5034358
  43.1231357 107.2655589  96.1574010  41.4585998 102.0831774  74.7848539
  40.5517454 101.7864886  74.8611253  41.7361979 101.7861592  73.9182826
  32.3763939 103.4038137  85.2347586  32.0566723 102.5503445  84.9421960
  31.8297367 103.6186715  85.9905553  36.1543846 106.1200578  88.9517092
  36.3729856 107.0517686  88.9705126  36.5669620 105.7608552  89.7371896
  43.0748064  96.6268663  80.9392781  42.2648792  96.2815748  81.3148027
  43.7632481  96.3176207  81.5280392  45.0038612  95.7046710  82.5617077
  45.5569651  96.1242164  83.2207100  45.2408699  94.7782458  82.6040033
  41.0271711 101.6933784  98.3419841  40.9268438 102.6428141  98.2731932
  40.8093254 101.3652023  97.4695911  40.2284783  98.9418709  74.9260518
  41.0903947  99.2673607  75.1856336  40.4135127  98.1550205  74.4133584
  32.2452199 107.0241049  87.2040707  31.5515670 106.6095001  86.6910662
  32.9925190 107.0661585  86.6074126  48.3817419  97.8147235  82.0695741
  47.8016088  98.4732039  81.6873794  48.1153352  96.9924580  81.6583159
  46.8320986  97.2152293  84.2717062  47.3320764  97.3268828  83.4631381
  47.4756594  96.9113346  84.9117870  40.8902982 105.1230923  97.1584903
  40.4070063 105.9231283  97.3648792  40.9763921 105.1338867  96.2052347
  34.1588941 106.9559302  85.0806722  34.1359629 107.0546990  84.1288605
  34.4689578 107.8024453  85.4023888  36.8176319 109.0135457  89.1953337
  37.7719573 108.9819400  89.1283268  36.6188843 108.5526081  90.0103562
  37.4075701 107.5836573  91.7624134  38.2268590 108.0780652  91.7858971
  37.6812509 106.6668542  91.7341702  47.1642297  99.9747326  81.1252090
  46.2768152 100.2596976  80.9072284  47.5796286  99.8141089  80.2779367
  50.5156834  99.9993847  84.8406429  51.2917224 100.4890299  85.1131046
  49.7904968 100.4251901  85.2978298  52.9529392 100.7121466  85.8980370
  53.5473883 100.4717202  85.1873678  53.0255976  99.9928596  86.5253906
  46.3085511 109.7392000  75.2200110  47.0121361 109.9442003  75.8357765
  45.5848160 110.3068762  75.4849193  47.1383321 105.4901862  81.3402380
  47.0818523 105.9470413  80.5010012  47.6911664 104.7292546  81.1625223
  50.9488127 101.2791593  82.1652499  50.6925061 100.8788229  82.9960707
  50.3240995 101.9935387  82.0402639  55.2600465 104.0187667  84.6723791
  54.7000023 104.0880856  85.4455353  54.6543968 103.8428651  83.9523287
  48.2172208 110.1774530  77.2698570  49.0517812 109.7455728  77.0876045
  48.0556551 110.0056543  78.1975464  47.8718100 106.6806643  78.6354909
  47.8166904 106.5150914  77.6943353  47.2464156 107.3882676  78.7917099
  32.6610615 101.9174707  92.4616331  33.3069479 101.4073661  92.9503556
  32.4527767 102.6543389  93.0359757  45.1864008 108.9855555  97.9608472
  46.0555167 109.1596207  97.5995107  44.7070759 109.8049972  97.8384201
  41.1814226  96.1814752  78.2140227  41.1692896  97.1256592  78.3708498
  42.0737648  95.9984897  77.9199689  41.1103790 114.8583642  86.3007984
  40.1599421 114.8585504  86.1872356  41.4136276 114.1116377  85.7844019
  44.9966345  92.7757529  82.4686164  44.2298741  92.2216015  82.6142847
  45.4077050  92.8479397  83.3300316  37.0008106  99.0642324  96.5591346
  37.8639568  98.7079129  96.7694670  36.4273517  98.7256219  97.2466750
  56.3997752 118.4195635  84.4406955  57.1860841 118.0015058  84.0897372
  56.6636456 119.3241727  84.6088603  61.8006179 118.3570868  85.3439933
  62.5331351 117.7870085  85.5777763  61.0445535 117.9692468  85.7846439
  59.3231599 112.0692442  89.8034542  58.9914924 112.9387853  89.5795757
  58.7277213 111.7528726  90.4828572  53.0587786 115.8088009  77.5364624
  53.2262188 116.6768245  77.9035095  52.8684955 115.9715291  76.6125913
  59.2160263 116.7887528  86.8827892  58.3077140 116.7202936  86.5886653
  59.1647858 117.2659473  87.7109717  53.0377007 118.2645666  78.5211291
  52.9176632 118.7102717  79.3596771  52.3429595 118.6130984  77.9624829
  53.2901128 118.2077174  94.8262789  52.5134462 118.7671094  94.8165654
  53.9291691 118.6933957  95.3477659  61.0821909 114.9903966  88.6605766
  60.4396289 115.2836500  88.0145560  60.5776838 114.8756887  89.4658962
  58.7362073 118.7367140  79.3491625  59.6479929 118.9694526  79.1739322
  58.2271720 119.3204184  78.7866704  53.3733910 118.0964374  90.3586474
  54.2195106 118.5203788  90.5021123  53.3132548 117.4397999  91.0525038
  56.5233356 115.7568743  92.0167648  56.2794288 116.5110803  91.4801924
  56.7993286 116.1354090  92.8514895  56.0798047 114.9125176  87.5981486
  55.2182526 115.2106429  87.8898223  56.1060482 115.1295574  86.6662518
  67.6823639 121.5218059  85.2152242  66.9287348 120.9525457  85.0596247
  67.8171181 121.4880723  86.1622877  49.5589607 112.4723041  97.5521317
  49.1656553 111.9189240  98.2268961  50.3755747 112.7833619  97.9427835
  52.4757568 113.8880920  95.1441574  53.2167282 114.4888073  95.0646036
  52.7075491 113.1458558  94.5859616  56.4214731 109.9162023  89.4205855
  56.0779000 110.8063665  89.3444966  56.7893694 109.7263681  88.5575440
  56.3865014 119.9070634  77.9278290  55.8711637 120.6775239  78.1666678
  56.1142322 119.2335770  78.5511352  53.9712125 114.7520335  82.9863529
  53.1153721 114.3627185  82.8069167  54.3839077 114.8312296  82.1263314
  55.5011271 112.2866678  87.3855089  54.9976067 112.2496813  86.5722894
  55.7941878 113.1959421  87.4451745  51.7454157 112.3705408  86.3921270
  52.6107154 112.1748217  86.0327160  51.8131666 112.1415760  87.3190627
  61.3599288 122.6602989  79.8631464  60.5828731 122.3214148  79.4186626
  62.0390769 122.6655612  79.1886429  56.1751317 117.7797726  79.7538072
  55.8701453 118.0943875  80.6048215  57.1281759 117.8579146  79.7965405
  49.3516476 114.6007616  83.7637637  49.9260228 114.3782797  83.0310830
  49.9387459 114.6696310  84.5166238  58.4096054 120.4881343  84.5702014
  58.9227935 121.1211335  85.0723723  59.0597278 119.8882538  84.2045374
  49.6786064 116.6312077  77.7833522  48.8423376 116.9686763  78.1042797
  49.5390833 116.4961057  76.8460659  51.6539144 111.4748865  82.4912707
  51.0003557 111.1597882  81.8669321  51.6119618 110.8524605  83.2172529
  54.8876885 117.9630798  86.8160354  53.9699446 118.1845745  86.6582042
  55.3037028 118.0377109  85.9572061  55.6711932 119.3622214  81.9463034
  56.4183751 119.8743611  81.6370156  55.9403522 119.0406267  82.8067428
  58.1190769 116.3979330  83.9281824  57.3813526 115.8856716  84.2592066
  58.3717543 115.9579712  83.1165101  58.2202397 109.1755582  84.5223593
  58.5261274 108.3152946  84.2349508  58.9455002 109.7673202  84.3222587
  50.4315836 118.0886435  82.7890163  49.6183702 118.3880606  83.1955355
  50.9274831 117.6942124  83.5064645  56.0290048 118.5528259  91.6205057
  56.3839436 118.7799733  92.4799523  56.6762179 118.8846636  90.9982312
  61.7587785 121.6746695  82.3254386  61.6205684 121.8648291  81.3975575
  61.4024004 122.4366078  82.7822437  49.9229911 115.6604791  88.4051398
  50.5629291 115.5193550  87.7074361  49.0907442 115.3739304  88.0290000
  46.9258528 115.6305116  83.1824385  47.1865345 116.5450449  83.0733545
  47.7475700 115.1629558  83.3320997  48.3983453 117.0442873  90.3523209
  49.0706506 116.8360235  89.7035858  47.5713239 116.8464959  89.9128441
  54.3009025 113.6704814  92.3688870  53.6536940 114.3694763  92.2753346
  55.0710040 114.1040958  92.7365118  50.1422185 117.0170653  92.4204965
  49.6059542 116.5661391  93.0726562  49.5538893 117.1516562  91.6775430
  49.5524444 116.4759304  74.9831429  48.6753910 116.3548105  74.6193676
  50.0282197 115.6845383  74.7310318  45.8761306 116.1526661  89.5057960
  45.7919495 115.5452330  88.7708370  45.0544012 116.6435679  89.5067456
  56.0485020 114.6380224  84.8728155  56.5453719 113.8850186  84.5529225
  55.2772001 114.6744541  84.3071364  63.9014777 120.3420590  86.5146447
  63.8904654 121.2245305  86.1440380  63.0332157 119.9892140  86.3200984
  52.6319989 116.7797607  84.5999840  52.2617776 116.2268647  85.2880745
  53.1279081 116.1755741  84.0474840  60.5187352 119.2369231  82.9816613
  60.9847804 120.0697222  82.9076915  60.9694852 118.7714212  83.6861871
  58.4904015 111.6049818  87.0207514  57.5767095 111.8354044  87.1889721
  58.9197116 111.6888262  87.8721546  58.2610473 119.7939710  89.5207408
  57.6081923 120.0415617  88.8659861  58.6390853 118.9803848  89.1869885
  48.0285322 114.1901598  90.8452946  48.0926649 115.0516429  90.4330343
  47.9652443 113.5775600  90.1125304  47.5037595 116.2624730  94.4925980
  48.1309634 115.8801808  95.1063504  46.6465514 116.0438932  94.8581672
  47.8097385 116.1457156  86.4071883  47.0883970 116.7593124  86.2679357
  48.5990640 116.6814921  86.3288529  50.6123698 113.4811583  92.6812535
  51.1358100 113.7273879  93.4438844  50.3936031 114.3131617  92.2615672
  46.0090979 115.7515257  80.5483660  45.6803685 114.8712636  80.3658766
  46.3630350 115.6962926  81.4360049  49.1232802 116.0388227  80.9159138
  49.4628875 116.5674148  80.1937746  49.5704923 116.3768633  81.6917704
  51.8176243 114.4225278  90.3662206  51.4773064 113.6233091  90.7682886
  51.1115249 114.7226989  89.7939039  52.4692715 111.5074590  88.8189529
  53.2918784 111.0335068  88.6968419  52.7130779 112.2865074  89.3188215
  51.1100950 114.5362849  79.1152430  51.8309312 114.9144101  78.6116147
  50.4866254 115.2551725  79.2187408  55.2532072 115.2407998  80.0510763
  55.4695687 116.1232635  79.7499591  54.7726140 114.8494211  79.3216405
  51.8527677 115.1896259  86.6762397  51.8389245 114.2937352  86.3394695
  52.5700105 115.1966922  87.3100683  53.7053807 115.6233599  88.7215524
  53.4471585 116.5450670  88.7199855  53.1738848 115.2264033  89.4115988
  51.2564573 114.0710639  81.9449967  51.3780484 113.1427285  82.1440854
  50.9666615 114.0849325  81.0328282  54.1255763 111.7565549  85.0816687
  54.1477460 111.8204883  84.1268666  54.5423822 110.9170058  85.2757193
  64.5039387 121.4920809  83.1195909  64.9470533 120.7428134  82.7215033
  63.6265898 121.4830945  82.7369641  50.7405652 115.5842636  96.1539900
  50.7893808 116.4604759  95.7717669  51.2828166 115.0420029  95.5811543
  58.6362135 118.9607154  94.0633072  59.5371998 118.8213619  93.7717070
  58.7110110 119.1261609  95.0031249  52.9704941 116.3374009  92.9086258
  52.1008250 116.6307575  92.6368847  53.2064421 116.9214454  93.6293522
  64.0472252 122.9626047  85.5118357  64.8819143 123.4015851  85.6755917
  64.1831381 122.4864701  84.6926603  61.0963758 120.5205782  91.4595845
  61.5717880 120.7133428  90.6514696  60.1729323 120.5764968  91.2139228
  55.6743974 112.5553626  90.4251679  56.1925918 113.2914653  90.0998167
  55.3199107 112.8617619  91.2598438  47.2542912 117.4158307  78.5413084
  46.5612157 117.4902662  77.8853120  47.0094664 116.6518651  79.0634601
  55.9256569 108.9753908  85.9452575  56.2058322 108.3077097  86.5713002
  56.7107176 109.1683004  85.4327239  59.7965427 117.3971542  89.6924150
  60.7482850 117.4969640  89.7136374  59.6268877 116.6049811  90.2022235
  57.8179806 114.4827125  89.8783551  57.2229739 114.7632138  89.1830040
  57.5329503 114.9721026  90.6500292  62.2753505 120.6177662  88.8066450
  62.2429825 119.6793663  88.9926134  62.8854128 120.6961699  88.0732275
  54.1136836 119.4873715  74.8493654  55.0595940 119.3579923  74.9182072
  53.7351081 118.7488377  75.3263082  62.4247993 117.4088705  88.8524733
  61.9087042 116.6247162  88.6654662  63.3087942 117.0807422  89.0171253
  60.0858720 111.1529721  84.8120546  59.8883541 110.8444809  85.6963878
  60.6958426 111.8791360  84.9418476  68.0930055 121.6793669  87.9472487
  68.8233443 121.4178957  88.5080190  67.4837000 120.9422391  87.9874555
  66.1745352 119.8201531  88.5446938  65.4478515 119.6857496  87.9363430
  65.7592639 120.1278360  89.3503656  52.2979753 117.4123691  74.7848539
  51.3911208 117.1156804  74.8611253  52.5755734 117.1153509  73.9182826
  53.9141818 111.9560581  80.9392781  53.1042547 111.6107666  81.3148027
  54.6026235 111.6468125  81.5280392  55.8432367 111.0338628  82.5617077
  56.3963405 111.4534081  83.2207100  56.0802453 110.1074376  82.6040033
  51.8665466 117.0225701  98.3419841  51.7662193 117.9720058  98.2731932
  51.6487008 116.6943940  97.4695911  51.0678537 114.2710627  74.9260518
  51.9297701 114.5965525  75.1856336  51.2528882 113.4842122  74.4133584
  59.2211174 113.1439153  82.0695741  58.6409843 113.8023957  81.6873794
  58.9547107 112.3216498  81.6583159  57.6714740 112.5444211  84.2717062
  58.1714519 112.6560745  83.4631381  58.3150348 112.2405264  84.9117870
  58.0036052 115.3039243  81.1252090  57.1161907 115.5888894  80.9072284
  58.4190041 115.1433007  80.2779367  61.3550588 115.3285764  84.8406429
  62.1310978 115.8182217  85.1131046  60.6298722 115.7543819  85.2978298
  63.7923147 116.0413384  85.8980370  64.3867637 115.8009120  85.1873678
  63.8649730 115.3220514  86.5253906  57.9777076 120.8193779  81.3402380
  57.9212277 121.2762331  80.5010012  58.5305418 120.0584464  81.1625223
  61.7881882 116.6083511  82.1652499  61.5318816 116.2080147  82.9960707
  61.1634750 117.3227305  82.0402639  66.0994219 119.3479584  84.6723791
  65.5393777 119.4172774  85.4455353  65.4937723 119.1720569  83.9523287
  52.0207980 111.5106670  78.2140227  52.0086650 112.4548509  78.3708498
  52.9131402 111.3276815  77.9199689  55.8360100 108.1049446  82.4686164
  55.0692496 107.5507933  82.6142847  56.2470805 108.1771315  83.3300316
  47.8401861 114.3934242  96.5591346  48.7033322 114.0371047  96.7694670
  47.2667272 114.0548137  97.2466750  69.0596151 124.5047500  84.5223593
  69.3655028 123.6444863  84.2349508  69.7848756 125.0965120  84.3222587
  66.7650323 124.3045826  85.9452575  67.0452077 123.6369015  86.5713002
  67.5500930 124.4974922  85.4327239  66.6753854 123.4341364  82.4686164
  65.9086250 122.8799851  82.6142847  67.0864559 123.5063233  83.3300316
   2.6487712  21.0546715  74.0899053   3.2866122  20.9353462  73.3862393
   2.5308555  22.0027559  74.1487005   2.2028981  18.7798169  71.1652261
   2.9892070  18.3617592  70.8142678   2.4667685  19.6844261  71.3333910
   2.3739058  24.2171019  65.8640918   1.7384891  24.2905646  66.5761823
   2.0436464  24.8064618  65.1859997   7.6037408  18.7173402  72.0685240
   8.3362580  18.1472619  72.3023069   6.8476763  18.3295002  72.5091745
   1.6194348  24.6307522  75.9275761   1.3195071  25.5332561  75.8191568
   1.2745407  24.3639705  76.7796914   5.0191491  17.1490062  73.6073198
   4.1108369  17.0805471  73.3131959   4.9679087  17.6262007  74.4355024
   6.8853138  15.3506501  75.3851072   6.2427518  15.6439034  74.7390867
   6.3808066  15.2359421  76.1904269   4.5393301  19.0969674  66.0736932
   5.4511158  19.3297061  65.8984629   4.0302949  19.6806718  65.5112010
   2.8234069  23.5194302  79.7098224   3.2317425  23.0776712  78.9652856
   2.1011331  22.9446929  79.9632417   3.1462884  24.0795492  73.4650513
   2.5171746  24.2441206  72.7626581   2.7588546  24.4937102  74.2361477
   7.0252116  25.0149930  70.8194877   6.3403154  25.3948831  70.2691910
   7.1095965  25.6245257  71.5526825   4.2803047  22.6609889  77.4190220
   4.4919943  23.3041649  76.7424601   4.2332796  21.8272206  76.9512150
   5.3948875  25.5381845  75.5912578   6.2166319  25.1362032  75.3095259
   5.3911278  25.4350079  76.5428693  13.4854868  21.8820593  71.9397549
  12.7318577  21.3127991  71.7841554  13.6202410  21.8483258  72.8868184
   2.6003211  27.6560362  79.7734012   2.5821686  28.4769243  79.2814281
   3.5223131  27.5314437  79.9984153   2.1896243  20.2673168  64.6523597
   1.6742866  21.0377773  64.8911984   1.9173551  19.5938304  65.2756658
   7.1630517  23.0205523  66.5876771   6.3859960  22.6816682  66.1431933
   7.8421998  23.0258146  65.9131736   1.9782546  18.1400260  66.4783378
   1.6732681  18.4546410  67.3293521   2.9312988  18.2181680  66.5210711
   5.4021824  22.4939504  73.2443379   4.7445498  23.1838766  73.3323507
   6.2062223  22.8835936  73.5877365   4.2127282  20.8483877  71.2947320
   4.7259164  21.4813869  71.7969030   4.8628506  20.2485072  70.9290680
   1.4749657  30.8268201  64.0507991   0.8011355  31.1299898  64.6592949
   1.8615479  31.6297282  63.7013448   1.4743161  19.7224748  68.6708341
   2.2214980  20.2346145  68.3615463   1.7434751  19.4008801  69.5312735
   4.9789079  25.8289878  69.4226463   4.5251406  24.9880788  69.4791653
   4.3483045  26.4651277  69.7601243   3.9221998  16.7581864  70.6527130
   3.1844755  16.2459251  70.9837373   4.1748772  16.3182246  69.8410407
   3.4222018  27.6666375  70.3576281   3.7144992  28.2271432  69.6388647
   3.9320639  27.9594936  71.1129440   1.8321277  18.9130794  78.3450363
   2.1870665  19.1402267  79.2044829   2.4793408  19.2449170  77.7227619
   7.5619014  22.0349230  69.0499692   7.4236912  22.2250826  68.1220882
   7.2055233  22.7968612  69.5067744   7.5888393  24.1025757  74.0610964
   8.0224900  24.0101046  74.9094018   8.3019974  24.0783257  73.4230980
   1.3216288  27.7027851  75.5944065   1.3753311  28.2718787  76.3621780
   0.4531070  27.8729736  75.2298102   8.4503943  24.1449457  76.5943849
   8.6439833  25.0495268  76.8403124   8.3504561  23.6856876  77.4282434
   3.5119052  24.2956200  82.1684730   3.3604558  24.0666752  81.2514814
   3.5023731  25.2526801  82.1816075   3.5657127  22.6176414  62.5855431
   2.9486297  21.8923242  62.4888484   3.0973615  23.3785774  62.2422506
   5.2211258  27.3275323  80.2461212   5.1623805  26.6434543  79.5791795
   5.6230777  28.0694313  79.7941838   5.2228666  25.2914906  78.4775192
   4.3355444  24.9540828  78.6001590   5.7927217  24.5597938  78.7143957
   9.7046006  20.7023124  73.2391753   9.6935882  21.5847839  72.8685686
   8.8363386  20.3494675  73.0446290   1.2128503  29.8503193  77.5994593
   1.9256475  30.4850658  77.5270495   0.7218531  29.9467059  76.7834595
   2.9346029  23.7554446  69.1711885   2.0002308  23.8755908  69.0016589
   3.1122698  22.8526912  68.9071895   6.3218581  19.5971765  69.7061919
   6.7879033  20.4299756  69.6322222   6.7726081  19.1316746  70.4107178
   4.3894812  25.9415586  66.7048071   4.6654656  25.8272181  67.6141945
   3.5199311  25.5433071  66.6660244   4.0641702  20.1542244  76.2452715
   3.4113152  20.4018151  75.5905167   4.4422082  19.3406382  75.9115192
   1.0248876  30.1901937  70.3480885   1.2071270  29.3723593  70.8108637
   1.8481862  30.4069629  69.9105775   1.3591041  29.1170122  67.6095933
   1.8878808  28.6062577  66.9966095   1.6219261  28.8012652  68.4741466
   3.7062932  27.0290240  82.8225022   4.2502836  27.6420198  82.3279977
   3.1249777  27.5869818  83.3392035   1.9920445  30.1510958  73.9540050
   1.8671585  29.3500698  73.4450995   2.6499536  30.6457151  73.4654020
   4.0555354  27.9519978  75.5819600   3.1085689  27.8325329  75.5097927
   4.4038127  27.0642476  75.6645861   1.0601787  27.7472694  71.7823952
   0.9126749  26.8189402  71.9631522   1.8855280  27.7692785  71.2981027
   4.6635909  28.5701253  72.8688825   5.5882456  28.3644114  72.7313276
   4.4951212  28.3217654  73.7778166   4.4531225  29.0886920  68.2250916
   4.6268102  28.5233343  67.4724769   4.9460116  29.8887815  68.0430406
  10.3070616  21.8523343  69.8441216  10.7501762  21.1030668  69.4460339
   9.4297126  21.8433480  69.4614948   5.4406397  28.4053685  65.3247815
   6.1357302  29.0260377  65.5435129   5.7829548  27.5549036  65.6000192
   7.3397821  25.8553390  66.8535145   7.8649145  26.1940663  66.1284465
   7.2520173  24.9200406  66.6698280   7.0291727  26.4886294  82.1586343
   6.2387270  26.4710433  81.6190843   6.7925081  27.0274588  82.9135380
   7.1489602  23.3378760  79.4719072   7.1987607  23.1728768  80.4134595
   7.0403525  22.4706019  79.0816953   4.4393364  19.3209688  80.7878379
   5.3403227  19.1816153  80.4962376   4.5141339  19.4864143  81.7276556
   8.6507799  25.7575702  79.7161093   8.3592607  26.1205682  80.5524554
   8.0379930  25.0442710  79.5374425   9.8503481  23.3228582  72.2363664
  10.6850372  23.7618386  72.4001224   9.9862610  22.8467235  71.4171909
   6.8994987  20.8808316  78.1841151   7.3749108  21.0735963  77.3760003
   5.9760552  20.9367502  77.9384535   5.5996656  17.7574076  76.4169457
   6.5514079  17.8572174  76.4381681   5.4300106  16.9652345  76.9267541
   2.7518526  28.7952587  65.3631490   3.6849199  28.7298148  65.5664366
   2.6641739  29.6308853  64.9046023   5.3806542  28.1118457  62.3235438
   5.3020174  27.7778320  63.2171196   6.2016209  28.6040225  62.3226910
   8.0784734  20.9780196  75.5311757   8.0461054  20.0396197  75.7171440
   8.6885357  21.0564233  74.7977582   8.2279222  17.7691240  75.5770040
   7.7118271  16.9849696  75.3899969   9.1119171  17.4409956  75.7416559
  13.8961283  22.0396203  74.6717793  14.6264672  21.7781491  75.2325497
  13.2868229  21.3024925  74.7119861  11.9776581  20.1804066  75.2692245
  11.2509744  20.0460031  74.6608736  11.5623867  20.4880894  76.0748963
   3.8067281  15.6641778  67.8497396   2.9193136  15.9491428  67.6317591
   4.2221270  15.5035541  67.0024673   7.1581817  15.6888299  71.5651736
   7.9342207  16.1784751  71.8376352   6.4329951  16.1146353  72.0223605
   9.5954375  16.4015918  72.6225676  10.1898866  16.1611654  71.9118984
   9.6680959  15.6823048  73.2499213   2.9510494  25.4286452  61.9445416
   3.6546344  25.6336455  62.5603072   2.2273143  25.9963214  62.2094500
   3.7808304  21.1796314  68.0647687   3.7243506  21.6364865  67.2255319
   4.3336647  20.4186998  67.8870529   7.5913110  16.9686045  68.8897806
   7.3350045  16.5682681  69.7206014   6.9665978  17.6829839  68.7647945
  11.9025448  19.7082119  71.3969097  11.3425006  19.7775308  72.1700659
  11.2968952  19.5323103  70.6768594   4.8597192  25.8668981  63.9943876
   5.6942795  25.4350180  63.8121351   4.6981534  25.6950995  64.9220771
   4.5143084  22.3701095  65.3600216   4.4591888  22.2045366  64.4188660
   3.8889139  23.0777128  65.5162405   1.8288991  24.6750007  84.6853778
   2.6980151  24.8490659  84.3240413   1.3495742  25.4944423  84.5629508
  13.4881467  36.3838633  74.0899053  14.1259877  36.2645380  73.3862393
  13.3702310  37.3319477  74.1487005  10.2971173  36.3366061  74.0260578
   9.9589684  36.2207125  73.1381113  11.1660941  35.9357226  74.0061584
   6.1557989  38.1901537  70.0157469   5.5922854  38.0991474  69.2473757
   6.0410384  37.3701442  70.4959961  10.7790956  37.4900912  79.9846783
  10.7679597  37.0953711  79.1127287  10.9411595  36.7566985  80.5780555
   3.7022421  39.6852729  72.8541689   4.4943712  39.3443553  72.4387989
   3.9419071  39.7947704  73.7743843  11.7357547  41.8572505  65.3271934
  11.0845527  42.4426585  64.9405947  12.5301910  42.3878700  65.3866971
   5.6613174  38.9461642  65.7259068   6.4344050  38.3990629  65.5871944
   6.0138573  39.8105891  65.9373529   7.4998217  40.2738024  78.9325967
   7.2088083  41.1783655  78.8172634   8.1355201  40.3154552  79.6470037
   8.4254424  37.6514873  75.5227327   9.0217996  37.4270895  74.8084290
   8.4829395  36.9099618  76.1252775   7.9979452  35.1054308  63.3577518
   8.2504973  34.5835829  62.5960981   7.0604011  34.9420453  63.4604202
  13.0422735  34.1090086  71.1652261  13.8285824  33.6909510  70.8142678
  13.3061439  35.0136179  71.3333910  13.2132812  39.5462937  65.8640918
  12.5778645  39.6197563  66.5761823  12.8830219  40.1356536  65.1859997
  18.4431162  34.0465320  72.0685240  19.1756334  33.4764536  72.3023069
  17.6870518  33.6586920  72.5091745   7.7175741  37.0082414  65.5601893
   7.6011999  36.3327317  66.2282977   7.8278001  36.5214788  64.7434046
  10.0607282  36.4692561  69.2648582   9.6965489  35.9423182  69.9761504
  10.9174398  36.0791030  69.0915068  15.9656583  27.7586894  76.5279848
  15.6339907  28.6282305  76.3041063  15.3702196  27.4423178  77.2073879
   9.7012769  31.4982461  64.2609931   9.8687171  32.3662697  64.6280402
   9.5109938  31.6609743  63.3371220  12.4588102  39.9599440  75.9275761
  12.1588825  40.8624479  75.8191568  12.1139162  39.6931623  76.7796914
   5.9100584  36.4113237  71.9612465   4.9851080  36.2789451  72.1690157
   6.1584997  37.1907456  72.4582408  15.8585246  32.4781980  73.6073198
  14.9502123  32.4097388  73.3131959  15.8072842  32.9553925  74.4355024
   9.6801990  33.9540118  65.2456597   9.5601615  34.3997169  66.0842078
   8.9854578  34.3025436  64.6870136   3.2709395  36.0546510  72.7956255
   3.4001776  36.3080989  73.7095666   2.5906846  36.6474218  72.4760910
   7.4408882  46.7243760  68.8946729   7.3632912  47.6751585  68.9735209
   6.8370526  46.3789633  69.5521655   9.9326112  33.8971625  81.5508096
   9.1559446  34.4565546  81.5410960  10.5716675  34.3828408  82.0722966
  17.7246892  30.6798418  75.3851072  17.0821273  30.9730951  74.7390867
  17.2201821  30.5651339  76.1904269  15.3787056  34.4261591  66.0736932
  16.2904912  34.6588978  65.8984629  14.8696703  35.0098636  65.5112010
   8.1872484  36.7057079  81.1126063   8.9287168  37.2442123  80.8360886
   7.4809469  37.3323368  81.2697614  13.6627824  38.8486219  79.7098224
  14.0711180  38.4068630  78.9652856  12.9405085  38.2738847  79.9632417
  10.0158894  33.7858826  77.0831781  10.8620089  34.2098240  77.2266430
   9.9557531  33.1292450  77.7770344  13.9856638  39.4087410  73.4650513
  13.3565501  39.5733124  72.7626581  13.5982300  39.8229019  74.2361477
  17.8645870  40.3441848  70.8194877  17.1796908  40.7240749  70.2691910
  17.9489719  40.9537174  71.5526825  13.1658339  31.4463194  78.7412955
  12.9219271  32.2005255  78.2047230  13.4418270  31.8248542  79.5760202
  15.1196802  37.9901807  77.4190220  15.3313697  38.6333567  76.7424601
  15.0726550  37.1564123  76.9512150  12.7223031  30.6019627  74.3226792
  11.8607510  30.9000881  74.6143530  12.7485465  30.8190026  73.3907825
   9.5384600  39.1461818  70.7300598  10.0022946  39.4249521  69.9405221
   9.2741398  38.2445263  70.5473689   6.4308681  38.6933300  73.6680361
   7.0010038  39.1220568  73.0297846   7.0216793  38.4115884  74.3664547
   8.4753486  35.2684970  67.5390163   9.1777530  35.7206014  68.0064090
   8.1434115  34.6268789  68.1670056   6.9233848  33.8596727  81.9141373
   6.2932508  34.5413008  82.1476769   6.8169936  33.7479809  80.9694511
   2.2178820  33.5268523  72.8407297   1.4277874  33.7826052  72.3647407
   2.7090068  34.3416861  72.9459337  16.2342630  40.8673762  75.5912578
  17.0560073  40.4653950  75.3095259  16.2305033  40.7641996  76.5428693
   4.1693566  33.8913102  69.7990774   3.3724729  34.0031797  70.3174269
   3.9419158  34.2299755  68.9331664   9.9999233  40.4157806  77.7473288
  10.0643666  40.8778213  78.5831460   9.2910157  39.7855170  77.8755598
   0.5016523  33.7799013  75.2722288   0.7524562  34.6646023  75.5379864
   1.0376072  33.6003615  74.4997379  24.3248623  37.2112511  71.9397549
  23.5712331  36.6419909  71.7841554  24.4596164  37.1775175  72.8868184
   9.7147251  42.0825913  67.6152268   9.5792926  42.9277449  68.0437116
  10.2557063  42.2845191  66.8518202   6.2014590  28.1617493  84.2766624
   5.8081536  27.6083691  84.9514268   7.0180731  28.4728071  84.6673141
   3.1676648  39.6001351  68.1880194   3.6801169  40.3944601  68.3385758
   3.8199361  38.9027641  68.1213795   4.9771533  42.7167107  70.2702947
   5.1538161  43.6385072  70.0823931   5.7728366  42.4025527  70.6997327
   9.1182551  29.5775372  81.8686880   9.8592265  30.1782525  81.7891343
   9.3500474  28.8353010  81.3104923   4.2623889  34.7631739  80.1465110
   4.1477405  33.8616996  80.4472209   3.4068407  35.0095436  79.7949926
  11.3415727  42.7049480  81.7452611  10.8979581  41.9185858  81.4273515
  12.0032941  42.8928630  81.0796501   6.1002848  44.2345281  76.2713289
   6.6510274  44.1062344  75.4990283   5.2614324  44.5340170  75.9208182
  13.4396965  42.9852279  79.7734012  13.4215441  43.8061160  79.2814281
  14.3616885  42.8606355  79.9984153   9.8970019  40.4996409  80.6157520
  10.4298356  39.7384697  80.3856828   9.3684101  40.2070061  81.3581675
  13.0639714  25.6056475  76.1451162  12.7203984  26.4958117  76.0690273
  13.4318677  25.4158133  75.2820747   1.1325565  37.9290005  68.9639764
   1.9700787  38.3387014  68.7473472   1.3103833  36.9889448  68.9339958
  13.0289997  35.5965086  64.6523597  12.5136621  36.3669691  64.8911984
  12.7567306  34.9230222  65.2756658  10.6137108  30.4414787  69.7108835
   9.7578704  30.0521637  69.5314474  11.0264060  30.5206748  68.8508621
  12.1436255  27.9761130  74.1100395  11.6401050  27.9391265  73.2968200
  12.4366862  28.8853873  74.1697052   8.3879141  28.0599860  73.1166577
   9.2532137  27.8642668  72.7572466   8.4556650  27.8310212  74.0435934
  18.0024271  38.3497441  66.5876771  17.2253714  38.0108600  66.1431933
  18.6815752  38.3550064  65.9131736  12.8176300  33.4692178  66.4783378
  12.5126436  33.7838327  67.3293521  13.7706742  33.5473598  66.5210711
  11.2622732  39.6282401  68.1276332  10.7344094  38.8935161  67.8149570
  10.7610235  40.4057078  67.8816301  16.2415578  37.8231422  73.2443379
  15.5839253  38.5130683  73.3323507  17.0455977  38.2127854  73.5877365
   5.9941460  30.2902068  70.4882944   6.5685212  30.0677249  69.7556137
   6.5812442  30.3590762  71.2411545  15.0521037  36.1775795  71.2947320
  15.5652919  36.8105786  71.7969030  15.7022261  35.5776990  70.9290680
   6.3211047  32.3206529  64.5078829   5.4848359  32.6581215  64.8288104
   6.1815817  32.1855509  63.5705966   8.2964127  27.1643317  69.2158013
   7.6428540  26.8492334  68.5914628   8.2544602  26.5419057  69.9417836
   9.4075332  37.4462612  61.1311305   8.5002394  37.2151865  61.3302454
   9.9046364  36.6500231  61.3185287  12.3143411  46.1560119  64.0507991
  11.6405110  46.4591816  64.6592949  12.7009233  46.9589199  63.7013448
  11.5301868  33.6525250  73.5405661  10.6124429  33.8740197  73.3827349
  11.9462011  33.7271561  72.6817368  12.3136916  35.0516666  68.6708341
  13.0608735  35.5638063  68.3615463  12.5828505  34.7300719  69.5312735
  10.5863566  37.5475207  65.6535295   9.6774785  37.2634239  65.7507765
  10.6158650  37.9674285  64.7938602  15.8182833  41.1581796  69.4226463
  15.3645160  40.3172706  69.4791653  15.1876800  41.7943194  69.7601243
  14.7615753  32.0873782  70.6527130  14.0238510  31.5751168  70.9837373
  15.0142526  31.6474164  69.8410407  14.2615772  42.9958293  70.3576281
  14.5538747  43.5563350  69.6388647  14.7714393  43.2886854  71.1129440
  14.8627380  24.8650034  71.2468900  15.1686257  24.0047398  70.9594815
  15.5879985  25.4567654  71.0467894   1.1551736  35.2680721  69.6350498
   0.9576136  34.6750081  68.9101564   0.5998400  34.9632931  70.3526436
   9.1348460  35.1603827  71.7545091   9.1897070  34.2077664  71.6787567
   8.3239662  35.3163266  72.2386389  10.2839654  39.0883950  62.9923374
   9.8459083  38.3719809  62.5329011  11.0250094  39.3160065  62.4308465
   7.0740820  33.7780887  69.5135470   6.2608685  34.0775057  69.9200662
   7.5699814  33.3836576  70.2309952   9.2249398  43.7738644  71.4469734
   9.1825576  43.9999490  70.5178266  10.1412096  43.5402018  71.5955535
  12.6715031  34.2422711  78.3450363  13.0264419  34.4694185  79.2044829
  13.3187163  34.5741088  77.7227619  18.4012768  37.3641147  69.0499692
  18.2630667  37.5542743  68.1220882  18.0448987  38.1260530  69.5067744
   6.5654894  31.3499242  75.1296704   7.2054274  31.2088002  74.4319668
   5.7332425  31.0633756  74.7535306  18.4282148  39.4317674  74.0610964
  18.8618655  39.3392963  74.9094018  19.1413729  39.4075175  73.4230980
   7.3415198  40.6501673  71.2431697   8.1355797  40.1551993  71.0414272
   6.6306891  40.1219536  70.8799403  12.1610043  43.0319768  75.5944065
  12.2147065  43.6010705  76.3621780  11.2924824  43.2021653  75.2298102
   3.6497962  34.7944755  67.3191450   2.7195550  34.7329210  67.5361412
   3.7455434  34.2720707  66.5228091   3.5683511  31.3199567  69.9069691
   3.8290328  32.2344901  69.7978852   4.3900683  30.8524010  70.0566304
   5.0408436  32.7337325  77.0768516   5.7131490  32.5254687  76.4281165
   4.2138223  32.5359411  76.6373748  19.2897698  39.4741375  76.5943849
  19.4833588  40.3787185  76.8403124  19.1898316  39.0148794  77.4282434
  10.9434008  29.3599265  79.0934177  10.2961923  30.0589215  78.9998653
  11.7135024  29.7935409  79.4610425  14.3512806  39.6248118  82.1684730
  14.1998313  39.3958669  81.2514814  14.3417486  40.5818719  82.1816075
  11.1198143  37.1980030  77.1530996  12.0490203  37.3491190  76.9799964
  10.6989173  37.2864051  76.2979643   9.9186474  41.2230695  74.9229534
   9.7797560  40.8549479  75.7955472   9.1301071  41.7378334  74.7513492
  10.5134626  46.3239791  66.2655071  10.6886382  45.8527834  67.0800693
   9.8267414  46.9505557  66.4936331  11.4691690  40.6012298  72.3118372
  11.1341522  40.5613067  73.2076022  10.9695635  39.9357013  71.8388782
   5.4435933  36.0079928  77.8370953   5.3055731  35.2760166  78.4382492
   6.3540857  35.9188828  77.5555141  14.4050881  37.9468332  62.5855431
  13.7880052  37.2215160  62.4888484  13.9367370  38.7077692  62.2422506
   8.0718234  35.7199887  77.3254633   8.7817853  35.0793079  77.2841251
   8.0287542  35.9712782  78.2480813  16.0605013  42.6567240  80.2461212
  16.0017559  41.9726460  79.5791795  16.4624531  43.3986230  79.7941838
   6.7847168  32.7065105  79.1450272   6.2484525  32.2555843  79.7971868
   6.1963877  32.8411014  78.4020736   5.0795712  49.4729154  73.0394931
   5.3192310  50.1047678  73.7173949   4.2364908  49.1217194  73.3260290
   6.1949427  32.1653756  61.7076736   5.3178893  32.0442557  61.3438982
   6.6707180  31.3739834  61.4555624  16.0622420  40.6206824  78.4775192
  15.1749199  40.2832746  78.6001590  16.6320971  39.8889855  78.7143957
   2.5186289  31.8421112  76.2303267   2.4344478  31.2346782  75.4953677
   1.6968996  32.3330131  76.2312763   9.5923574  45.2808276  75.4436435
   9.5193745  46.0863248  75.9555739   9.1500967  45.4800242  74.6184456
   9.3813353  44.5180047  68.9539256   8.5980875  45.0601727  69.0477481
  10.0806098  45.0354026  69.3533497  12.6910003  30.3274676  71.5973462
  13.1878703  29.5744638  71.2774532  11.9196985  30.3638993  71.0316671
  20.5439761  36.0315042  73.2391753  20.5329637  36.9139757  72.8685686
  19.6757140  35.6786592  73.0446290  12.0522257  45.1795111  77.5994593
  12.7650229  45.8142575  77.5270495  11.5612286  45.2758977  76.7834595
  13.7739784  39.0846363  69.1711885  12.8396063  39.2047826  69.0016589
  13.9516452  38.1818830  68.9071895   9.2744972  32.4692059  71.3245146
   8.9042760  31.9163099  72.0126052   9.7704064  31.8650192  70.7720146
  17.1612335  34.9263682  69.7061919  17.6272787  35.7591674  69.6322222
  17.6119836  34.4608664  70.4107178   7.1034171  42.9289554  78.4200164
   7.8043630  43.5626037  78.5729558   6.6329286  43.2704286  77.6595803
  15.2288566  41.2707504  66.7048071  15.5048410  41.1564098  67.6141945
  14.3593065  40.8724989  66.6660244  15.1328998  27.2944269  73.7452821
  14.2192078  27.5248496  73.9135027  15.5622099  27.3782714  74.5966853
  14.9035457  35.4834161  76.2452715  14.2506907  35.7310069  75.5905167
  15.2815836  34.6698300  75.9115192  11.8642630  45.5193855  70.3480885
  12.0465025  44.7015511  70.8108637  12.6875616  45.7361547  69.9105775
  12.1984796  44.4462040  67.6095933  12.7272562  43.9354494  66.9966095
  12.4613015  44.1304570  68.4741466  10.9523030  36.2253972  82.7318752
  10.2763667  36.1248102  83.4021127  11.7750663  36.0693186  83.1954749
   2.7001889  42.4625909  75.3531267   3.2855325  41.7169597  75.4859171
   2.5026727  42.7729866  76.2367931   5.5540544  45.4977156  70.3693709
   4.8850919  45.9823284  69.8857749   5.4153414  45.7446377  71.2837088
   9.6945812  47.5320900  76.9676368  10.2464120  47.6952521  77.7325453
  10.0352006  48.1225338  76.2956392   4.6710306  29.8796050  77.5698252
   4.7351632  30.7410881  77.1575650   4.6077426  29.2670051  76.8370611
   4.1462578  31.9519182  81.2171287   4.7734617  31.5696260  81.8308811
   3.2890497  31.7333384  81.5826979  14.5456687  42.3582157  82.8225022
  15.0896591  42.9712116  82.3279977  13.9643532  42.9161736  83.3392035
  12.8314200  45.4802875  73.9540050  12.7065339  44.6792615  73.4450995
  13.4893291  45.9749069  73.4654020   4.4522368  31.8351608  73.1317190
   3.7308954  32.4487576  72.9924663   5.2415624  32.3709373  73.0533836
  14.8949108  43.2811896  75.5819600  13.9479444  43.1617247  75.5097927
  15.2431881  42.3934394  75.6645861   7.2548681  29.1706034  79.4057842
   7.7783083  29.4168331  80.1684151   7.0361015  30.0026069  78.9860979
   2.6515963  31.4409709  67.2728967   2.3228669  30.5607088  67.0904072
   3.0055333  31.3857378  68.1605356  11.8995541  43.0764612  71.7823952
  11.7520504  42.1481319  71.9631522  12.7249035  43.0984702  71.2981027
   5.7657786  31.7282679  67.6404444   6.1053858  32.2568600  66.9183053
   6.2129906  32.0663085  68.4163011  15.5029663  43.8993170  72.8688825
  16.4276211  43.6936032  72.7313276  15.3344967  43.6509572  73.7778166
   8.4601227  30.1119730  77.0907512   8.1198047  29.3127543  77.4928192
   7.7540233  30.4121440  76.5184345   9.1117698  27.1969042  75.5434835
   9.9343768  26.7229520  75.4213726   9.3555762  27.9759526  76.0433522
   7.7525933  30.2257300  65.8397737   8.4734295  30.6038553  65.3361454
   7.1291237  30.9446177  65.9432715  11.8957056  30.9302449  66.7756069
  12.1120670  31.8127087  66.4744898  11.4151123  30.5388663  66.0461711
   6.6356277  33.8888163  73.3526814   6.4900858  34.2028466  74.2451095
   6.1581481  34.5073063  72.7997713   8.4952660  30.8790711  73.4007703
   8.4814229  29.9831804  73.0640001   9.2125088  30.8861374  74.0345990
  10.3478791  31.3128051  75.4460831  10.0896569  32.2345121  75.4445161
   9.8163831  30.9158485  76.1361295  15.2924979  44.4178838  68.2250916
  15.4661857  43.8525260  67.4724769  15.7853871  45.2179733  68.0430406
   1.1101939  36.4293507  76.2914475   0.5655407  37.2053315  76.4234749
   1.9881289  36.7764312  76.1333597   7.8989556  29.7605091  68.6695274
   8.0205467  28.8321737  68.8686161   7.6091598  29.7743777  67.7573589
  10.7680746  27.4460001  71.8061993  10.7902443  27.5099334  70.8513973
  11.1848805  26.6064510  72.0002500  21.1464371  37.1815261  69.8441216
  21.5895517  36.4322586  69.4460339  20.2690881  37.1725397  69.4614948
  16.2800152  43.7345602  65.3247815  16.9751057  44.3552295  65.5435129
  16.6223302  42.8840954  65.6000192   1.8967961  35.5563403  79.1844632
   1.1549697  35.7046039  79.7709262   1.5760705  35.8171669  78.3211381
  18.1791575  41.1845308  66.8535145  18.7042899  41.5232581  66.1284465
  18.0913928  40.2492323  66.6698280   9.8411624  45.0979382  78.9825022
  10.1498750  44.8528528  79.8547722  10.6387106  45.3026020  78.4943892
   9.8632236  47.2517291  71.2130399   9.4237226  46.7593670  71.9063255
  10.6140353  46.7090259  70.9722474   2.3424575  43.4428832  71.2155027
   3.1682595  43.1432604  70.8353670   1.9918627  42.6736454  71.6644815
   7.3106108  42.7955300  73.2852700   6.6886117  42.1326005  72.9854928
   7.9810975  42.8216432  72.6026348   7.3830635  31.2737088  82.8785206
   7.4318791  32.1499211  82.4962976   7.9253150  30.7314481  82.3056849
  17.8685481  41.8178212  82.1586343  17.0781025  41.8002350  81.6190843
  17.6318836  42.3566505  82.9135380  17.9883356  38.6670678  79.4719072
  18.0381361  38.5020685  80.4134595  17.8797280  37.7997937  79.0816953
   6.8719615  41.3459224  66.7611161   7.0207735  42.0294688  66.1077833
   7.6786058  41.3264314  67.2760616  15.2787119  34.6501606  80.7878379
  16.1796981  34.5108071  80.4962376  15.3535093  34.8156061  81.7276556
   9.6129924  32.0268461  79.6331565   8.7433233  32.3202027  79.3614153
   9.8489404  32.6108906  80.3538829  19.4901553  41.0867619  79.7161093
  19.1986361  41.4497600  80.5524554  18.8773684  40.3734628  79.5374425
  20.6897235  38.6520499  72.2363664  21.5244127  39.0910303  72.4001224
  20.8256364  38.1759152  71.4171909  17.7388741  36.2100234  78.1841151
  18.2142863  36.4027880  77.3760003  16.8154307  36.2659420  77.9384535
   4.6272248  37.3724401  67.7672230   4.3818290  36.4686731  67.9652440
   4.7968162  37.3741552  66.8251708  12.3168958  28.2448078  77.1496985
  12.8350902  28.9809105  76.8243474  11.9624090  28.5512071  77.9843744
   3.8967895  33.1052759  65.2658391   3.2037140  33.1797114  64.6098427
   3.6519647  32.3413102  65.7879908  12.5681552  24.6648360  72.6697882
  12.8483306  23.9971549  73.2958308  13.3532159  24.8577456  72.1572546
  10.3715020  43.8407354  64.2322908   9.7988987  44.4597541  63.7793380
  10.9447814  44.3906716  64.7662830  16.4390410  33.0865994  76.4169457
  17.3907833  33.1864092  76.4381681  16.2693861  32.2944263  76.9267541
  14.4604790  30.1721577  76.6028858  13.8654722  30.4526590  75.9075347
  14.1754486  30.6615478  77.3745599  13.5912280  44.1244504  65.3631490
  14.5242953  44.0590066  65.5664366  13.5035493  44.9600771  64.9046023
  16.2200297  43.4410375  62.3235438  16.1413928  43.1070238  63.2171196
  17.0409964  43.9332142  62.3226910  18.9178488  36.3072114  75.5311757
  18.8854808  35.3688115  75.7171440  19.5279112  36.3856151  74.7977582
  10.7561819  35.1768167  61.5738961  11.7020924  35.0474375  61.6427379
  10.3776064  34.4382829  62.0508389  19.0672977  33.0983157  75.5770040
  18.5512025  32.3141614  75.3899969  19.9512925  32.7701874  75.7416559
  16.7283703  26.8424173  71.5365852  16.5308525  26.5339261  72.4209184
  17.3383409  27.5685812  71.6663782  24.7355038  37.3688121  74.6717793
  25.4658426  37.1073409  75.2325497  24.1261983  36.6316843  74.7119861
  22.8170335  35.5095983  75.2692245  22.0903499  35.3751948  74.6608736
  22.4017622  35.8172812  76.0748963  10.6400511  39.2285913  83.0339618
  11.5603521  39.4064512  83.2279664  10.6050094  38.2841958  82.8819317
   8.9404736  33.1018143  61.5093846   8.0336191  32.8051256  61.5856560
   9.2180717  32.8047961  60.6428132   3.6362584  37.1386948  75.6762399
   3.8548594  38.0704055  75.6950433   4.0488358  36.7794922  76.4617203
  10.5566802  27.6455033  67.6638087   9.7467530  27.3002118  68.0393333
  11.2451219  27.3362577  68.2525699  12.4857350  26.7233080  69.2862384
  13.0388389  27.1428533  69.9452407  12.7227436  25.7968828  69.3285340
   8.5090449  32.7120153  85.0665148   8.4087176  33.6614510  84.9977239
   8.2911991  32.3838392  84.1941218   7.7103521  29.9605078  61.6505825
   8.5722685  30.2859977  61.9101642   7.8953865  29.1736574  61.1378891
  15.8636157  28.8333605  68.7941048  15.2834826  29.4918409  68.4119101
  15.5972090  28.0110949  68.3828466  14.3139724  28.2338663  70.9962368
  14.8139502  28.3455197  70.1876687  14.9575331  27.9299715  71.6363177
   8.3721719  36.1417292  83.8830209   7.8888801  36.9417652  84.0894098
   8.4582658  36.1525237  82.9297653   1.6407679  37.9745672  71.8052029
   1.6178367  38.0733359  70.8533912   1.9508315  38.8210823  72.1269195
   4.2995057  40.0321827  75.9198643   5.2538310  40.0005769  75.8528575
   4.1007580  39.5712451  76.7348869   4.8894439  38.6022943  78.4869441
   5.7087328  39.0967022  78.5104278   5.1631247  37.6854911  78.4587008
  14.6461035  30.9933695  67.8497396  13.7586890  31.2783346  67.6317591
  15.0615024  30.8327459  67.0024673  17.9975571  31.0180216  71.5651736
  18.7735961  31.5076669  71.8376352  17.2723705  31.4438270  72.0223605
  20.4348130  31.7307835  72.6225676  21.0292621  31.4903571  71.9118984
  20.5074714  31.0114966  73.2499213   2.6545286  45.5741446  72.9368841
   2.5199754  44.8141847  72.3706839   2.2377348  46.2982346  72.4697630
  13.7904249  40.7578370  61.9445416  14.4940099  40.9628372  62.5603072
  13.0666897  41.3255132  62.2094500  14.6202059  36.5088231  68.0647687
  14.5637260  36.9656783  67.2255319  15.1730401  35.7478916  67.8870529
  18.4306865  32.2977963  68.8897806  18.1743799  31.8974599  69.7206014
  17.8059733  33.0121757  68.7647945  22.7419203  35.0374036  71.3969097
  22.1818761  35.1067226  72.1700659  22.1362706  34.8615021  70.6768594
   5.8114411  46.4710763  73.1487284   5.6946796  47.4156196  73.0465974
   4.9906858  46.1684325  73.5373083  15.6990946  41.1960899  63.9943876
  16.5336550  40.7642098  63.8121351  15.5375289  41.0242913  64.9220771
  15.3536838  37.6993012  65.3600216  15.2985642  37.5337284  64.4188660
  14.7282893  38.4069045  65.5162405  12.6682745  40.0041924  84.6853778
  13.5373905  40.1782577  84.3240413  12.1889497  40.8236341  84.5629508
   8.6632964  27.2001121  64.9385534   8.6511633  28.1442961  65.0953805
   9.5556386  27.0171267  64.6444995   6.8368926  47.1239025  76.3643212
   7.7396172  47.1562636  76.6809707   6.6106296  46.1939476  76.3789548
   8.5922528  45.8770012  73.0253291   7.6418159  45.8771873  72.9117663
   8.8955014  45.1302746  72.5089325  12.4785083  23.7943898  69.1931471
  11.7117479  23.2402385  69.3388153  12.8895788  23.8665767  70.0545623
   4.4826844  30.0828694  83.2836652   5.3458306  29.7265499  83.4939977
   3.9092255  29.7442589  83.9712056  24.3275221  51.7130550  74.0899053
  24.9653631  51.5937298  73.3862393  24.2096064  52.6611394  74.1487005
  21.1364927  51.6657978  74.0260578  20.7983439  51.5499043  73.1381113
  22.0054696  51.2649143  74.0061584  16.9951743  53.5193455  70.0157469
  16.4316608  53.4283392  69.2473757  16.8804138  52.6993359  70.4959961
  21.6184710  52.8192830  79.9846783  21.6073351  52.4245628  79.1127287
  21.7805350  52.0858903  80.5780555  14.5416175  55.0144646  72.8541689
  15.3337467  54.6735471  72.4387989  14.7812825  55.1239621  73.7743843
  22.5751302  57.1864422  65.3271934  21.9239282  57.7718503  64.9405947
  23.3695665  57.7170617  65.3866971  16.5006929  54.2753560  65.7259068
  17.2737805  53.7282547  65.5871944  16.8532328  55.1397809  65.9373529
  18.3391972  55.6029942  78.9325967  18.0481838  56.5075573  78.8172634
  18.9748956  55.6446469  79.6470037  19.2648178  52.9806790  75.5227327
  19.8611751  52.7562813  74.8084290  19.3223150  52.2391536  76.1252775
  18.8373207  50.4346226  63.3577518  19.0898727  49.9127747  62.5960981
  17.8997766  50.2712371  63.4604202  23.8816490  49.4382004  71.1652261
  24.6679579  49.0201427  70.8142678  24.1455194  50.3428096  71.3333910
  24.0526567  54.8754854  65.8640918  23.4172400  54.9489481  66.5761823
  23.7223973  55.4648453  65.1859997  29.2824917  49.3757237  72.0685240
  30.0150089  48.8056454  72.3023069  28.5264272  48.9878838  72.5091745
  18.5569496  52.3374332  65.5601893  18.4405754  51.6619235  66.2282977
  18.6671755  51.8506706  64.7434046  20.9001036  51.7984479  69.2648582
  20.5359244  51.2715100  69.9761504  21.7568152  51.4082948  69.0915068
  26.8050337  43.0878811  76.5279848  26.4733662  43.9574222  76.3041063
  26.2095950  42.7715095  77.2073879  20.5406523  46.8274378  64.2609931
  20.7080926  47.6954615  64.6280402  20.3503693  46.9901660  63.3371220
  23.2981857  55.2891357  75.9275761  22.9982580  56.1916396  75.8191568
  22.9532916  55.0223541  76.7796914  16.7494338  51.7405154  71.9612465
  15.8244835  51.6081368  72.1690157  16.9978751  52.5199373  72.4582408
  26.6979000  47.8073898  73.6073198  25.7895878  47.7389306  73.3131959
  26.6466596  48.2845842  74.4355024  20.5195744  49.2832036  65.2456597
  20.3995370  49.7289087  66.0842078  19.8248333  49.6317354  64.6870136
  14.1103149  51.3838428  72.7956255  14.2395530  51.6372907  73.7095666
  13.4300600  51.9766136  72.4760910  18.2802636  62.0535678  68.8946729
  18.2026666  63.0043503  68.9735209  17.6764280  61.7081550  69.5521655
  20.7719866  49.2263543  81.5508096  19.9953200  49.7857463  81.5410960
  21.4110429  49.7120326  82.0722966  28.5640647  46.0090336  75.3851072
  27.9215027  46.3022869  74.7390867  28.0595575  45.8943256  76.1904269
  26.2180810  49.7553509  66.0736932  27.1298667  49.9880896  65.8984629
  25.7090458  50.3390553  65.5112010  19.0266238  52.0348997  81.1126063
  19.7680923  52.5734040  80.8360886  18.3203224  52.6615285  81.2697614
  24.5021578  54.1778137  79.7098224  24.9104934  53.7360548  78.9652856
  23.7798840  53.6030764  79.9632417  20.8552648  49.1150744  77.0831781
  21.7013843  49.5390157  77.2266430  20.7951286  48.4584368  77.7770344
  24.8250393  54.7379328  73.4650513  24.1959255  54.9025042  72.7626581
  24.4376055  55.1520937  74.2361477  28.7039625  55.6733765  70.8194877
  28.0190663  56.0532667  70.2691910  28.7883474  56.2829092  71.5526825
  24.0052094  46.7755112  78.7412955  23.7613025  47.5297173  78.2047230
  24.2812024  47.1540460  79.5760202  25.9590556  53.3193724  77.4190220
  26.1707452  53.9625484  76.7424601  25.9120305  52.4856041  76.9512150
  23.5616785  45.9311545  74.3226792  22.7001264  46.2292799  74.6143530
  23.5879220  46.1481944  73.3907825  20.3778355  54.4753736  70.7300598
  20.8416700  54.7541439  69.9405221  20.1135153  53.5737180  70.5473689
  17.2702436  54.0225217  73.6680361  17.8403793  54.4512486  73.0297846
  17.8610548  53.7407802  74.3664547  19.3147241  50.5976888  67.5390163
  20.0171284  51.0497932  68.0064090  18.9827869  49.9560707  68.1670056
  17.7627602  49.1888645  81.9141373  17.1326263  49.8704926  82.1476769
  17.6563690  49.0771726  80.9694511  13.0572575  48.8560441  72.8407297
  12.2671629  49.1117969  72.3647407  13.5483822  49.6708779  72.9459337
  27.0736384  56.1965680  75.5912578  27.8953828  55.7945867  75.3095259
  27.0698787  56.0933914  76.5428693  15.0087320  49.2205020  69.7990774
  14.2118483  49.3323714  70.3174269  14.7812912  49.5591672  68.9331664
  20.8392988  55.7449723  77.7473288  20.9037420  56.2070130  78.5831460
  20.1303912  55.1147088  77.8755598  11.3410278  49.1090931  75.2722288
  11.5918316  49.9937941  75.5379864  11.8769826  48.9295533  74.4997379
  35.1642377  52.5404428  71.9397549  34.4106086  51.9711826  71.7841554
  35.2989918  52.5067093  72.8868184  20.5541005  57.4117831  67.6152268
  20.4186680  58.2569366  68.0437116  21.0950818  57.6137108  66.8518202
  17.0408345  43.4909411  84.2766624  16.6475291  42.9375609  84.9514268
  17.8574485  43.8019989  84.6673141  14.0070403  54.9293269  68.1880194
  14.5194923  55.7236519  68.3385758  14.6593116  54.2319559  68.1213795
  15.8165287  58.0459025  70.2702947  15.9931916  58.9676990  70.0823931
  16.6122121  57.7317444  70.6997327  19.9576306  44.9067290  81.8686880
  20.6986019  45.5074443  81.7891343  20.1894229  44.1644927  81.3104923
  15.1017644  50.0923657  80.1465110  14.9871159  49.1908914  80.4472209
  14.2462162  50.3387354  79.7949926  22.1809482  58.0341397  81.7452611
  21.7373336  57.2477776  81.4273515  22.8426695  58.2220548  81.0796501
  16.9396603  59.5637199  76.2713289  17.4904028  59.4354262  75.4990283
  16.1008079  59.8632088  75.9208182  24.2790720  58.3144197  79.7734012
  24.2609195  59.1353078  79.2814281  25.2010640  58.1898272  79.9984153
  20.7363774  55.8288327  80.6157520  21.2692111  55.0676615  80.3856828
  20.2077855  55.5361978  81.3581675  23.9033469  40.9348393  76.1451162
  23.5597738  41.8250034  76.0690273  24.2712431  40.7450050  75.2820747
  11.9719320  53.2581923  68.9639764  12.8094542  53.6678931  68.7473472
  12.1497587  52.3181365  68.9339958  23.8683752  50.9257004  64.6523597
  23.3530375  51.6961608  64.8911984  23.5961060  50.2522140  65.2756658
  21.4530863  45.7706704  69.7108835  20.5972459  45.3813555  69.5314474
  21.8657814  45.8498665  68.8508621  22.9830009  43.3053048  74.1100395
  22.4794805  43.2683183  73.2968200  23.2760616  44.2145790  74.1697052
  19.2272895  43.3891777  73.1166577  20.0925892  43.1934586  72.7572466
  19.2950404  43.1602129  74.0435934  28.8418026  53.6789358  66.5876771
  28.0647469  53.3400518  66.1431933  29.5209507  53.6841981  65.9131736
  23.6570055  48.7984096  66.4783378  23.3520190  49.1130245  67.3293521
  24.6100497  48.8765516  66.5210711  22.1016487  54.9574319  68.1276332
  21.5737848  54.2227079  67.8149570  21.6003989  55.7348995  67.8816301
  27.0809333  53.1523340  73.2443379  26.4233007  53.8422601  73.3323507
  27.8849732  53.5419772  73.5877365  16.8335214  45.6193985  70.4882944
  17.4078966  45.3969167  69.7556137  17.4206197  45.6882680  71.2411545
  25.8914791  51.5067712  71.2947320  26.4046673  52.1397704  71.7969030
  26.5416015  50.9068908  70.9290680  17.1604801  47.6498446  64.5078829
  16.3242114  47.9873133  64.8288104  17.0209571  47.5147426  63.5705966
  19.1357882  42.4935234  69.2158013  18.4822294  42.1784251  68.5914628
  19.0938356  41.8710975  69.9417836  20.2469087  52.7754529  61.1311305
  19.3396149  52.5443783  61.3302454  20.7440119  51.9792149  61.3185287
  23.1537166  61.4852037  64.0507991  22.4798864  61.7883733  64.6592949
  23.5402988  62.2881117  63.7013448  22.3695622  48.9817168  73.5405661
  21.4518184  49.2032115  73.3827349  22.7855766  49.0563478  72.6817368
  23.1530670  50.3808583  68.6708341  23.9002489  50.8929981  68.3615463
  23.4222260  50.0592636  69.5312735  21.4257320  52.8767124  65.6535295
  20.5168540  52.5926157  65.7507765  21.4552404  53.2966203  64.7938602
  26.6576588  56.4873714  69.4226463  26.2038915  55.6464624  69.4791653
  26.0270554  57.1235112  69.7601243  25.6009507  47.4165700  70.6527130
  24.8632264  46.9043086  70.9837373  25.8536281  46.9766081  69.8410407
  25.1009527  58.3250210  70.3576281  25.3932501  58.8855268  69.6388647
  25.6108147  58.6178771  71.1129440  25.7021135  40.1941952  71.2468900
  26.0080011  39.3339315  70.9594815  26.4273739  40.7859572  71.0467894
  11.9945491  50.5972638  69.6350498  11.7969890  50.0041999  68.9101564
  11.4392155  50.2924849  70.3526436  19.9742214  50.4895745  71.7545091
  20.0290824  49.5369581  71.6787567  19.1633416  50.6455184  72.2386389
  21.1233408  54.4175868  62.9923374  20.6852838  53.7011727  62.5329011
  21.8643849  54.6451983  62.4308465  17.9134574  49.1072805  69.5135470
  17.1002440  49.4066975  69.9200662  18.4093568  48.7128493  70.2309952
  20.0643152  59.1030561  71.4469734  20.0219331  59.3291408  70.5178266
  20.9805851  58.8693936  71.5955535  23.5108786  49.5714629  78.3450363
  23.8658174  49.7986102  79.2044829  24.1580917  49.9033006  77.7227619
  29.2406523  52.6933065  69.0499692  29.1024421  52.8834661  68.1220882
  28.8842742  53.4552448  69.5067744  17.4048649  46.6791160  75.1296704
  18.0448028  46.5379919  74.4319668  16.5726180  46.3925673  74.7535306
  29.2675902  54.7609592  74.0610964  29.7012409  54.6684881  74.9094018
  29.9807483  54.7367092  73.4230980  18.1808953  55.9793591  71.2431697
  18.9749551  55.4843911  71.0414272  17.4700645  55.4511454  70.8799403
  23.0003797  58.3611686  75.5944065  23.0540820  58.9302622  76.3621780
  22.1318579  58.5313571  75.2298102  14.4891716  50.1236672  67.3191450
  13.5589304  50.0621128  67.5361412  14.5849188  49.6012625  66.5228091
  14.4077265  46.6491485  69.9069691  14.6684083  47.5636818  69.7978852
  15.2294438  46.1815928  70.0566304  15.8802191  48.0629242  77.0768516
  16.5525244  47.8546604  76.4281165  15.0531977  47.8651328  76.6373748
  30.1291452  54.8033293  76.5943849  30.3227342  55.7079103  76.8403124
  30.0292070  54.3440712  77.4282434  21.7827763  44.6891183  79.0934177
  21.1355678  45.3881133  78.9998653  22.5528778  45.1227327  79.4610425
  25.1906561  54.9540035  82.1684730  25.0392067  54.7250587  81.2514814
  25.1811240  55.9110637  82.1816075  21.9591897  52.5271948  77.1530996
  22.8883957  52.6783108  76.9799964  21.5382927  52.6155969  76.2979643
  20.7580229  56.5522612  74.9229534  20.6191315  56.1841397  75.7955472
  19.9694825  57.0670252  74.7513492  21.3528381  61.6531709  66.2655071
  21.5280137  61.1819752  67.0800693  20.6661169  62.2797475  66.4936331
  22.3085444  55.9304215  72.3118372  21.9735277  55.8904985  73.2076022
  21.8089390  55.2648931  71.8388782  16.2829688  51.3371845  77.8370953
  16.1449486  50.6052084  78.4382492  17.1934611  51.2480745  77.5555141
  25.2444636  53.2760250  62.5855431  24.6273806  52.5507078  62.4888484
  24.7761124  54.0369610  62.2422506  18.9111989  51.0491805  77.3254633
  19.6211607  50.4084997  77.2841251  18.8681297  51.3004699  78.2480813
  26.8998767  57.9859158  80.2461212  26.8411313  57.3018378  79.5791795
  27.3018286  58.7278148  79.7941838  17.6240923  48.0357022  79.1450272
  17.0878280  47.5847761  79.7971868  17.0357631  48.1702931  78.4020736
  15.9189466  64.8021072  73.0394931  16.1586064  65.4339596  73.7173949
  15.0758663  64.4509112  73.3260290  17.0343182  47.4945674  61.7076736
  16.1572648  47.3734475  61.3438982  17.5100935  46.7031752  61.4555624
  26.9016175  55.9498742  78.4775192  26.0142953  55.6124664  78.6001590
  27.4714726  55.2181773  78.7143957   8.5545322  52.2822834  71.8018243
   9.2416362  51.9684564  71.2139258   8.3993450  53.1864198  71.5285494
  13.3580044  47.1713030  76.2303267  13.2738233  46.5638700  75.4953677
  12.5362750  47.6622048  76.2312763  20.4317328  60.6100194  75.4436435
  20.3587499  61.4155166  75.9555739  19.9894721  60.8092160  74.6184456
  20.2207108  59.8471964  68.9539256  19.4374630  60.3893644  69.0477481
  20.9199853  60.3645944  69.3533497  23.5303758  45.6566594  71.5973462
  24.0272457  44.9036556  71.2774532  22.7590739  45.6930910  71.0316671
  31.3833515  51.3606959  73.2391753  31.3723391  52.2431675  72.8685686
  30.5150895  51.0078510  73.0446290  22.8916012  60.5087028  77.5994593
  23.6043984  61.1434493  77.5270495  22.4006040  60.6050894  76.7834595
  24.6133538  54.4138281  69.1711885  23.6789817  54.5339743  69.0016589
  24.7910207  53.5110748  68.9071895  20.1138726  47.7983977  71.3245146
  19.7436514  47.2455017  72.0126052  20.6097819  47.1942110  70.7720146
  28.0006090  50.2555600  69.7061919  28.4666542  51.0883592  69.6322222
  28.4513590  49.7900582  70.4107178  17.9427925  58.2581472  78.4200164
  18.6437385  58.8917955  78.5729558  17.4723040  58.5996203  77.6595803
  26.0682321  56.5999421  66.7048071  26.3442165  56.4856016  67.6141945
  25.1986820  56.2016906  66.6660244  25.9722753  42.6236187  73.7452821
  25.0585832  42.8540414  73.9135027  26.4015854  42.7074631  74.5966853
  25.7429211  50.8126079  76.2452715  25.0900661  51.0601987  75.5905167
  26.1209591  49.9990217  75.9115192  22.7036385  60.8485772  70.3480885
  22.8858779  60.0307428  70.8108637  23.5269371  61.0653465  69.9105775
  23.0378550  59.7753957  67.6095933  23.5666317  59.2646412  66.9966095
  23.3006770  59.4596488  68.4741466  21.7916784  51.5545890  82.7318752
  21.1157421  51.4540020  83.4021127  22.6144418  51.3985104  83.1954749
  13.5395643  57.7917827  75.3531267  14.1249080  57.0461515  75.4859171
  13.3420482  58.1021783  76.2367931  16.3934298  60.8269074  70.3693709
  15.7244674  61.3115202  69.8857749  16.2547168  61.0738295  71.2837088
   8.1313298  50.3623427  74.0735710   8.1697397  49.8287018  74.8672828
   7.6253591  49.8358632  73.4546687  20.5339567  62.8612818  76.9676368
  21.0857875  63.0244439  77.7325453  20.8745760  63.4517255  76.2956392
  15.5104060  45.2087967  77.5698252  15.5745387  46.0702798  77.1575650
  15.4471180  44.5961969  76.8370611  14.9856333  47.2811100  81.2171287
  15.6128371  46.8988177  81.8308811  14.1284252  47.0625302  81.5826979
  25.3850441  57.6874075  82.8225022  25.9290345  58.3004033  82.3279977
  24.8037286  58.2453654  83.3392035  11.7621875  49.0887529  67.1489641
  12.0575317  48.1798207  67.0956695  10.8609911  49.0675269  66.8270644
  23.6707954  60.8094793  73.9540050  23.5459094  60.0084533  73.4450995
  24.3287045  61.3040987  73.4654020  15.2916122  47.1643526  73.1317190
  14.5702708  47.7779493  72.9924663  16.0809378  47.7001290  73.0533836
  25.7342863  58.6103813  75.5819600  24.7873198  58.4909164  75.5097927
  26.0825636  57.7226311  75.6645861  18.0942436  44.4997952  79.4057842
  18.6176838  44.7460249  80.1684151  17.8754769  45.3317987  78.9860979
  13.4909717  46.7701627  67.2728967  13.1622423  45.8899006  67.0904072
  13.8449088  46.7149295  68.1605356  22.7389296  58.4056529  71.7823952
  22.5914258  57.4773237  71.9631522  23.5642789  58.4276620  71.2981027
  16.6051540  47.0574597  67.6404444  16.9447613  47.5860518  66.9183053
  17.0523661  47.3955003  68.4163011  26.3423418  59.2285088  72.8688825
  27.2669965  59.0227950  72.7313276  26.1738721  58.9801489  73.7778166
  19.2994981  45.4411647  77.0907512  18.9591801  44.6419460  77.4928192
  18.5933987  45.7413358  76.5184345  19.9511453  42.5260960  75.5434835
  20.7737522  42.0521438  75.4213726  20.1949516  43.3051443  76.0433522
  18.5919687  45.5549218  65.8397737  19.3128050  45.9330471  65.3361454
  17.9684991  46.2738095  65.9432715  22.7350810  46.2594367  66.7756069
  22.9514425  47.1419005  66.4744898  22.2544877  45.8680581  66.0461711
  17.4750032  49.2180080  73.3526814  17.3294612  49.5320383  74.2451095
  16.9975235  49.8364981  72.7997713  19.3346414  46.2082628  73.4007703
  19.3207983  45.3123722  73.0640001  20.0518843  46.2153292  74.0345990
  21.1872545  46.6419969  75.4460831  20.9290323  47.5637039  75.4445161
  20.6557586  46.2450403  76.1361295  26.1318734  59.7470756  68.2250916
  26.3055611  59.1817178  67.4724769  26.6247625  60.5471651  68.0430406
  11.9495694  51.7585425  76.2914475  11.4049162  52.5345233  76.4234749
  12.8275044  52.1056229  76.1333597  18.7383310  45.0897009  68.6695274
  18.8599222  44.1613655  68.8686161  18.4485353  45.1035695  67.7573589
  21.6074501  42.7751919  71.8061993  21.6296198  42.8391252  70.8513973
  22.0242560  41.9356428  72.0002500  31.9858125  52.5107179  69.8441216
  32.4289271  51.7614504  69.4460339  31.1084635  52.5017315  69.4614948
  27.1193906  59.0637520  65.3247815  27.8144811  59.6844213  65.5435129
  27.4617057  58.2132871  65.6000192  12.7361716  50.8855321  79.1844632
  11.9943452  51.0337956  79.7709262  12.4154460  51.1463587  78.3211381
  29.0185330  56.5137226  66.8535145  29.5436654  56.8524498  66.1284465
  28.9307682  55.5784241  66.6698280  20.6805378  60.4271299  78.9825022
  20.9892505  60.1820446  79.8547722  21.4780860  60.6317938  78.4943892
  20.7025990  62.5809209  71.2130399  20.2630981  62.0885588  71.9063255
  21.4534107  62.0382177  70.9722474  13.1818329  58.7720750  71.2155027
  14.0076349  58.4724522  70.8353670  12.8312381  58.0028372  71.6644815
  18.1499862  58.1247218  73.2852700  17.5279872  57.4617923  72.9854928
  18.8204729  58.1508350  72.6026348  11.3826934  56.6907076  72.1743960
  10.5458843  56.2629251  71.9927961  11.3550580  56.8839520  73.1114751
  18.2224390  46.6029006  82.8785206  18.2712545  47.4791129  82.4962976
  18.7646904  46.0606399  82.3056849  28.7079236  57.1470129  82.1586343
  27.9174779  57.1294268  81.6190843  28.4712590  57.6858423  82.9135380
  28.8277111  53.9962596  79.4719072  28.8775116  53.8312603  80.4134595
  28.7191034  53.1289855  79.0816953  17.7113369  56.6751141  66.7611161
  17.8601490  57.3586606  66.1077833  18.5179813  56.6556231  67.2760616
  26.1180873  49.9793524  80.7878379  27.0190736  49.8399988  80.4962376
  26.1928848  50.1447978  81.7276556  20.4523678  47.3560378  79.6331565
  19.5826988  47.6493944  79.3614153  20.6883159  47.9400823  80.3538829
  30.3295307  56.4159537  79.7161093  30.0380116  56.7789518  80.5524554
  29.7167439  55.7026545  79.5374425  31.5290990  53.9812417  72.2363664
  32.3637881  54.4202221  72.4001224  31.6650119  53.5051070  71.4171909
  28.5782496  51.5392152  78.1841151  29.0536617  51.7319798  77.3760003
  27.6548061  51.5951338  77.9384535  15.4666002  52.7016319  67.7672230
  15.2212044  51.7978649  67.9652440  15.6361917  52.7033469  66.8251708
  23.1562712  43.5739995  77.1496985  23.6744656  44.3101022  76.8243474
  22.8017845  43.8803989  77.9843744  14.7361650  48.4344676  65.2658391
  14.0430895  48.5089031  64.6098427  14.4913402  47.6705020  65.7879908
  23.4075306  39.9940278  72.6697882  23.6877060  39.3263467  73.2958308
  24.1925913  40.1869373  72.1572546  21.2108775  59.1699272  64.2322908
  20.6382742  59.7889459  63.7793380  21.7841569  59.7198633  64.7662830
  27.2784165  48.4157912  76.4169457  28.2301588  48.5156009  76.4381681
  27.1087615  47.6236180  76.9267541  25.2998544  45.5013495  76.6028858
  24.7048476  45.7818508  75.9075347  25.0148241  45.9907396  77.3745599
  24.4306035  59.4536422  65.3631490  25.3636708  59.3881984  65.5664366
  24.3429247  60.2892689  64.9046023  27.0594051  58.7702292  62.3235438
  26.9807683  58.4362156  63.2171196  27.8803718  59.2624060  62.3226910
  29.7572243  51.6364032  75.5311757  29.7248563  50.6980032  75.7171440
  30.3672866  51.7148068  74.7977582  21.5955573  50.5060084  61.5738961
  22.5414678  50.3766293  61.6427379  21.2169818  49.7674746  62.0508389
  29.9066731  48.4275075  75.5770040  29.3905780  47.6433532  75.3899969
  30.7906680  48.0993792  75.7416559  27.5677458  42.1716091  71.5365852
  27.3702279  41.8631179  72.4209184  28.1777163  42.8977729  71.6663782
  35.5748792  52.6980038  74.6717793  36.3052181  52.4365326  75.2325497
  34.9655738  51.9608760  74.7119861  33.6564089  50.8387901  75.2692245
  32.9297253  50.7043866  74.6608736  33.2411376  51.1464730  76.0748963
  21.4794266  54.5577831  83.0339618  22.3997275  54.7356430  83.2279664
  21.4443849  53.6133876  82.8819317  19.7798491  48.4310061  61.5093846
  18.8729946  48.1343174  61.5856560  20.0574472  48.1339879  60.6428132
  10.6976431  49.7516424  71.9592892  10.3779215  48.8981732  71.6667266
  10.1509859  49.9665002  72.7150860  14.4756338  52.4678865  75.6762399
  14.6942348  53.3995973  75.6950433  14.8882112  52.1086840  76.4617203
  21.3960556  42.9746951  67.6638087  20.5861285  42.6294036  68.0393333
  22.0844973  42.6654494  68.2525699  23.3251105  42.0524997  69.2862384
  23.8782143  42.4720451  69.9452407  23.5621191  41.1260745  69.3285340
  19.3484204  48.0412071  85.0665148  19.2480931  48.9906428  84.9977239
  19.1305746  47.7130310  84.1941218  18.5497275  45.2896996  61.6505825
  19.4116439  45.6151894  61.9101642  18.7347619  44.5028492  61.1378891
  10.5664691  53.3719336  73.9286014   9.8728162  52.9573289  73.4155968
  11.3137682  53.4139872  73.3319433  26.7029912  44.1625523  68.7941048
  26.1228581  44.8210327  68.4119101  26.4365844  43.3402867  68.3828466
  25.1533478  43.5630580  70.9962368  25.6533256  43.6747115  70.1876687
  25.7969086  43.2591633  71.6363177  19.2115474  51.4709210  83.8830209
  18.7282556  52.2709570  84.0894098  19.2976413  51.4817155  82.9297653
  12.4801433  53.3037590  71.8052029  12.4572122  53.4025277  70.8533912
  12.7902070  54.1502740  72.1269195  15.1388811  55.3613745  75.9198643
  16.0932065  55.3297687  75.8528575  14.9401335  54.9004368  76.7348869
  15.7288193  53.9314861  78.4869441  16.5481082  54.4258939  78.5104278
  16.0025001  53.0146829  78.4587008  25.4854790  46.3225613  67.8497396
  24.5980645  46.6075264  67.6317591  25.9008779  46.1619376  67.0024673
  28.8369326  46.3472134  71.5651736  29.6129716  46.8368586  71.8376352
  28.1117460  46.7730188  72.0223605  31.2741884  47.0599753  72.6225676
  31.8686375  46.8195489  71.9118984  31.3468468  46.3406884  73.2499213
  13.4939040  60.9033364  72.9368841  13.3593508  60.1433765  72.3706839
  13.0771102  61.6274264  72.4697630  24.6298003  56.0870288  61.9445416
  25.3333853  56.2920290  62.5603072  23.9060652  56.6547049  62.2094500
  25.4595813  51.8380149  68.0647687  25.4031015  52.2948700  67.2255319
  26.0124156  51.0770833  67.8870529  29.2700619  47.6269881  68.8897806
  29.0137554  47.2266516  69.7206014  28.6453487  48.3413675  68.7647945
  33.5812957  50.3665954  71.3969097  33.0212515  50.4359143  72.1700659
  32.9756461  50.1906939  70.6768594  16.6508166  61.8002681  73.1487284
  16.5340550  62.7448114  73.0465974  15.8300612  61.4976243  73.5373083
  26.5384701  56.5252817  63.9943876  27.3730304  56.0934015  63.8121351
  26.3769043  56.3534830  64.9220771  26.1930593  53.0284930  65.3600216
  26.1379396  52.8629202  64.4188660  25.5676648  53.7360963  65.5162405
  10.9823108  48.2652994  79.1861638  11.6281971  47.7551948  79.6748863
  10.7740259  49.0021676  79.7605063  23.5076500  55.3333842  84.6853778
  24.3767660  55.5074494  84.3240413  23.0283251  56.1528259  84.5629508
  19.5026718  42.5293039  64.9385534  19.4905388  43.4734879  65.0953805
  20.3950140  42.3463185  64.6444995  17.6762680  62.4530943  76.3643212
  18.5789927  62.4854553  76.6809707  17.4500050  61.5231394  76.3789548
  19.4316282  61.2061930  73.0253291  18.4811913  61.2063791  72.9117663
  19.7348768  60.4594664  72.5089325  23.3178838  39.1235816  69.1931471
  22.5511233  38.5694302  69.3388153  23.7289543  39.1957685  70.0545623
  15.3220599  45.4120612  83.2836652  16.1852060  45.0557416  83.4939977
  14.7486009  45.0734506  83.9712056  35.1668976  67.0422468  74.0899053
  35.8047386  66.9229215  73.3862393  35.0489818  67.9903312  74.1487005
  31.9758682  66.9949896  74.0260578  31.6377193  66.8790961  73.1381113
  32.8448450  66.5941061  74.0061584  27.8345498  68.8485372  70.0157469
  27.2710363  68.7575309  69.2473757  27.7197893  68.0285277  70.4959961
  32.4578465  68.1484748  79.9846783  32.4467106  67.7537546  79.1127287
  32.6199104  67.4150820  80.5780555  25.3809930  70.3436564  72.8541689
  26.1731221  70.0027389  72.4387989  25.6206580  70.4531539  73.7743843
  33.4145056  72.5156340  65.3271934  32.7633036  73.1010421  64.9405947
  34.2089419  73.0462535  65.3866971  27.3400683  69.6045477  65.7259068
  28.1131559  69.0574464  65.5871944  27.6926082  70.4689727  65.9373529
  29.1785726  70.9321860  78.9325967  28.8875592  71.8367490  78.8172634
  29.8142710  70.9738387  79.6470037  30.1041933  68.3098708  75.5227327
  30.7005505  68.0854730  74.8084290  30.1616904  67.5683454  76.1252775
  29.6766961  65.7638143  63.3577518  29.9292482  65.2419665  62.5960981
  28.7391520  65.6004289  63.4604202  34.7210244  64.7673922  71.1652261
  35.5073333  64.3493345  70.8142678  34.9848948  65.6720014  71.3333910
  34.8920321  70.2046772  65.8640918  34.2566154  70.2781399  66.5761823
  34.5617728  70.7940371  65.1859997  40.1218671  64.7049155  72.0685240
  40.8543843  64.1348372  72.3023069  39.3658027  64.3170755  72.5091745
  29.3963250  67.6666249  65.5601893  29.2799508  66.9911153  66.2282977
  29.5065510  67.1798623  64.7434046  31.7394791  67.1276396  69.2648582
  31.3752998  66.6007017  69.9761504  32.5961907  66.7374866  69.0915068
  37.6444092  58.4170729  76.5279848  37.3127416  59.2866140  76.3041063
  37.0489705  58.1007013  77.2073879  31.3800278  62.1566296  64.2609931
  31.5474680  63.0246533  64.6280402  31.1897447  62.3193578  63.3371220
  34.1375611  70.6183275  75.9275761  33.8376334  71.5208314  75.8191568
  33.7926671  70.3515458  76.7796914  27.5888093  67.0697072  71.9612465
  26.6638589  66.9373286  72.1690157  27.8372506  67.8491291  72.4582408
  37.5372755  63.1365815  73.6073198  36.6289632  63.0681224  73.3131959
  37.4860351  63.6137760  74.4355024  31.3589499  64.6123954  65.2456597
  31.2389124  65.0581004  66.0842078  30.6642087  64.9609271  64.6870136
  24.9496904  66.7130345  72.7956255  25.0789285  66.9664824  73.7095666
  24.2694355  67.3058053  72.4760910  29.1196391  77.3827595  68.8946729
  29.0420421  78.3335420  68.9735209  28.5158034  77.0373468  69.5521655
  31.6113621  64.5555461  81.5508096  30.8346955  65.1149381  81.5410960
  32.2504184  65.0412244  82.0722966  39.4034401  61.3382254  75.3851072
  38.7608782  61.6314787  74.7390867  38.8989330  61.2235174  76.1904269
  37.0574565  65.0845427  66.0736932  37.9692421  65.3172814  65.8984629
  36.5484212  65.6682471  65.5112010  29.8659993  67.3640914  81.1126063
  30.6074677  67.9025958  80.8360886  29.1596978  67.9907203  81.2697614
  35.3415333  69.5070055  79.7098224  35.7498689  69.0652465  78.9652856
  34.6192594  68.9322682  79.9632417  31.6946403  64.4442661  77.0831781
  32.5407598  64.8682075  77.2266430  31.6345040  63.7876286  77.7770344
  35.6644147  70.0671245  73.4650513  35.0353010  70.2316959  72.7626581
  35.2769809  70.4812855  74.2361477  39.5433379  71.0025683  70.8194877
  38.8584417  71.3824584  70.2691910  39.6277228  71.6121010  71.5526825
  34.8445848  62.1047030  78.7412955  34.6006780  62.8589090  78.2047230
  35.1205779  62.4832377  79.5760202  36.7984311  68.6485642  77.4190220
  37.0101206  69.2917402  76.7424601  36.7514059  67.8147959  76.9512150
  34.4010540  61.2603463  74.3226792  33.5395019  61.5584716  74.6143530
  34.4272974  61.4773862  73.3907825  31.2172109  69.8045653  70.7300598
  31.6810455  70.0833356  69.9405221  30.9528907  68.9029098  70.5473689
  28.1096190  69.3517135  73.6680361  28.6797547  69.7804403  73.0297846
  28.7004302  69.0699720  74.3664547  30.1540995  65.9268806  67.5390163
  30.8565039  66.3789849  68.0064090  29.8221624  65.2852625  68.1670056
  28.6021357  64.5180562  81.9141373  27.9720017  65.1996843  82.1476769
  28.4957445  64.4063644  80.9694511  23.8966329  64.1852358  72.8407297
  23.1065383  64.4409887  72.3647407  24.3877577  65.0000696  72.9459337
  37.9130139  71.5257598  75.5912578  38.7347582  71.1237785  75.3095259
  37.9092542  71.4225832  76.5428693  25.8481075  64.5496938  69.7990774
  25.0512238  64.6615632  70.3174269  25.6206667  64.8883590  68.9331664
  31.6786742  71.0741641  77.7473288  31.7431175  71.5362048  78.5831460
  30.9697666  70.4439006  77.8755598  22.1804032  64.4382849  75.2722288
  22.4312071  65.3229859  75.5379864  22.7163581  64.2587450  74.4997379
  46.0036132  67.8696346  71.9397549  45.2499840  67.3003744  71.7841554
  46.1383673  67.8359011  72.8868184  31.3934760  72.7409748  67.6152268
  31.2580435  73.5861284  68.0437116  31.9344572  72.9429026  66.8518202
  27.8802099  58.8201328  84.2766624  27.4869045  58.2667527  84.9514268
  28.6968240  59.1311907  84.6673141  24.8464157  70.2585186  68.1880194
  25.3588678  71.0528437  68.3385758  25.4986870  69.5611477  68.1213795
  26.6559042  73.3750943  70.2702947  26.8325670  74.2968907  70.0823931
  27.4515875  73.0609362  70.6997327  30.7970060  60.2359207  81.8686880
  31.5379774  60.8366360  81.7891343  31.0287983  59.4936845  81.3104923
  25.9411398  65.4215575  80.1465110  25.8264914  64.5200832  80.4472209
  25.0855916  65.6679271  79.7949926  33.0203236  73.3633315  81.7452611
  32.5767090  72.5769693  81.4273515  33.6820450  73.5512465  81.0796501
  27.7790357  74.8929116  76.2713289  28.3297782  74.7646180  75.4990283
  26.9401833  75.1924005  75.9208182  35.1184474  73.6436115  79.7734012
  35.1002950  74.4644996  79.2814281  36.0404394  73.5190190  79.9984153
  31.5757528  71.1580244  80.6157520  32.1085865  70.3968532  80.3856828
  31.0471610  70.8653896  81.3581675  34.7427223  56.2640310  76.1451162
  34.3991493  57.1541952  76.0690273  35.1106186  56.0741968  75.2820747
  22.8113074  68.5873841  68.9639764  23.6488296  68.9970849  68.7473472
  22.9891342  67.6473283  68.9339958  34.7077506  66.2548921  64.6523597
  34.1924130  67.0253526  64.8911984  34.4354815  65.5814058  65.2756658
  32.2924617  61.0998622  69.7108835  31.4366213  60.7105473  69.5314474
  32.7051569  61.1790583  68.8508621  33.8223764  58.6344965  74.1100395
  33.3188559  58.5975101  73.2968200  34.1154371  59.5437708  74.1697052
  30.0666650  58.7183695  73.1166577  30.9319646  58.5226504  72.7572466
  30.1344159  58.4894047  74.0435934  39.6811780  69.0081276  66.5876771
  38.9041223  68.6692435  66.1431933  40.3603261  69.0133899  65.9131736
  34.4963809  64.1276013  66.4783378  34.1913945  64.4422163  67.3293521
  35.4494251  64.2057433  66.5210711  32.9410241  70.2866237  68.1276332
  32.4131603  69.5518996  67.8149570  32.4397744  71.0640913  67.8816301
  37.9203087  68.4815257  73.2443379  37.2626762  69.1714519  73.3323507
  38.7243486  68.8711689  73.5877365  27.6728969  60.9485903  70.4882944
  28.2472721  60.7261085  69.7556137  28.2599951  61.0174598  71.2411545
  36.7308546  66.8359630  71.2947320  37.2440428  67.4689622  71.7969030
  37.3809770  66.2360825  70.9290680  27.9998556  62.9790364  64.5078829
  27.1635868  63.3165051  64.8288104  27.8603325  62.8439344  63.5705966
  29.9751636  57.8227152  69.2158013  29.3216049  57.5076169  68.5914628
  29.9332111  57.2002892  69.9417836  31.0862841  68.1046447  61.1311305
  30.1789903  67.8735700  61.3302454  31.5833873  67.3084066  61.3185287
  33.9930920  76.8143954  64.0507991  33.3192619  77.1175651  64.6592949
  34.3796742  77.6173035  63.7013448  33.2089377  64.3109085  73.5405661
  32.2911938  64.5324032  73.3827349  33.6249520  64.3855396  72.6817368
  33.9924425  65.7100501  68.6708341  34.7396244  66.2221898  68.3615463
  34.2616014  65.3884554  69.5312735  32.2651075  68.2059042  65.6535295
  31.3562294  67.9218075  65.7507765  32.2946159  68.6258120  64.7938602
  37.4970342  71.8165631  69.4226463  37.0432669  70.9756541  69.4791653
  36.8664309  72.4527030  69.7601243  36.4403262  62.7457617  70.6527130
  35.7026019  62.2335004  70.9837373  36.6930035  62.3057999  69.8410407
  35.9403281  73.6542128  70.3576281  36.2326256  74.2147185  69.6388647
  36.4501902  73.9470689  71.1129440  36.5414889  55.5233869  71.2468900
  36.8473766  54.6631233  70.9594815  37.2667494  56.1151490  71.0467894
  22.8339245  65.9264556  69.6350498  22.6363645  65.3333917  68.9101564
  22.2785909  65.6216766  70.3526436  30.8135969  65.8187662  71.7545091
  30.8684579  64.8661499  71.6787567  30.0027171  65.9747102  72.2386389
  31.9627163  69.7467786  62.9923374  31.5246592  69.0303644  62.5329011
  32.7037603  69.9743900  62.4308465  28.7528329  64.4364722  69.5135470
  27.9396194  64.7358893  69.9200662  29.2487323  64.0420411  70.2309952
  30.9036907  74.4322479  71.4469734  30.8613085  74.6583325  70.5178266
  31.8199605  74.1985854  71.5955535  34.3502540  64.9006547  78.3450363
  34.7051928  65.1278020  79.2044829  34.9974672  65.2324924  77.7227619
  40.0800277  68.0224983  69.0499692  39.9418176  68.2126579  68.1220882
  39.7236496  68.7844365  69.5067744  28.2442403  62.0083078  75.1296704
  28.8841783  61.8671837  74.4319668  27.4119934  61.7217591  74.7535306
  40.1069657  70.0901510  74.0610964  40.5406164  69.9976799  74.9094018
  40.8201238  70.0659010  73.4230980  29.0202707  71.3085508  71.2431697
  29.8143306  70.8135828  71.0414272  28.3094400  70.7803371  70.8799403
  33.8397552  73.6903604  75.5944065  33.8934574  74.2594540  76.3621780
  32.9712333  73.8605489  75.2298102  25.3285471  65.4528590  67.3191450
  24.3983059  65.3913045  67.5361412  25.4242943  64.9304543  66.5228091
  25.2471020  61.9783403  69.9069691  25.5077837  62.8928736  69.7978852
  26.0688192  61.5107845  70.0566304  26.7195945  63.3921160  77.0768516
  27.3918999  63.1838522  76.4281165  25.8925732  63.1943246  76.6373748
  40.9685207  70.1325210  76.5943849  41.1621097  71.0371021  76.8403124
  40.8685825  69.6732629  77.4282434  32.6221517  60.0183101  79.0934177
  31.9749432  60.7173051  78.9998653  33.3922533  60.4519245  79.4610425
  36.0300315  70.2831953  82.1684730  35.8785822  70.0542505  81.2514814
  36.0204995  71.2402554  82.1816075  32.7985652  67.8563866  77.1530996
  33.7277712  68.0075025  76.9799964  32.3776682  67.9447887  76.2979643
  31.5973983  71.8814530  74.9229534  31.4585069  71.5133315  75.7955472
  30.8088580  72.3962170  74.7513492  32.1922135  76.9823627  66.2655071
  32.3673891  76.5111670  67.0800693  31.5054923  77.6089393  66.4936331
  33.1479199  71.2596133  72.3118372  32.8129031  71.2196903  73.2076022
  32.6483144  70.5940849  71.8388782  27.1223442  66.6663763  77.8370953
  26.9843240  65.9344002  78.4382492  28.0328366  66.5772663  77.5555141
  36.0838390  68.6052167  62.5855431  35.4667561  67.8798995  62.4888484
  35.6154879  69.3661527  62.2422506  29.7505743  66.3783722  77.3254633
  30.4605362  65.7376914  77.2841251  29.7075051  66.6296617  78.2480813
  37.7392522  73.3151076  80.2461212  37.6805068  72.6310296  79.5791795
  38.1412040  74.0570066  79.7941838  28.4634677  63.3648940  79.1450272
  27.9272034  62.9139679  79.7971868  27.8751386  63.4994849  78.4020736
  26.7583221  80.1312989  73.0394931  26.9979819  80.7631514  73.7173949
  25.9152417  79.7801029  73.3260290  27.8736936  62.8237592  61.7076736
  26.9966402  62.7026392  61.3438982  28.3494689  62.0323670  61.4555624
  37.7409929  71.2790660  78.4775192  36.8536708  70.9416581  78.6001590
  38.3108480  70.5473691  78.7143957  19.3939076  67.6114751  71.8018243
  20.0810116  67.2976481  71.2139258  19.2387205  68.5156116  71.5285494
  24.1973798  62.5004948  76.2303267  24.1131987  61.8930617  75.4953677
  23.3756505  62.9913966  76.2312763  31.2711082  75.9392112  75.4436435
  31.1981254  76.7447083  75.9555739  30.8288476  76.1384078  74.6184456
  31.0600862  75.1763882  68.9539256  30.2768384  75.7185562  69.0477481
  31.7593607  75.6937862  69.3533497  34.3697512  60.9858511  71.5973462
  34.8666212  60.2328474  71.2774532  33.5984494  61.0222828  71.0316671
  42.2227270  66.6898877  73.2391753  42.2117146  67.5723592  72.8685686
  41.3544649  66.3370428  73.0446290  33.7309766  75.8378946  77.5994593
  34.4437738  76.4726411  77.5270495  33.2399795  75.9342812  76.7834595
  35.4527293  69.7430199  69.1711885  34.5183572  69.8631661  69.0016589
  35.6303961  68.8402665  68.9071895  30.9532481  63.1275894  71.3245146
  30.5830268  62.5746935  72.0126052  31.4491573  62.5234028  70.7720146
  38.8399844  65.5847518  69.7061919  39.3060296  66.4175509  69.6322222
  39.2907345  65.1192499  70.4107178  28.7821680  73.5873389  78.4200164
  29.4831139  74.2209872  78.5729558  28.3116795  73.9288121  77.6595803
  36.9076075  71.9291339  66.7048071  37.1835919  71.8147934  67.6141945
  36.0380574  71.5308824  66.6660244  36.8116507  57.9528105  73.7452821
  35.8979587  58.1832332  73.9135027  37.2409608  58.0366549  74.5966853
  36.5822966  66.1417997  76.2452715  35.9294416  66.3893904  75.5905167
  36.9603345  65.3282135  75.9115192  33.5430139  76.1777690  70.3480885
  33.7252534  75.3599346  70.8108637  34.3663125  76.3945382  69.9105775
  33.8772305  75.1045875  67.6095933  34.4060071  74.5938330  66.9966095
  34.1400524  74.7888405  68.4741466  32.6310539  66.8837808  82.7318752
  31.9551176  66.7831937  83.4021127  33.4538172  66.7277022  83.1954749
  24.3789398  73.1209744  75.3531267  24.9642834  72.3753432  75.4859171
  24.1814236  73.4313701  76.2367931  27.2328053  76.1560992  70.3693709
  26.5638428  76.6407119  69.8857749  27.0940923  76.4030212  71.2837088
  18.9707052  65.6915345  74.0735710  19.0091152  65.1578935  74.8672828
  18.4647345  65.1650550  73.4546687  31.3733321  78.1904735  76.9676368
  31.9251629  78.3536357  77.7325453  31.7139515  78.7809173  76.2956392
  26.3497815  60.5379885  77.5698252  26.4139141  61.3994716  77.1575650
  26.2864935  59.9253887  76.8370611  25.8250087  62.6103018  81.2171287
  26.4522126  62.2280095  81.8308811  24.9678006  62.3917220  81.5826979
  36.2244196  73.0165993  82.8225022  36.7684100  73.6295951  82.3279977
  35.6431041  73.5745571  83.3392035  22.6015630  64.4179447  67.1489641
  22.8969071  63.5090125  67.0956695  21.7003666  64.3967186  66.8270644
  34.5101709  76.1386711  73.9540050  34.3852848  75.3376451  73.4450995
  35.1680800  76.6332904  73.4654020  26.1309877  62.4935443  73.1317190
  25.4096463  63.1071411  72.9924663  26.9203133  63.0293208  73.0533836
  36.5736617  73.9395731  75.5819600  35.6266953  73.8201082  75.5097927
  36.9219390  73.0518229  75.6645861  28.9336190  59.8289870  79.4057842
  29.4570592  60.0752166  80.1684151  28.7148524  60.6609905  78.9860979
  24.3303472  62.0993544  67.2728967  24.0016178  61.2190923  67.0904072
  24.6842842  62.0441213  68.1605356  33.5783050  73.7348447  71.7823952
  33.4308013  72.8065155  71.9631522  34.4036544  73.7568538  71.2981027
  27.4445295  62.3866514  67.6404444  27.7841367  62.9152435  66.9183053
  27.8917415  62.7246920  68.4163011  37.1817172  74.5577006  72.8688825
  38.1063720  74.3519867  72.7313276  37.0132476  74.3093407  73.7778166
  30.1388735  60.7703565  77.0907512  29.7985556  59.9711378  77.4928192
  29.4327742  61.0705276  76.5184345  30.7905207  57.8552877  75.5434835
  31.6131277  57.3813356  75.4213726  31.0343271  58.6343361  76.0433522
  29.4313442  60.8841136  65.8397737  30.1521804  61.2622389  65.3361454
  28.8078746  61.6030013  65.9432715  33.5744565  61.5886285  66.7756069
  33.7908179  62.4710923  66.4744898  33.0938632  61.1972498  66.0461711
  28.3143786  64.5471998  73.3526814  28.1688367  64.8612301  74.2451095
  27.8368990  65.1656898  72.7997713  30.1740169  61.5374546  73.4007703
  30.1601738  60.6415639  73.0640001  30.8912597  61.5445210  74.0345990
  32.0266300  61.9711886  75.4460831  31.7684077  62.8928957  75.4445161
  31.4951340  61.5742321  76.1361295  36.9712488  75.0762673  68.2250916
  37.1449366  74.5109096  67.4724769  37.4641380  75.8763568  68.0430406
  22.7889448  67.0877342  76.2914475  22.2442916  67.8637150  76.4234749
  23.6668798  67.4348147  76.1333597  29.5777065  60.4188926  68.6695274
  29.6992976  59.4905572  68.8686161  29.2879107  60.4327612  67.7573589
  32.4468255  58.1043837  71.8061993  32.4689952  58.1683170  70.8513973
  32.8636314  57.2648345  72.0002500  42.8251880  67.8399096  69.8441216
  43.2683026  67.0906421  69.4460339  41.9478390  67.8309233  69.4614948
  23.5755470  66.2147239  79.1844632  22.8337206  66.3629874  79.7709262
  23.2548214  66.4755504  78.3211381  31.5199133  75.7563217  78.9825022
  31.8286259  75.5112364  79.8547722  32.3174615  75.9609855  78.4943892
  31.5419745  77.9101127  71.2130399  31.1024735  77.4177505  71.9063255
  32.2927862  77.3674094  70.9722474  24.0212084  74.1012667  71.2155027
  24.8470104  73.8016439  70.8353670  23.6706136  73.3320290  71.6644815
  28.9893617  73.4539136  73.2852700  28.3673626  72.7909841  72.9854928
  29.6598484  73.4800268  72.6026348  22.2220689  72.0198994  72.1743960
  21.3852597  71.5921168  71.9927961  22.1944334  72.2131437  73.1114751
  29.0618144  61.9320924  82.8785206  29.1106300  62.8083046  82.4962976
  29.6040659  61.3898317  82.3056849  39.5472990  72.4762047  82.1586343
  38.7568534  72.4586186  81.6190843  39.3106345  73.0150341  82.9135380
  39.6670865  69.3254513  79.4719072  39.7168870  69.1604521  80.4134595
  39.5584788  68.4581772  79.0816953  28.5507124  72.0043059  66.7611161
  28.6995244  72.6878523  66.1077833  29.3573567  71.9848149  67.2760616
  36.9574628  65.3085441  80.7878379  37.8584490  65.1691906  80.4962376
  37.0322602  65.4739896  81.7276556  31.2917433  62.6852296  79.6331565
  30.4220742  62.9785862  79.3614153  31.5276913  63.2692741  80.3538829
  41.1689062  71.7451455  79.7161093  40.8773870  72.1081435  80.5524554
  40.5561193  71.0318463  79.5374425  42.3684744  69.3104335  72.2363664
  43.2031636  69.7494139  72.4001224  42.5043873  68.8342988  71.4171909
  39.4176250  66.8684069  78.1841151  39.8930372  67.0611716  77.3760003
  38.4941816  66.9243255  77.9384535  26.3059757  68.0308237  67.7672230
  26.0605799  67.1270567  67.9652440  26.4755671  68.0325387  66.8251708
  33.9956467  58.9031913  77.1496985  34.5138411  59.6392940  76.8243474
  33.6411599  59.2095906  77.9843744  25.5755404  63.7636594  65.2658391
  24.8824649  63.8380949  64.6098427  25.3307156  62.9996938  65.7879908
  34.2469061  55.3232196  72.6697882  34.5270815  54.6555385  73.2958308
  35.0319668  55.5161291  72.1572546  32.0502529  74.4991189  64.2322908
  31.4776496  75.1181377  63.7793380  32.6235323  75.0490551  64.7662830
  38.1177919  63.7449829  76.4169457  39.0695342  63.8447927  76.4381681
  37.9481370  62.9528098  76.9267541  36.1392299  60.8305413  76.6028858
  35.5442231  61.1110425  75.9075347  35.8541995  61.3199314  77.3745599
  35.2699789  74.7828340  65.3631490  36.2030462  74.7173901  65.5664366
  35.1823002  75.6184606  64.9046023  40.5965997  66.9655949  75.5311757
  40.5642317  66.0271950  75.7171440  41.2066621  67.0439986  74.7977582
  32.4349328  65.8352002  61.5738961  33.3808433  65.7058210  61.6427379
  32.0563573  65.0966664  62.0508389  40.7460485  63.7566993  75.5770040
  40.2299534  62.9725449  75.3899969  41.6300434  63.4285709  75.7416559
  38.4071212  57.5008008  71.5365852  38.2096034  57.1923096  72.4209184
  39.0170918  58.2269647  71.6663782  46.4142547  68.0271956  74.6717793
  47.1445935  67.7657244  75.2325497  45.8049492  67.2900678  74.7119861
  44.4957844  66.1679819  75.2692245  43.7691008  66.0335784  74.6608736
  44.0805131  66.4756647  76.0748963  32.3188020  69.8869748  83.0339618
  33.2391030  70.0648347  83.2279664  32.2837603  68.9425794  82.8819317
  30.6192245  63.7601979  61.5093846  29.7123700  63.4635091  61.5856560
  30.8968226  63.4631797  60.6428132  21.5370185  65.0808342  71.9592892
  21.2172970  64.2273650  71.6667266  20.9903614  65.2956920  72.7150860
  25.3150093  67.7970783  75.6762399  25.5336103  68.7287891  75.6950433
  25.7275867  67.4378757  76.4617203  32.2354311  58.3038868  67.6638087
  31.4255039  57.9585953  68.0393333  32.9238728  57.9946412  68.2525699
  34.1644859  57.3816915  69.2862384  34.7175898  57.8012368  69.9452407
  34.4014945  56.4552663  69.3285340  30.1877958  63.3703989  85.0665148
  30.0874685  64.3198346  84.9977239  29.9699500  63.0422228  84.1941218
  29.3891030  60.6188914  61.6505825  30.2510194  60.9443812  61.9101642
  29.5741374  59.8320410  61.1378891  21.4058445  68.7011253  73.9286014
  20.7121917  68.2865206  73.4155968  22.1531436  68.7431790  73.3319433
  37.5423666  59.4917440  68.7941048  36.9622335  60.1502244  68.4119101
  37.2759599  58.6694785  68.3828466  35.9927232  58.8922498  70.9962368
  36.4927011  59.0039032  70.1876687  36.6362840  58.5883551  71.6363177
  30.0509228  66.8001128  83.8830209  29.5676310  67.6001488  84.0894098
  30.1370167  66.8109072  82.9297653  23.3195188  68.6329507  71.8052029
  23.2965876  68.7317194  70.8533912  23.6295824  69.4794658  72.1269195
  25.9782566  70.6905662  75.9198643  26.9325819  70.6589605  75.8528575
  25.7795089  70.2296286  76.7348869  26.5681948  69.2606778  78.4869441
  27.3874837  69.7550857  78.5104278  26.8418756  68.3438746  78.4587008
  36.3248544  61.6517531  67.8497396  35.4374399  61.9367181  67.6317591
  36.7402533  61.4911294  67.0024673  39.6763080  61.6764052  71.5651736
  40.4523470  62.1660504  71.8376352  38.9511214  62.1022106  72.0223605
  42.1135639  62.3891671  72.6225676  42.7080130  62.1487407  71.9118984
  42.1862223  61.6698801  73.2499213  24.3332795  76.2325282  72.9368841
  24.1987263  75.4725683  72.3706839  23.9164857  76.9566182  72.4697630
  36.2989568  67.1672067  68.0647687  36.2424769  67.6240618  67.2255319
  36.8517910  66.4062751  67.8870529  40.1094374  62.9561798  68.8897806
  39.8531308  62.5558434  69.7206014  39.4847242  63.6705592  68.7647945
  44.4206712  65.6957872  71.3969097  43.8606270  65.7651061  72.1700659
  43.8150215  65.5198856  70.6768594  27.4901920  77.1294599  73.1487284
  27.3734305  78.0740031  73.0465974  26.6694367  76.8268160  73.5373083
  37.0324347  68.3576848  65.3600216  36.9773151  68.1921119  64.4188660
  36.4070402  69.0652881  65.5162405  21.8216862  63.5944912  79.1861638
  22.4675726  63.0843866  79.6748863  21.6134013  64.3313594  79.7605063
  34.3470254  70.6625760  84.6853778  35.2161414  70.8366412  84.3240413
  33.8677006  71.4820176  84.5629508  30.3420473  57.8584957  64.9385534
  30.3299142  58.8026797  65.0953805  31.2343895  57.6755102  64.6444995
  28.5156435  77.7822861  76.3643212  29.4183681  77.8146471  76.6809707
  28.2893805  76.8523312  76.3789548  30.2710037  76.5353847  73.0253291
  29.3205668  76.5355709  72.9117663  30.5742523  75.7886582  72.5089325
  34.1572592  54.4527733  69.1931471  33.3904988  53.8986220  69.3388153
  34.5683297  54.5249602  70.0545623  26.1614353  60.7412529  83.2836652
  27.0245815  60.3849334  83.4939977  25.5879764  60.4026424  83.9712056
  46.0062730  82.3714386  74.0899053  46.6441140  82.2521133  73.3862393
  45.8883573  83.3195230  74.1487005  42.8152436  82.3241814  74.0260578
  42.4770948  82.2082878  73.1381113  43.6842205  81.9232979  74.0061584
  38.6739252  84.1777290  70.0157469  38.1104117  84.0867227  69.2473757
  38.5591647  83.3577195  70.4959961  43.2972219  83.4776665  79.9846783
  43.2860860  83.0829464  79.1127287  43.4592859  82.7442738  80.5780555
  36.2203684  85.6728482  72.8541689  37.0124976  85.3319306  72.4387989
  36.4600334  85.7823457  73.7743843  44.2538811  87.8448258  65.3271934
  43.6026791  88.4302338  64.9405947  45.0483174  88.3754453  65.3866971
  38.1794438  84.9337395  65.7259068  38.9525314  84.3866382  65.5871944
  38.5319837  85.7981644  65.9373529  40.0179481  86.2613777  78.9325967
  39.7269346  87.1659408  78.8172634  40.6536465  86.3030305  79.6470037
  40.9435687  83.6390626  75.5227327  41.5399260  83.4146648  74.8084290
  41.0010659  82.8975371  76.1252775  45.5603999  80.0965839  71.1652261
  46.3467088  79.6785263  70.8142678  45.8242703  81.0011932  71.3333910
  45.7314076  85.5338690  65.8640918  45.0959909  85.6073316  66.5761823
  45.4011482  86.1232289  65.1859997  50.9612426  80.0341073  72.0685240
  51.6937598  79.4640289  72.3023069  50.2051781  79.6462673  72.5091745
  42.5788545  82.4568314  69.2648582  42.2146753  81.9298935  69.9761504
  43.4355661  82.0666783  69.0915068  48.4837846  73.7462647  76.5279848
  48.1521171  74.6158058  76.3041063  47.8883459  73.4298931  77.2073879
  44.9769366  85.9475193  75.9275761  44.6770089  86.8500232  75.8191568
  44.6320425  85.6807376  76.7796914  38.4281847  82.3988990  71.9612465
  37.5032344  82.2665204  72.1690157  38.6766260  83.1783209  72.4582408
  48.3766509  78.4657733  73.6073198  47.4683387  78.3973141  73.3131959
  48.3254105  78.9429678  74.4355024  35.7890658  82.0422263  72.7956255
  35.9183039  82.2956742  73.7095666  35.1088109  82.6349971  72.4760910
  39.9590145  92.7119513  68.8946729  39.8814175  93.6627338  68.9735209
  39.3551789  92.3665386  69.5521655  42.4507375  79.8847379  81.5508096
  41.6740709  80.4441299  81.5410960  43.0897938  80.3704161  82.0722966
  50.2428156  76.6674171  75.3851072  49.6002536  76.9606704  74.7390867
  49.7383084  76.5527092  76.1904269  47.8968319  80.4137345  66.0736932
  48.8086176  80.6464731  65.8984629  47.3877967  80.9974389  65.5112010
  40.7053747  82.6932832  81.1126063  41.4468432  83.2317876  80.8360886
  39.9990733  83.3199121  81.2697614  46.1809087  84.8361972  79.7098224
  46.5892443  84.3944383  78.9652856  45.4586349  84.2614600  79.9632417
  42.5340157  79.7734579  77.0831781  43.3801352  80.1973993  77.2266430
  42.4738795  79.1168203  77.7770344  46.5037902  85.3963163  73.4650513
  45.8746764  85.5608877  72.7626581  46.1163564  85.8104773  74.2361477
  50.3827134  86.3317601  70.8194877  49.6978172  86.7116502  70.2691910
  50.4670983  86.9412927  71.5526825  45.6839602  77.4338947  78.7412955
  45.4400534  78.1881008  78.2047230  45.9599533  77.8124295  79.5760202
  47.6378065  83.9777560  77.4190220  47.8494960  84.6209320  76.7424601
  47.5907814  83.1439876  76.9512150  45.2404294  76.5895380  74.3226792
  44.3788773  76.8876634  74.6143530  45.2666729  76.8065779  73.3907825
  42.0565864  85.1337571  70.7300598  42.5204209  85.4125274  69.9405221
  41.7922662  84.2321016  70.5473689  38.9489945  84.6809053  73.6680361
  39.5191302  85.1096321  73.0297846  39.5398057  84.3991637  74.3664547
  39.4415111  79.8472480  81.9141373  38.8113772  80.5288761  82.1476769
  39.3351199  79.7355562  80.9694511  34.7360084  79.5144276  72.8407297
  33.9459138  79.7701805  72.3647407  35.2271331  80.3292614  72.9459337
  48.7523893  86.8549515  75.5912578  49.5741337  86.4529703  75.3095259
  48.7486296  86.7517749  76.5428693  36.6874829  79.8788855  69.7990774
  35.8905992  79.9907550  70.3174269  36.4600421  80.2175508  68.9331664
  42.5180497  86.4033559  77.7473288  42.5824929  86.8653966  78.5831460
  41.8091421  85.7730923  77.8755598  33.0197787  79.7674767  75.2722288
  33.2705825  80.6521776  75.5379864  33.5557335  79.5879368  74.4997379
  56.8429886  83.1988264  71.9397549  56.0893595  82.6295662  71.7841554
  56.9777427  83.1650928  72.8868184  42.2328514  88.0701666  67.6152268
  42.0974189  88.9153202  68.0437116  42.7738327  88.2720944  66.8518202
  38.7195854  74.1493246  84.2766624  38.3262800  73.5959444  84.9514268
  39.5361994  74.4603824  84.6673141  35.6857912  85.5877104  68.1880194
  36.1982432  86.3820354  68.3385758  36.3380625  84.8903395  68.1213795
  37.4952796  88.7042860  70.2702947  37.6719425  89.6260825  70.0823931
  38.2909630  88.3901280  70.6997327  41.6363815  75.5651125  81.8686880
  42.3773528  76.1658278  81.7891343  41.8681738  74.8228763  81.3104923
  36.7805153  80.7507492  80.1465110  36.6658668  79.8492749  80.4472209
  35.9249671  80.9971189  79.7949926  43.8596991  88.6925233  81.7452611
  43.4160845  87.9061611  81.4273515  44.5214204  88.8804383  81.0796501
  38.6184112  90.2221034  76.2713289  39.1691537  90.0938098  75.4990283
  37.7795588  90.5215923  75.9208182  45.9578229  88.9728032  79.7734012
  45.9396704  89.7936914  79.2814281  46.8798149  88.8482108  79.9984153
  42.4151283  86.4872162  80.6157520  42.9479620  85.7260450  80.3856828
  41.8865364  86.1945814  81.3581675  45.5820978  71.5932228  76.1451162
  45.2385247  72.4833870  76.0690273  45.9499940  71.4033886  75.2820747
  33.6506828  83.9165758  68.9639764  34.4882050  84.3262767  68.7473472
  33.8285096  82.9765201  68.9339958  43.1318372  76.4290540  69.7108835
  42.2759968  76.0397390  69.5314474  43.5445323  76.5082501  68.8508621
  44.6617518  73.9636883  74.1100395  44.1582314  73.9267018  73.2968200
  44.9548125  74.8729626  74.1697052  40.9060404  74.0475613  73.1166577
  41.7713401  73.8518421  72.7572466  40.9737913  73.8185965  74.0435934
  50.5205535  84.3373194  66.5876771  49.7434977  83.9984353  66.1431933
  51.1997016  84.3425817  65.9131736  43.7803996  85.6158154  68.1276332
  43.2525357  84.8810914  67.8149570  43.2791498  86.3932831  67.8816301
  48.7596842  83.8107175  73.2443379  48.1020516  84.5006436  73.3323507
  49.5637241  84.2003607  73.5877365  38.5122723  76.2777821  70.4882944
  39.0866475  76.0553002  69.7556137  39.0993706  76.3466515  71.2411545
  47.5702300  82.1651548  71.2947320  48.0834182  82.7981539  71.7969030
  48.2203524  81.5652743  70.9290680  44.8324675  92.1435872  64.0507991
  44.1586373  92.4467569  64.6592949  45.2190497  92.9464952  63.7013448
  44.0483131  79.6401003  73.5405661  43.1305693  79.8615950  73.3827349
  44.4643275  79.7147314  72.6817368  44.8318179  81.0392419  68.6708341
  45.5789998  81.5513816  68.3615463  45.1009769  80.7176472  69.5312735
  43.1044829  83.5350960  65.6535295  42.1956048  83.2509992  65.7507765
  43.1339913  83.9550038  64.7938602  48.3364097  87.1457549  69.4226463
  47.8826424  86.3048459  69.4791653  47.7058063  87.7818947  69.7601243
  47.2797016  78.0749535  70.6527130  46.5419773  77.5626921  70.9837373
  47.5323790  77.6349917  69.8410407  46.7797036  88.9834046  70.3576281
  47.0720010  89.5439103  69.6388647  47.2895656  89.2762607  71.1129440
  33.6733000  81.2556474  69.6350498  33.4757399  80.6625834  68.9101564
  33.1179664  80.9508684  70.3526436  41.6529723  81.1479580  71.7545091
  41.7078333  80.1953417  71.6787567  40.8420925  81.3039019  72.2386389
  42.8020917  85.0759703  62.9923374  42.3640347  84.3595562  62.5329011
  43.5431358  85.3035818  62.4308465  39.5922083  79.7656640  69.5135470
  38.7789949  80.0650810  69.9200662  40.0881077  79.3712329  70.2309952
  41.7430661  89.7614397  71.4469734  41.7006840  89.9875243  70.5178266
  42.6593360  89.5277771  71.5955535  45.1896295  80.2298464  78.3450363
  45.5445683  80.4569938  79.2044829  45.8368426  80.5616841  77.7227619
  50.9194032  83.3516900  69.0499692  50.7811930  83.5418496  68.1220882
  50.5630251  84.1136283  69.5067744  39.0836158  77.3374995  75.1296704
  39.7235537  77.1963755  74.4319668  38.2513688  77.0509509  74.7535306
  50.9463411  85.4193427  74.0610964  51.3799918  85.3268716  74.9094018
  51.6594992  85.3950928  73.4230980  39.8596462  86.6377426  71.2431697
  40.6537060  86.1427746  71.0414272  39.1488154  86.1095289  70.8799403
  44.6791306  89.0195521  75.5944065  44.7328329  89.5886458  76.3621780
  43.8106088  89.1897406  75.2298102  36.0864774  77.3075320  69.9069691
  36.3471592  78.2220654  69.7978852  36.9081947  76.8399763  70.0566304
  37.5589700  78.7213078  77.0768516  38.2312753  78.5130440  76.4281165
  36.7319486  78.5235164  76.6373748  51.8078961  85.4617128  76.5943849
  52.0014851  86.3662938  76.8403124  51.7079579  85.0024547  77.4282434
  43.4615272  75.3475019  79.0934177  42.8143187  76.0464968  78.9998653
  44.2316287  75.7811162  79.4610425  46.8694070  85.6123871  82.1684730
  46.7179576  85.3834422  81.2514814  46.8598749  86.5694472  82.1816075
  43.6379406  83.1855783  77.1530996  44.5671466  83.3366943  76.9799964
  43.2170436  83.2739804  76.2979643  42.4367738  87.2106448  74.9229534
  42.2978824  86.8425232  75.7955472  41.6482334  87.7254087  74.7513492
  43.0315890  92.3115544  66.2655071  43.2067646  91.8403588  67.0800693
  42.3448678  92.9381311  66.4936331  43.9872953  86.5888051  72.3118372
  43.6522786  86.5488821  73.2076022  43.4876899  85.9232766  71.8388782
  37.9617197  81.9955681  77.8370953  37.8236995  81.2635919  78.4382492
  38.8722120  81.9064581  77.5555141  46.9232145  83.9344085  62.5855431
  46.3061315  83.2090913  62.4888484  46.4548633  84.6953445  62.2422506
  40.5899498  81.7075640  77.3254633  41.2999116  81.0668832  77.2841251
  40.5468806  81.9588535  78.2480813  48.5786276  88.6442993  80.2461212
  48.5198822  87.9602213  79.5791795  48.9805795  89.3861983  79.7941838
  39.3028432  78.6940858  79.1450272  38.7665789  78.2431596  79.7971868
  38.7145140  78.8286767  78.4020736  37.5976975  95.4604907  73.0394931
  37.8373573  96.0923431  73.7173949  36.7546172  95.1092947  73.3260290
  48.5803684  86.6082577  78.4775192  47.6930462  86.2708499  78.6001590
  49.1502235  85.8765608  78.7143957  30.2332831  82.9406669  71.8018243
  30.9203871  82.6268399  71.2139258  30.0780959  83.8448034  71.5285494
  35.0367553  77.8296865  76.2303267  34.9525742  77.2222535  75.4953677
  34.2150259  78.3205884  76.2312763  42.1104837  91.2684030  75.4436435
  42.0375008  92.0739001  75.9555739  41.6682230  91.4675995  74.6184456
  41.8994617  90.5055800  68.9539256  41.1162138  91.0477480  69.0477481
  42.5987362  91.0229779  69.3533497  45.2091267  76.3150429  71.5973462
  45.7059966  75.5620391  71.2774532  44.4378248  76.3514746  71.0316671
  53.0621024  82.0190795  73.2391753  53.0510900  82.9015510  72.8685686
  52.1938404  81.6662345  73.0446290  44.5703520  91.1670864  77.5994593
  45.2831493  91.8018328  77.5270495  44.0793549  91.2634730  76.7834595
  46.2921047  85.0722116  69.1711885  45.3577326  85.1923579  69.0016589
  46.4697716  84.1694583  68.9071895  41.7926235  78.4567812  71.3245146
  41.4224023  77.9038852  72.0126052  42.2885328  77.8525945  70.7720146
  49.6793599  80.9139436  69.7061919  50.1454051  81.7467427  69.6322222
  50.1301099  80.4484417  70.4107178  39.6215434  88.9165307  78.4200164
  40.3224894  89.5501790  78.5729558  39.1510549  89.2580039  77.6595803
  47.7469830  87.2583257  66.7048071  48.0229674  87.1439851  67.6141945
  46.8774329  86.8600742  66.6660244  47.6510261  73.2820023  73.7452821
  46.7373341  73.5124249  73.9135027  48.0803363  73.3658467  74.5966853
  47.4216720  81.4709914  76.2452715  46.7688170  81.7185822  75.5905167
  47.7997100  80.6574053  75.9115192  44.3823894  91.5069608  70.3480885
  44.5646288  90.6891264  70.8108637  45.2056880  91.7237300  69.9105775
  44.7166059  90.4337793  67.6095933  45.2453826  89.9230247  66.9966095
  44.9794279  90.1180323  68.4741466  43.4704293  82.2129726  82.7318752
  42.7944930  82.1123855  83.4021127  44.2931927  82.0568939  83.1954749
  35.2183152  88.4501662  75.3531267  35.8036589  87.7045350  75.4859171
  35.0207991  88.7605619  76.2367931  38.0721807  91.4852909  70.3693709
  37.4032183  91.9699037  69.8857749  37.9334677  91.7322130  71.2837088
  29.8100807  81.0207262  74.0735710  29.8484906  80.4870853  74.8672828
  29.3041100  80.4942468  73.4546687  42.2127076  93.5196653  76.9676368
  42.7645384  93.6828274  77.7325453  42.5533269  94.1101091  76.2956392
  37.1891569  75.8671803  77.5698252  37.2532896  76.7286634  77.1575650
  37.1258689  75.2545804  76.8370611  36.6643842  77.9394935  81.2171287
  37.2915880  77.5572013  81.8308811  35.8071761  77.7209137  81.5826979
  47.0637950  88.3457910  82.8225022  47.6077854  88.9587869  82.3279977
  46.4824795  88.9037489  83.3392035  33.4409384  79.7471364  67.1489641
  33.7362825  78.8382043  67.0956695  32.5397420  79.7259104  66.8270644
  45.3495463  91.4678629  73.9540050  45.2246603  90.6668368  73.4450995
  46.0074554  91.9624822  73.4654020  36.9703631  77.8227361  73.1317190
  36.2490217  78.4363329  72.9924663  37.7596887  78.3585126  73.0533836
  47.4130372  89.2687649  75.5819600  46.4660707  89.1493000  75.5097927
  47.7613145  88.3810147  75.6645861  39.7729945  75.1581788  79.4057842
  40.2964347  75.4044084  80.1684151  39.5542278  75.9901822  78.9860979
  35.1697226  77.4285462  67.2728967  34.8409932  76.5482841  67.0904072
  35.5236597  77.3733131  68.1605356  44.4176805  89.0640365  71.7823952
  44.2701767  88.1357072  71.9631522  45.2430298  89.0860456  71.2981027
  48.0210927  89.8868924  72.8688825  48.9457474  89.6811785  72.7313276
  47.8526230  89.6385325  73.7778166  40.9782490  76.0995483  77.0907512
  40.6379310  75.3003296  77.4928192  40.2721496  76.3997193  76.5184345
  41.6298962  73.1844795  75.5434835  42.4525031  72.7105273  75.4213726
  41.8737025  73.9635279  76.0433522  39.1537541  79.8763916  73.3526814
  39.0082121  80.1904219  74.2451095  38.6762744  80.4948816  72.7997713
  41.0133923  76.8666464  73.4007703  40.9995492  75.9707557  73.0640001
  41.7306352  76.8737127  74.0345990  42.8660054  77.3003804  75.4460831
  42.6077832  78.2220875  75.4445161  42.3345095  76.9034238  76.1361295
  47.8106243  90.4054591  68.2250916  47.9843120  89.8401013  67.4724769
  48.3035134  91.2055486  68.0430406  33.6283203  82.4169260  76.2914475
  33.0836671  83.1929068  76.4234749  34.5062553  82.7640065  76.1333597
  40.4170819  75.7480844  68.6695274  40.5386731  74.8197490  68.8686161
  40.1272862  75.7619530  67.7573589  43.2862010  73.4335754  71.8061993
  43.3083707  73.4975087  70.8513973  43.7030069  72.5940263  72.0002500
  53.6645634  83.1691014  69.8441216  54.1076780  82.4198339  69.4460339
  52.7872144  83.1601150  69.4614948  48.7981415  89.7221355  65.3247815
  49.4932320  90.3428048  65.5435129  49.1404566  88.8716707  65.6000192
  34.4149225  81.5439156  79.1844632  33.6730961  81.6921792  79.7709262
  34.0941969  81.8047422  78.3211381  50.6972839  87.1721061  66.8535145
  51.2224163  87.5108334  66.1284465  50.6095191  86.2368076  66.6698280
  42.3592887  91.0855135  78.9825022  42.6680014  90.8404281  79.8547722
  43.1568369  91.2901773  78.4943892  42.3813499  93.2393044  71.2130399
  41.9418490  92.7469423  71.9063255  43.1321616  92.6966012  70.9722474
  34.8605838  89.4304585  71.2155027  35.6863858  89.1308357  70.8353670
  34.5099890  88.6612207  71.6644815  39.8287371  88.7831053  73.2852700
  39.2067381  88.1201758  72.9854928  40.4992238  88.8092185  72.6026348
  33.0614443  87.3490912  72.1743960  32.2246352  86.9213086  71.9927961
  33.0338089  87.5423355  73.1114751  39.9011899  77.2612841  82.8785206
  39.9500054  78.1374964  82.4962976  40.4434413  76.7190234  82.3056849
  50.3866745  87.8053965  82.1586343  49.5962288  87.7878103  81.6190843
  50.1500099  88.3442258  82.9135380  50.5064620  84.6546431  79.4719072
  50.5562625  84.4896438  80.4134595  50.3978543  83.7873690  79.0816953
  39.3900878  87.3334977  66.7611161  39.5388999  88.0170441  66.1077833
  40.1967322  87.3140067  67.2760616  47.7968382  80.6377359  80.7878379
  48.6978245  80.4983824  80.4962376  47.8716357  80.8031814  81.7276556
  42.1311187  78.0144214  79.6331565  41.2614497  78.3077780  79.3614153
  42.3670668  78.5984659  80.3538829  52.0082816  87.0743372  79.7161093
  51.7167625  87.4373353  80.5524554  51.3954948  86.3610381  79.5374425
  53.2078499  84.6396252  72.2363664  54.0425390  85.0786056  72.4001224
  53.3437628  84.1634905  71.4171909  50.2570005  82.1975987  78.1841151
  50.7324126  82.3903633  77.3760003  49.3335570  82.2535173  77.9384535
  37.1453511  83.3600154  67.7672230  36.8999553  82.4562484  67.9652440
  37.3149426  83.3617305  66.8251708  44.8350221  74.2323831  77.1496985
  45.3532165  74.9684858  76.8243474  44.4805354  74.5387824  77.9843744
  45.0862815  70.6524113  72.6697882  45.3664569  69.9847302  73.2958308
  45.8713422  70.8453209  72.1572546  42.8896284  89.8283107  64.2322908
  42.3170251  90.4473294  63.7793380  43.4629078  90.3782469  64.7662830
  48.9571674  79.0741747  76.4169457  49.9089097  79.1739845  76.4381681
  48.7875124  78.2820016  76.9267541  46.9786053  76.1597330  76.6028858
  46.3835985  76.4402343  75.9075347  46.6935750  76.6491231  77.3745599
  46.1093544  90.1120257  65.3631490  47.0424217  90.0465819  65.5664366
  46.0216756  90.9476524  64.9046023  48.7381560  89.4286128  62.3235438
  48.6595192  89.0945991  63.2171196  49.5591227  89.9207895  62.3226910
  51.4359751  82.2947867  75.5311757  51.4036072  81.3563868  75.7171440
  52.0460375  82.3731904  74.7977582  51.5854240  79.0858910  75.5770040
  51.0693289  78.3017367  75.3899969  52.4694188  78.7577627  75.7416559
  57.2536301  83.3563874  74.6717793  57.9839690  83.0949162  75.2325497
  56.6443247  82.6192596  74.7119861  55.3351598  81.4971736  75.2692245
  54.6084762  81.3627701  74.6608736  54.9198885  81.8048565  76.0748963
  43.1581775  85.2161666  83.0339618  44.0784784  85.3940265  83.2279664
  43.1231358  84.2717711  82.8819317  32.3763940  80.4100260  71.9592892
  32.0566724  79.5565568  71.6667266  31.8297368  80.6248838  72.7150860
  36.1543847  83.1262701  75.6762399  36.3729857  84.0579808  75.6950433
  36.5669621  82.7670675  76.4617203  41.0271713  78.6995906  85.0665148
  40.9268440  79.6490263  84.9977239  40.8093255  78.3714145  84.1941218
  32.2452200  84.0303171  73.9286014  31.5515671  83.6157124  73.4155968
  32.9925191  84.0723708  73.3319433  46.8320987  74.2214416  70.9962368
  47.3320765  74.3330950  70.1876687  47.4756595  73.9175468  71.6363177
  40.8902983  82.1293045  83.8830209  40.4070065  82.9293405  84.0894098
  40.9763922  82.1400990  82.9297653  34.1588942  83.9621425  71.8052029
  34.1359631  84.0609112  70.8533912  34.4689579  84.8086576  72.1269195
  36.8176320  86.0197580  75.9198643  37.7719574  85.9881522  75.8528575
  36.6188844  85.5588204  76.7348869  37.4075702  84.5898696  78.4869441
  38.2268591  85.0842775  78.5104278  37.6812510  83.6730664  78.4587008
  47.1642299  76.9809448  67.8497396  46.2768154  77.2659099  67.6317591
  47.5796288  76.8203212  67.0024673  50.5156835  77.0055969  71.5651736
  51.2917225  77.4952422  71.8376352  49.7904969  77.4314023  72.0223605
  52.9529393  77.7183588  72.6225676  53.5473884  77.4779324  71.9118984
  53.0255977  76.9990719  73.2499213  35.1726549  91.5617199  72.9368841
  35.0381017  90.8017600  72.3706839  34.7558611  92.2858099  72.4697630
  46.3085512  86.7454123  61.9445416  47.0121362  86.9504125  62.5603072
  45.5848161  87.3130885  62.2094500  47.1383322  82.4963984  68.0647687
  47.0818524  82.9532536  67.2255319  47.6911665  81.7354669  67.8870529
  50.9488128  78.2853716  68.8897806  50.6925063  77.8850352  69.7206014
  50.3240996  78.9997510  68.7647945  55.2600466  81.0249789  71.3969097
  54.7000024  81.0942979  72.1700659  54.6543969  80.8490774  70.6768594
  38.3295675  92.4586516  73.1487284  38.2128059  93.4031949  73.0465974
  37.5088121  92.1560078  73.5373083  48.2172209  87.1836652  63.9943876
  49.0517813  86.7517851  63.8121351  48.0556552  87.0118666  64.9220771
  47.8718102  83.6868765  65.3600216  47.8166905  83.5213037  64.4188660
  47.2464157  84.3944798  65.5162405  32.6610617  78.9236830  79.1861638
  33.3069480  78.4135784  79.6748863  32.4527768  79.6605511  79.7605063
  45.1864009  85.9917677  84.6853778  46.0555168  86.1658330  84.3240413
  44.7070760  86.8112094  84.5629508  39.3550189  93.1114778  76.3643212
  40.2577436  93.1438389  76.6809707  39.1287559  92.1815229  76.3789548
  41.1103791  91.8645765  73.0253291  40.1599422  91.8647626  72.9117663
  41.4136277  91.1178499  72.5089325  37.0008108  76.0704447  83.2836652
  37.8639569  75.7141252  83.4939977  36.4273518  75.7318342  83.9712056
  56.8456485  97.7006303  74.0899053  57.4834895  97.5813051  73.3862393
  56.7277327  98.6487147  74.1487005  53.6546191  97.6533731  74.0260578
  53.3164702  97.5374796  73.1381113  54.5235959  97.2524896  74.0061584
  49.5133007  99.5069208  70.0157469  48.9497872  99.4159145  69.2473757
  49.3985402  98.6869112  70.4959961  54.1365974  98.8068583  79.9846783
  54.1254615  98.4121381  79.1127287  54.2986613  98.0734656  80.5780555
  47.0597438 101.0020399  72.8541689  47.8518730 100.6611224  72.4387989
  47.2994089 101.1115374  73.7743843  55.0932565 103.1740175  65.3271934
  54.4420545 103.7594256  64.9405947  55.8876928 103.7046370  65.3866971
  49.0188192 100.2629313  65.7259068  49.7919068  99.7158300  65.5871944
  49.3713591 101.1273562  65.9373529  50.8573235 101.5905695  78.9325967
  50.5663101 102.4951326  78.8172634  51.4930219 101.6322223  79.6470037
  51.7829442  98.9682543  75.5227327  52.3793014  98.7438566  74.8084290
  51.8404413  98.2267289  76.1252775  51.3554470  96.4221979  63.3577518
  51.6079991  95.9003500  62.5960981  50.4179029  96.2588124  63.4604202
  56.3997753  95.4257757  71.1652261  57.1860842  95.0077180  70.8142678
  56.6636457  96.3303849  71.3333910  56.5707830 100.8630607  65.8640918
  55.9353663 100.9365234  66.5761823  56.2405237 101.4524206  65.1859997
  61.8006180  95.3632990  72.0685240  62.5331352  94.7932207  72.3023069
  61.0445536  94.9754591  72.5091745  51.0750759  98.3250085  65.5601893
  50.9587017  97.6494988  66.2282977  51.1853019  97.8382459  64.7434046
  53.4182300  97.7860232  69.2648582  53.0540507  97.2590853  69.9761504
  54.2749416  97.3958701  69.0915068  59.3231601  89.0754564  76.5279848
  58.9914925  89.9449975  76.3041063  58.7277214  88.7590848  77.2073879
  53.0587787  92.8150132  64.2609931  53.2262189  93.6830368  64.6280402
  52.8684956  92.9777413  63.3371220  55.8163120 101.2767110  75.9275761
  55.5163843 102.1792149  75.8191568  55.4714180 101.0099294  76.7796914
  49.2675602  97.7280907  71.9612465  48.3426098  97.5957121  72.1690157
  49.5160015  98.5075126  72.4582408  59.2160264  93.7949651  73.6073198
  58.3077141  93.7265059  73.3131959  59.1647860  94.2721596  74.4355024
  53.0377008  95.2707789  65.2456597  52.9176633  95.7164840  66.0842078
  52.3429596  95.6193107  64.6870136  46.6284413  97.3714181  72.7956255
  46.7576794  97.6248660  73.7095666  45.9481864  97.9641889  72.4760910
  50.7983900 108.0411431  68.8946729  50.7207930 108.9919256  68.9735209
  50.1945543 107.6957303  69.5521655  53.2901130  95.2139296  81.5508096
  52.5134464  95.7733216  81.5410960  53.9291693  95.6996079  82.0722966
  61.0821910  91.9966089  75.3851072  60.4396291  92.2898622  74.7390867
  60.5776839  91.8819009  76.1904269  58.7362074  95.7429262  66.0736932
  59.6479930  95.9756649  65.8984629  58.2271721  96.3266306  65.5112010
  51.5447502  98.0224750  81.1126063  52.2862186  98.5609794  80.8360886
  50.8384487  98.6491038  81.2697614  57.0202842 100.1653890  79.7098224
  57.4286198  99.7236301  78.9652856  56.2980103  99.5906518  79.9632417
  53.3733912  95.1026497  77.0831781  54.2195107  95.5265910  77.2266430
  53.3132549  94.4460121  77.7770344  57.3431656 100.7255081  73.4650513
  56.7140519 100.8900795  72.7626581  56.9557318 101.1396690  74.2361477
  61.2220888 101.6609518  70.8194877  60.5371926 102.0408420  70.2691910
  61.3064737 102.2704845  71.5526825  56.5233357  92.7630865  78.7412955
  56.2794289  93.5172926  78.2047230  56.7993287  93.1416213  79.5760202
  58.4771820  99.3069478  77.4190220  58.6888715  99.9501237  76.7424601
  58.4301568  98.4731794  76.9512150  56.0798049  91.9187298  74.3226792
  55.2182528  92.2168552  74.6143530  56.1060483  92.1357697  73.3907825
  52.8959618 100.4629489  70.7300598  53.3597964 100.7417192  69.9405221
  52.6316416  99.5612933  70.5473689  49.7883699 100.0100970  73.6680361
  50.3585056 100.4388239  73.0297846  50.3791811  99.7283555  74.3664547
  51.8328504  96.5852641  67.5390163  52.5352548  97.0373685  68.0064090
  51.5009133  95.9436460  68.1670056  50.2808866  95.1764398  81.9141373
  49.6507526  95.8580679  82.1476769  50.1744954  95.0647479  80.9694511
  45.5753838  94.8436194  72.8407297  44.7852892  95.0993722  72.3647407
  46.0665086  95.6584532  72.9459337  59.5917648 102.1841433  75.5912578
  60.4135091 101.7821620  75.3095259  59.5880051 102.0809667  76.5428693
  47.5268584  95.2080773  69.7990774  46.7299747  95.3199467  70.3174269
  47.2994176  95.5467425  68.9331664  53.3574251 101.7325476  77.7473288
  53.4218684 102.1945883  78.5831460  52.6485175 101.1022841  77.8755598
  43.8591541  95.0966684  75.2722288  44.1099580  95.9813694  75.5379864
  44.3951090  94.9171286  74.4997379  67.6823641  98.5280181  71.9397549
  66.9287349  97.9587579  71.7841554  67.8171182  98.4942846  72.8868184
  53.0722269 103.3993584  67.6152268  52.9367944 104.2445119  68.0437116
  53.6132081 103.6012861  66.8518202  49.5589608  89.4785164  84.2766624
  49.1656554  88.9251362  84.9514268  50.3755749  89.7895742  84.6673141
  46.5251666 100.9169022  68.1880194  47.0376187 101.7112272  68.3385758
  47.1774379 100.2195312  68.1213795  48.3346551 104.0334778  70.2702947
  48.5113179 104.9552743  70.0823931  49.1303384 103.7193197  70.6997327
  52.4757569  90.8943043  81.8686880  53.2167283  91.4950196  81.7891343
  52.7075492  90.1520680  81.3104923  47.6198907  96.0799410  80.1465110
  47.5052423  95.1784667  80.4472209  46.7643425  96.3263107  79.7949926
  54.6990745 104.0217150  81.7452611  54.2554599 103.2353529  81.4273515
  55.3607959 104.2096301  81.0796501  49.4577866 105.5512952  76.2713289
  50.0085291 105.4230015  75.4990283  48.6189342 105.8507841  75.9208182
  56.7971983 104.3019950  79.7734012  56.7790459 105.1228831  79.2814281
  57.7191903 104.1774025  79.9984153  53.2545037 101.8164080  80.6157520
  53.7873374 101.0552368  80.3856828  52.7259118 101.5237731  81.3581675
  56.4214732  86.9224146  76.1451162  56.0779002  87.8125787  76.0690273
  56.7893695  86.7325803  75.2820747  44.4900583  99.2457676  68.9639764
  45.3275805  99.6554684  68.7473472  44.6678851  98.3057118  68.9339958
  56.3865015  96.9132757  64.6523597  55.8711639  97.6837361  64.8911984
  56.1142324  96.2397893  65.2756658  53.9712126  91.7582457  69.7108835
  53.1153722  91.3689308  69.5314474  54.3839078  91.8374418  68.8508621
  55.5011273  89.2928801  74.1100395  54.9976068  89.2558936  73.2968200
  55.7941880  90.2021543  74.1697052  51.7454159  89.3767530  73.1166577
  52.6107155  89.1810339  72.7572466  51.8131668  89.1477882  74.0435934
  61.3599289  99.6665111  66.5876771  60.5828732  99.3276271  66.1431933
  62.0390770  99.6717735  65.9131736  56.1751318  94.7859849  66.4783378
  55.8701454  95.1005998  67.3293521  57.1281760  94.8641269  66.5210711
  54.6197750 100.9450072  68.1276332  54.0919112 100.2102832  67.8149570
  54.1185253 101.7224748  67.8816301  59.5990596  99.1399093  73.2443379
  58.9414271  99.8298354  73.3323507  60.4030995  99.5295525  73.5877365
  49.3516478  91.6069738  70.4882944  49.9260230  91.3844920  69.7556137
  49.9387460  91.6758433  71.2411545  58.4096055  97.4943465  71.2947320
  58.9227937  98.1273457  71.7969030  59.0597279  96.8944661  70.9290680
  49.6786065  93.6374199  64.5078829  48.8423377  93.9748886  64.8288104
  49.5390834  93.5023179  63.5705966  51.6539145  88.4810987  69.2158013
  51.0003558  88.1660004  68.5914628  51.6119620  87.8586728  69.9417836
  52.7650350  98.7630282  61.1311305  51.8577412  98.5319536  61.3302454
  53.2621382  97.9667902  61.3185287  55.6718429 107.4727790  64.0507991
  54.9980128 107.7759486  64.6592949  56.0584251 108.2756870  63.7013448
  54.8876886  94.9692921  73.5405661  53.9699447  95.1907868  73.3827349
  55.3037029  95.0439231  72.6817368  55.6711934  96.3684337  68.6708341
  56.4183752  96.8805734  68.3615463  55.9403523  96.0468389  69.5312735
  53.9438584  98.8642877  65.6535295  53.0349803  98.5801910  65.7507765
  53.9733668  99.2841956  64.7938602  59.1757851 102.4749467  69.4226463
  58.7220178 101.6340377  69.4791653  58.5451818 103.1110865  69.7601243
  58.1190771  93.4041453  70.6527130  57.3813527  92.8918839  70.9837373
  58.3717544  92.9641834  69.8410407  57.6190790 104.3125963  70.3576281
  57.9113765 104.8731021  69.6388647  58.1289411 104.6054524  71.1129440
  58.2202398  86.1817705  71.2468900  58.5261275  85.3215068  70.9594815
  58.9455003  86.7735325  71.0467894  44.5126754  96.5848391  69.6350498
  44.3151154  95.9917752  68.9101564  43.9573418  96.2800602  70.3526436
  52.4923478  96.4771498  71.7545091  52.5472088  95.5245334  71.6787567
  51.6814680  96.6330937  72.2386389  53.6414672 100.4051621  62.9923374
  53.2034101  99.6887480  62.5329011  54.3825112 100.6327736  62.4308465
  50.4315838  95.0948558  69.5135470  49.6183703  95.3942728  69.9200662
  50.9274832  94.7004246  70.2309952  52.5824416 105.0906315  71.4469734
  52.5400594 105.3167161  70.5178266  53.4987114 104.8569689  71.5955535
  56.0290049  95.5590382  78.3450363  56.3839437  95.7861855  79.2044829
  56.6762181  95.8908759  77.7227619  61.7587786  98.6808818  69.0499692
  61.6205685  98.8710414  68.1220882  61.4024005  99.4428201  69.5067744
  49.9229912  92.6666913  75.1296704  50.5629292  92.5255672  74.4319668
  49.0907443  92.3801427  74.7535306  61.7857166 100.7485345  74.0610964
  62.2193673 100.6560634  74.9094018  62.4988747 100.7242845  73.4230980
  50.6990216 101.9669344  71.2431697  51.4930815 101.4719664  71.0414272
  49.9881909 101.4387207  70.8799403  55.5185061 104.3487439  75.5944065
  55.5722083 104.9178375  76.3621780  54.6499842 104.5189324  75.2298102
  47.0072980  96.1112425  67.3191450  46.0770568  96.0496881  67.5361412
  47.1030452  95.5888378  66.5228091  46.9258529  92.6367238  69.9069691
  47.1865346  93.5512571  69.7978852  47.7475701  92.1691681  70.0566304
  48.3983454  94.0504995  77.0768516  49.0706508  93.8422357  76.4281165
  47.5713241  93.8527081  76.6373748  62.6472715 100.7909046  76.5943849
  62.8408606 101.6954856  76.8403124  62.5473334 100.3316465  77.4282434
  54.3009026  90.6766936  79.0934177  53.6536941  91.3756886  78.9998653
  55.0710042  91.1103080  79.4610425  57.7087824 100.9415788  82.1684730
  57.5573331 100.7126340  81.2514814  57.6992504 101.8986390  82.1816075
  54.4773161  98.5147701  77.1530996  55.4065221  98.6658861  76.9799964
  54.0564191  98.6031722  76.2979643  53.2761492 102.5398366  74.9229534
  53.1372578 102.1717150  75.7955472  52.4876089 103.0546005  74.7513492
  53.8709644 107.6407462  66.2655071  54.0461400 107.1695505  67.0800693
  53.1842432 108.2673228  66.4936331  54.8266707 101.9179968  72.3118372
  54.4916540 101.8780738  73.2076022  54.3270653 101.2524684  71.8388782
  48.8010951  97.3247598  77.8370953  48.6630749  96.5927837  78.4382492
  49.7115875  97.2356498  77.5555141  57.7625899  99.2636003  62.5855431
  57.1455070  98.5382831  62.4888484  57.2942388 100.0245363  62.2422506
  51.4293252  97.0367558  77.3254633  52.1392871  96.3960750  77.2841251
  51.3862560  97.2880452  78.2480813  59.4180031 103.9734911  80.2461212
  59.3592577 103.2894131  79.5791795  59.8199549 104.7153901  79.7941838
  50.1422186  94.0232775  79.1450272  49.6059543  93.5723514  79.7971868
  49.5538895  94.1578684  78.4020736  48.4370730 110.7896825  73.0394931
  48.6767328 111.4215349  73.7173949  47.5939926 110.4384865  73.3260290
  49.5524445  93.4821427  61.7076736  48.6753911  93.3610228  61.3438982
  50.0282198  92.6907505  61.4555624  59.4197438 101.9374495  78.4775192
  58.5324217 101.6000417  78.6001590  59.9895989 101.2057526  78.7143957
  41.0726585  98.2698587  71.8018243  41.7597625  97.9560317  71.2139258
  40.9174714  99.1739951  71.5285494  45.8761307  93.1588783  76.2303267
  45.7919496  92.5514453  75.4953677  45.0544014  93.6497801  76.2312763
  52.9498591 106.5975947  75.4436435  52.8768763 107.4030919  75.9555739
  52.5075985 106.7967913  74.6184456  52.7388371 105.8347717  68.9539256
  51.9555893 106.3769397  69.0477481  53.4381116 106.3521697  69.3533497
  56.0485021  91.6442347  71.5973462  56.5453721  90.8912309  71.2774532
  55.2772003  91.6806663  71.0316671  63.9014779  97.3482712  73.2391753
  63.8904655  98.2307428  72.8685686  63.0332158  96.9954263  73.0446290
  55.4097275 106.4962781  77.5994593  56.1225247 107.1310246  77.5270495
  54.9187304 106.5926647  76.7834595  57.1314802 100.4014034  69.1711885
  56.1971081 100.5215496  69.0016589  57.3091470  99.4986501  68.9071895
  52.6319990  93.7859730  71.3245146  52.2617777  93.2330770  72.0126052
  53.1279082  93.1817863  70.7720146  60.5187353  96.2431353  69.7061919
  60.9847805  97.0759345  69.6322222  60.9694854  95.7776335  70.4107178
  50.4609189 104.2457225  78.4200164  51.1618648 104.8793708  78.5729558
  49.9904304 104.5871956  77.6595803  58.5863584 102.5875174  66.7048071
  58.8623428 102.4731769  67.6141945  57.7168083 102.1892659  66.6660244
  58.4904016  88.6111940  73.7452821  57.5767096  88.8416167  73.9135027
  58.9197117  88.6950384  74.5966853  58.2610474  96.8001832  76.2452715
  57.6081925  97.0477740  75.5905167  58.6390854  95.9865970  75.9115192
  55.2217648 106.8361525  70.3480885  55.4040043 106.0183181  70.8108637
  56.0450634 107.0529218  69.9105775  55.5559814 105.7629710  67.6095933
  56.0847580 105.2522165  66.9966095  55.8188033 105.4472241  68.4741466
  54.3098048  97.5421643  82.7318752  53.6338685  97.4415773  83.4021127
  55.1325681  97.3860857  83.1954749  46.0576907 103.7793580  75.3531267
  46.6430343 103.0337268  75.4859171  45.8601745 104.0897536  76.2367931
  48.9115562 106.8144827  70.3693709  48.2425937 107.2990955  69.8857749
  48.7728431 107.0614048  71.2837088  40.6494561  96.3499180  74.0735710
  40.6878661  95.8162771  74.8672828  40.1434854  95.8234385  73.4546687
  53.0520830 108.8488571  76.9676368  53.6039138 109.0120192  77.7325453
  53.3927024 109.4393008  76.2956392  48.0285324  91.1963720  77.5698252
  48.0926650  92.0578551  77.1575650  47.9652444  90.5837722  76.8370611
  47.5037596  93.2686853  81.2171287  48.1309635  92.8863930  81.8308811
  46.6465515  93.0501055  81.5826979  57.9031705 103.6749828  82.8225022
  58.4471609 104.2879786  82.3279977  57.3218550 104.2329407  83.3392035
  44.2803139  95.0763282  67.1489641  44.5756580  94.1673961  67.0956695
  43.3791175  95.0551022  66.8270644  56.1889218 106.7970546  73.9540050
  56.0640357 105.9960286  73.4450995  56.8468309 107.2916740  73.4654020
  47.8097386  93.1519279  73.1317190  47.0883972  93.7655246  72.9924663
  48.5990642  93.6877044  73.0533836  58.2524126 104.5979566  75.5819600
  57.3054462 104.4784917  75.5097927  58.6006899 103.7102064  75.6645861
  50.6123699  90.4873705  79.4057842  51.1358101  90.7336002  80.1684151
  50.3936033  91.3193740  78.9860979  46.0090980  92.7577380  67.2728967
  45.6803687  91.8774759  67.0904072  46.3630351  92.7025048  68.1605356
  55.2570559 104.3932282  71.7823952  55.1095522 103.4648990  71.9631522
  56.0824053 104.4152373  71.2981027  49.1232804  93.0450350  67.6404444
  49.4628876  93.5736271  66.9183053  49.5704924  93.3830756  68.4163011
  58.8604681 105.2160841  72.8688825  59.7851229 105.0103703  72.7313276
  58.6919985 104.9677242  73.7778166  51.8176244  91.4287400  77.0907512
  51.4773065  90.6295213  77.4928192  51.1115251  91.7289111  76.5184345
  52.4692716  88.5136713  75.5434835  53.2918786  88.0397191  75.4213726
  52.7130780  89.2927196  76.0433522  51.1100951  91.5424971  65.8397737
  51.8309313  91.9206224  65.3361454  50.4866255  92.2613848  65.9432715
  55.2532074  92.2470120  66.7756069  55.4695688  93.1294758  66.4744898
  54.7726141  91.8556334  66.0461711  49.9931295  95.2055833  73.3526814
  49.8475876  95.5196136  74.2451095  49.5156499  95.8240734  72.7997713
  51.8527678  92.1958381  73.4007703  51.8389247  91.2999475  73.0640001
  52.5700106  92.2029045  74.0345990  53.7053809  92.6295722  75.4460831
  53.4471586  93.5512792  75.4445161  53.1738849  92.2326156  76.1361295
  58.6499997 105.7346509  68.2250916  58.8236875 105.1692931  67.4724769
  59.1428889 106.5347404  68.0430406  44.4676957  97.7461178  76.2914475
  43.9230425  98.5220986  76.4234749  45.3456307  98.0931982  76.1333597
  51.2564574  91.0772762  68.6695274  51.3780485  90.1489408  68.8686161
  50.9666616  91.0911448  67.7573589  54.1255764  88.7627672  71.8061993
  54.1477461  88.8267005  70.8513973  54.5423823  87.9232181  72.0002500
  64.5039389  98.4982932  69.8441216  64.9470535  97.7490257  69.4460339
  63.6265899  98.4893068  69.4614948  59.6375170 105.0513273  65.3247815
  60.3326075 105.6719966  65.5435129  59.9798320 104.2008624  65.6000192
  45.2542979  96.8731074  79.1844632  44.5124715  97.0213709  79.7709262
  44.9335723  97.1339340  78.3211381  61.5366593 102.5012979  66.8535145
  62.0617917 102.8400251  66.1284465  61.4488946 101.5659994  66.6698280
  53.1986642 106.4147052  78.9825022  53.5073768 106.1696199  79.8547722
  53.9962124 106.6193691  78.4943892  53.2207254 108.5684962  71.2130399
  52.7812244 108.0761341  71.9063255  53.9715371 108.0257930  70.9722474
  45.6999593 104.7596503  71.2155027  46.5257613 104.4600275  70.8353670
  45.3493645 103.9904125  71.6644815  50.6681126 104.1122971  73.2852700
  50.0461135 103.4493676  72.9854928  51.3385993 104.1384103  72.6026348
  43.9008198 102.6782829  72.1743960  43.0640106 102.2505004  71.9927961
  43.8731843 102.8715273  73.1114751  50.7405653  92.5904759  82.8785206
  50.7893809  93.4666882  82.4962976  51.2828168  92.0482152  82.3056849
  61.2260499 103.1345882  82.1586343  60.4356043 103.1170021  81.6190843
  60.9893854 103.6734176  82.9135380  61.3458374  99.9838349  79.4719072
  61.3956379  99.8188356  80.4134595  61.2372297  99.1165608  79.0816953
  50.2294633 102.6626894  66.7611161  50.3782753 103.3462359  66.1077833
  51.0361076 102.6431984  67.2760616  58.6362137  95.9669277  80.7878379
  59.5371999  95.8275741  80.4962376  58.7110111  96.1323731  81.7276556
  52.9704942  93.3436131  79.6331565  52.1008251  93.6369697  79.3614153
  53.2064422  93.9276576  80.3538829  62.8476571 102.4035290  79.7161093
  62.5561379 102.7665271  80.5524554  62.2348702 101.6902298  79.5374425
  64.0472253  99.9688170  72.2363664  64.8819145 100.4077974  72.4001224
  64.1831382  99.4926823  71.4171909  61.0963759  97.5267905  78.1841151
  61.5717881  97.7195551  77.3760003  60.1729325  97.5827091  77.9384535
  47.9847266  98.6892072  67.7672230  47.7393308  97.7854402  67.9652440
  48.1543180  98.6909222  66.8251708  55.6743976  89.5615748  77.1496985
  56.1925920  90.2976775  76.8243474  55.3199108  89.8679742  77.9843744
  47.2542913  94.4220430  65.2658391  46.5612158  94.4964785  64.6098427
  47.0094665  93.6580773  65.7879908  55.9256570  85.9816031  72.6697882
  56.2058324  85.3139220  73.2958308  56.7107177  86.1745126  72.1572546
  53.7290038 105.1575025  64.2322908  53.1564005 105.7765212  63.7793380
  54.3022832 105.7074386  64.7662830  59.7965428  94.4033665  76.4169457
  60.7482851  94.5031763  76.4381681  59.6268879  93.6111933  76.9267541
  57.8179808  91.4889248  76.6028858  57.2229740  91.7694261  75.9075347
  57.5329504  91.9783149  77.3745599  56.9487298 105.4412175  65.3631490
  57.8817971 105.3757737  65.5664366  56.8610511 106.2768442  64.9046023
  59.5775315 104.7578045  62.3235438  59.4988946 104.4237909  63.2171196
  60.3984982 105.2499813  62.3226910  62.2753506  97.6239785  75.5311757
  62.2429826  96.6855785  75.7171440  62.8854130  97.7023821  74.7977582
  54.1136837  96.4935838  61.5738961  55.0595942  96.3642046  61.6427379
  53.7351082  95.7550499  62.0508389  62.4247994  94.4150828  75.5770040
  61.9087043  93.6309285  75.3899969  63.3087943  94.0869545  75.7416559
  60.0858721  88.1591844  71.5365852  59.8883543  87.8506932  72.4209184
  60.6958427  88.8853482  71.6663782  68.0930056  98.6855791  74.6717793
  68.8233444  98.4241080  75.2325497  67.4837001  97.9484513  74.7119861
  66.1745353  96.8263654  75.2692245  65.4478517  96.6919619  74.6608736
  65.7592640  97.1340483  76.0748963  53.9975529 100.5453584  83.0339618
  54.9178539 100.7232183  83.2279664  53.9625112  99.6009629  82.8819317
  52.2979754  94.4185814  61.5093846  51.3911209  94.1218927  61.5856560
  52.5755735  94.1215632  60.6428132  43.2157694  95.7392177  71.9592892
  42.8960479  94.8857485  71.6667266  42.6691123  95.9540755  72.7150860
  46.9937602  98.4554618  75.6762399  47.2123612  99.3871726  75.6950433
  47.4063376  98.0962593  76.4617203  53.9141820  88.9622704  67.6638087
  53.1042548  88.6169789  68.0393333  54.6026237  88.6530247  68.2525699
  55.8432368  88.0400750  69.2862384  56.3963407  88.4596204  69.9452407
  56.0802454  87.1136499  69.3285340  51.8665467  94.0287824  85.0665148
  51.7662194  94.9782181  84.9977239  51.6487009  93.7006063  84.1941218
  51.0678539  91.2772749  61.6505825  51.9297703  91.6027647  61.9101642
  51.2528883  90.4904245  61.1378891  43.0845954  99.3595089  73.9286014
  42.3909426  98.9449042  73.4155968  43.8318945  99.4015625  73.3319433
  59.2211175  90.1501276  68.7941048  58.6409844  90.8086080  68.4119101
  58.9547108  89.3278620  68.3828466  57.6714741  89.5506333  70.9962368
  58.1714520  89.6622868  70.1876687  58.3150349  89.2467386  71.6363177
  51.7296737  97.4584963  83.8830209  51.2463819  98.2585323  84.0894098
  51.8157676  97.4692908  82.9297653  44.9982697  99.2913343  71.8052029
  44.9753385  99.3901030  70.8533912  45.3083333 100.1378493  72.1269195
  47.6570075 101.3489498  75.9198643  48.6113328 101.3173440  75.8528575
  47.4582598 100.8880121  76.7348869  48.2469457  99.9190614  78.4869441
  49.0662346 100.4134692  78.5104278  48.5206265  99.0022582  78.4587008
  58.0036053  92.3101366  67.8497396  57.1161908  92.5951017  67.6317591
  58.4190042  92.1495129  67.0024673  61.3550589  92.3347887  71.5651736
  62.1310979  92.8244339  71.8376352  60.6298723  92.7605941  72.0223605
  63.7923148  93.0475506  72.6225676  64.3867639  92.8071242  71.9118984
  63.8649732  92.3282637  73.2499213  46.0120304 106.8909117  72.9368841
  45.8774771 106.1309518  72.3706839  45.5952366 107.6150017  72.4697630
  57.1479267 102.0746041  61.9445416  57.8515117 102.2796043  62.5603072
  56.4241915 102.6422803  62.2094500  57.9777077  97.8255902  68.0647687
  57.9212278  98.2824453  67.2255319  58.5305419  97.0646586  67.8870529
  61.7881883  93.6145634  68.8897806  61.5318817  93.2142269  69.7206014
  61.1634751  94.3289428  68.7647945  66.0994221  96.3541707  71.3969097
  65.5393779  96.4234896  72.1700659  65.4937724  96.1782692  70.6768594
  49.1689429 107.7878434  73.1487284  49.0521814 108.7323867  73.0465974
  48.3481876 107.4851996  73.5373083  59.0565964 102.5128570  63.9943876
  59.8911568 102.0809768  63.8121351  58.8950307 102.3410584  64.9220771
  58.7111856  99.0160683  65.3600216  58.6560660  98.8504955  64.4188660
  58.0857911  99.7236716  65.5162405  43.5004371  94.2528748  79.1861638
  44.1463235  93.7427701  79.6748863  43.2921522  94.9897429  79.7605063
  56.0257763 101.3209595  84.6853778  56.8948923 101.4950247  84.3240413
  55.5464515 102.1404012  84.5629508  52.0207982  88.5168792  64.9385534
  52.0086651  89.4610632  65.0953805  52.9131403  88.3338938  64.6444995
  50.1943944 108.4406696  76.3643212  51.0971190 108.4730306  76.6809707
  49.9681314 107.5107147  76.3789548  51.9497546 107.1937683  73.0253291
  50.9993177 107.1939544  72.9117663  52.2530032 106.4470417  72.5089325
  55.8360101  85.1111569  69.1931471  55.0692497  84.5570055  69.3388153
  56.2470806  85.1833438  70.0545623  47.8401862  91.3996365  83.2836652
  48.7033324  91.0433169  83.4939977  47.2667273  91.0610259  83.9712056
  67.6850239 113.0298221  74.0899053  68.3228649 112.9104968  73.3862393
  67.5671082 113.9779065  74.1487005  64.4939945 112.9825649  74.0260578
  64.1558457 112.8666714  73.1381113  65.3629714 112.5816814  74.0061584
  60.3526761 114.8361125  70.0157469  59.7891626 114.7451062  69.2473757
  60.2379156 114.0161030  70.4959961  64.9759728 114.1360501  79.9846783
  64.9648369 113.7413299  79.1127287  65.1380368 113.4026573  80.5780555
  57.8991193 116.3312317  72.8541689  58.6912485 115.9903142  72.4387989
  58.1387843 116.4407292  73.7743843  65.9326320 118.5032093  65.3271934
  65.2814300 119.0886174  64.9405947  66.7270683 119.0338288  65.3866971
  59.8581947 115.5921230  65.7259068  60.6312823 115.0450217  65.5871944
  60.2107346 116.4565480  65.9373529  61.6966989 116.9197613  78.9325967
  61.4056855 117.8243243  78.8172634  62.3323974 116.9614140  79.6470037
  62.6223196 114.2974461  75.5227327  63.2186769 114.0730483  74.8084290
  62.6798168 113.5559207  76.1252775  62.1948225 111.7513896  63.3577518
  62.4473745 111.2295418  62.5960981  61.2572784 111.5880042  63.4604202
  67.2391508 110.7549675  71.1652261  68.0254597 110.3369098  70.8142678
  67.5030212 111.6595767  71.3333910  67.4101585 116.1922525  65.8640918
  66.7747418 116.2657152  66.5761823  67.0798991 116.7816124  65.1859997
  72.6399935 110.6924908  72.0685240  73.3725107 110.1224125  72.3023069
  71.8839290 110.3046508  72.5091745  61.9144513 113.6542002  65.5601893
  61.7980772 112.9786906  66.2282977  62.0246773 113.1674376  64.7434046
  64.2576054 113.1152149  69.2648582  63.8934262 112.5882770  69.9761504
  65.1143170 112.7250619  69.0915068  70.1625355 104.4046482  76.5279848
  69.8308680 105.2741893  76.3041063  69.5670968 104.0882766  77.2073879
  63.8981541 108.1442049  64.2609931  64.0655944 109.0122286  64.6280402
  63.7078710 108.3069331  63.3371220  66.6556875 116.6059028  75.9275761
  66.3557598 117.5084067  75.8191568  66.3107934 116.3391211  76.7796914
  60.1069356 113.0572825  71.9612465  59.1819853 112.9249039  72.1690157
  60.3553769 113.8367044  72.4582408  70.0554018 109.1241568  73.6073198
  69.1470896 109.0556977  73.3131959  70.0041614 109.6013513  74.4355024
  63.8770762 110.5999707  65.2456597  63.7570387 111.0456757  66.0842078
  63.1823351 110.9485024  64.6870136  57.4678167 112.7006098  72.7956255
  57.5970548 112.9540577  73.7095666  56.7875618 113.2933806  72.4760910
  64.1294884 110.5431214  81.5508096  63.3528218 111.1025134  81.5410960
  64.7685447 111.0287997  82.0722966  71.9215665 107.3258007  75.3851072
  71.2790045 107.6190540  74.7390867  71.4170593 107.2110927  76.1904269
  69.5755828 111.0721180  66.0736932  70.4873685 111.3048567  65.8984629
  69.0665475 111.6558224  65.5112010  62.3841256 113.3516667  81.1126063
  63.1255941 113.8901711  80.8360886  61.6778242 113.9782956  81.2697614
  67.8596596 115.4945808  79.7098224  68.2679952 115.0528218  78.9652856
  67.1373858 114.9198435  79.9632417  64.2127666 110.4318414  77.0831781
  65.0588861 110.8557828  77.2266430  64.1526304 109.7752039  77.7770344
  68.1825411 116.0546998  73.4650513  67.5534273 116.2192712  72.7626581
  67.7951073 116.4688608  74.2361477  72.0614643 116.9901436  70.8194877
  71.3765681 117.3700338  70.2691910  72.1458492 117.5996763  71.5526825
  67.3627111 108.0922783  78.7412955  67.1188043 108.8464843  78.2047230
  67.6387042 108.4708130  79.5760202  69.3165574 114.6361395  77.4190220
  69.5282469 115.2793155  76.7424601  69.2695322 113.8023712  76.9512150
  66.9191803 107.2479216  74.3226792  66.0576282 107.5460469  74.6143530
  66.9454238 107.4649615  73.3907825  63.7353373 115.7921406  70.7300598
  64.1991718 116.0709109  69.9405221  63.4710171 114.8904851  70.5473689
  60.6277454 115.3392888  73.6680361  61.1978811 115.7680156  73.0297846
  61.2185566 115.0575473  74.3664547  62.6722259 111.9144559  67.5390163
  63.3746302 112.3665602  68.0064090  62.3402887 111.2728378  68.1670056
  61.1202620 110.5056315  81.9141373  60.4901281 111.1872596  82.1476769
  61.0138708 110.3939397  80.9694511  56.4147593 110.1728111  72.8407297
  55.6246647 110.4285640  72.3647407  56.9058840 110.9876449  72.9459337
  70.4311402 117.5133351  75.5912578  71.2528846 117.1113538  75.3095259
  70.4273805 117.4101585  76.5428693  58.3662338 110.5372691  69.7990774
  57.5693501 110.6491385  70.3174269  58.1387930 110.8759343  68.9331664
  64.1968006 117.0617394  77.7473288  64.2612438 117.5237801  78.5831460
  63.4878930 116.4314759  77.8755598  54.6985296 110.4258602  75.2722288
  54.9493334 111.3105612  75.5379864  55.2344844 110.2463203  74.4997379
  78.5217395 113.8572099  71.9397549  77.7681104 113.2879497  71.7841554
  78.6564936 113.8234764  72.8868184  63.9116023 118.7285501  67.6152268
  63.7761698 119.5737037  68.0437116  64.4525836 118.9304779  66.8518202
  60.3983363 104.8077081  84.2766624  60.0050308 104.2543280  84.9514268
  61.2149503 105.1187660  84.6673141  57.3645421 116.2460939  68.1880194
  57.8769941 117.0404190  68.3385758  58.0168134 115.5487230  68.1213795
  59.1740305 119.3626696  70.2702947  59.3506934 120.2844660  70.0823931
  59.9697139 119.0485115  70.6997327  63.3151324 106.2234960  81.8686880
  64.0561037 106.8242113  81.7891343  63.5469247 105.4812598  81.3104923
  58.4592662 111.4091328  80.1465110  58.3446177 110.5076585  80.4472209
  57.6037180 111.6555024  79.7949926  65.5384500 119.3509068  81.7452611
  65.0948354 118.5645446  81.4273515  66.2001713 119.5388218  81.0796501
  60.2971621 120.8804869  76.2713289  60.8479046 120.7521933  75.4990283
  59.4583097 121.1799759  75.9208182  67.6365738 119.6311868  79.7734012
  67.6184213 120.4520749  79.2814281  68.5585658 119.5065943  79.9984153
  64.0938792 117.1455997  80.6157520  64.6267129 116.3844285  80.3856828
  63.5652873 116.8529649  81.3581675  67.2608487 102.2516063  76.1451162
  66.9172756 103.1417705  76.0690273  67.6287449 102.0617721  75.2820747
  55.3294337 114.5749594  68.9639764  56.1669559 114.9846602  68.7473472
  55.5072605 113.6349036  68.9339958  67.2258770 112.2424674  64.6523597
  66.7105393 113.0129279  64.8911984  66.9536078 111.5689811  65.2756658
  64.8105881 107.0874375  69.7108835  63.9547477 106.6981226  69.5314474
  65.2232832 107.1666336  68.8508621  66.3405027 104.6220718  74.1100395
  65.8369823 104.5850854  73.2968200  66.6335634 105.5313461  74.1697052
  62.5847913 104.7059448  73.1166577  63.4500910 104.5102257  72.7572466
  62.6525422 104.4769800  74.0435934  72.1993044 114.9957029  66.5876771
  71.4222486 114.6568189  66.1431933  72.8784525 115.0009652  65.9131736
  67.0145073 110.1151766  66.4783378  66.7095208 110.4297916  67.3293521
  67.9675515 110.1933186  66.5210711  65.4591505 116.2741990  68.1276332
  64.9312866 115.5394749  67.8149570  64.9579007 117.0516666  67.8816301
  70.4384351 114.4691010  73.2443379  69.7808025 115.1590272  73.3323507
  71.2424750 114.8587442  73.5877365  60.1910232 106.9361656  70.4882944
  60.7653984 106.7136838  69.7556137  60.7781215 107.0050351  71.2411545
  69.2489809 112.8235383  71.2947320  69.7621691 113.4565375  71.7969030
  69.8991033 112.2236578  70.9290680  60.5179819 108.9666117  64.5078829
  59.6817132 109.3040804  64.8288104  60.3784589 108.8315097  63.5705966
  62.4932900 103.8102905  69.2158013  61.8397312 103.4951922  68.5914628
  62.4513374 103.1878645  69.9417836  63.6044105 114.0922200  61.1311305
  62.6971167 113.8611454  61.3302454  64.1015137 113.2959819  61.3185287
  66.5112184 122.8019707  64.0507991  65.8373882 123.1051404  64.6592949
  66.8978006 123.6048788  63.7013448  65.7270640 110.2984839  73.5405661
  64.8093202 110.5199786  73.3827349  66.1430784 110.3731149  72.6817368
  66.5105688 111.6976254  68.6708341  67.2577507 112.2097651  68.3615463
  66.7797278 111.3760307  69.5312735  64.7832338 114.1934795  65.6535295
  63.8743557 113.9093828  65.7507765  64.8127422 114.6133873  64.7938602
  70.0151606 117.8041384  69.4226463  69.5613933 116.9632294  69.4791653
  69.3845572 118.4402783  69.7601243  68.9584525 108.7333370  70.6527130
  68.2207282 108.2210757  70.9837373  69.2111299 108.2933752  69.8410407
  68.4584545 119.6417881  70.3576281  68.7507519 120.2022938  69.6388647
  68.9683165 119.9346442  71.1129440  69.0596153 101.5109622  71.2468900
  69.3655029 100.6506986  70.9594815  69.7848757 102.1027243  71.0467894
  55.3520509 111.9140309  69.6350498  55.1544908 111.3209670  68.9101564
  54.7967173 111.6092519  70.3526436  63.3317232 111.8063416  71.7545091
  63.3865842 110.8537252  71.6787567  62.5208434 111.9622855  72.2386389
  64.4808426 115.7343539  62.9923374  64.0427856 115.0179398  62.5329011
  65.2218867 115.9619653  62.4308465  61.2709592 110.4240475  69.5135470
  60.4577458 110.7234646  69.9200662  61.7668586 110.0296164  70.2309952
  63.4218170 120.4198232  71.4469734  63.3794349 120.6459079  70.5178266
  64.3380869 120.1861607  71.5955535  66.8683804 110.8882300  78.3450363
  67.2233192 111.1153773  79.2044829  67.5155935 111.2200677  77.7227619
  72.5981541 114.0100736  69.0499692  72.4599439 114.2002332  68.1220882
  72.2417760 114.7720118  69.5067744  60.7623667 107.9958831  75.1296704
  61.4023046 107.8547590  74.4319668  59.9301197 107.7093344  74.7535306
  72.6250920 116.0777263  74.0610964  73.0587427 115.9852552  74.9094018
  73.3382501 116.0534763  73.4230980  61.5383971 117.2961261  71.2431697
  62.3324569 116.8011581  71.0414272  60.8275663 116.7679124  70.8799403
  66.3578815 119.6779357  75.5944065  66.4115838 120.2470293  76.3621780
  65.4893597 119.8481242  75.2298102  57.8466734 111.4404343  67.3191450
  56.9164322 111.3788798  67.5361412  57.9424206 110.9180296  66.5228091
  57.7652283 107.9659156  69.9069691  58.0259101 108.8804489  69.7978852
  58.5869456 107.4983598  70.0566304  59.2377209 109.3796913  77.0768516
  59.9100262 109.1714275  76.4281165  58.4106995 109.1818999  76.6373748
  73.4866470 116.1200963  76.5943849  73.6802360 117.0246774  76.8403124
  73.3867088 115.6608382  77.4282434  65.1402781 106.0058854  79.0934177
  64.4930696 106.7048804  78.9998653  65.9103796 106.4394998  79.4610425
  68.5481579 116.2707706  82.1684730  68.3967085 116.0418258  81.2514814
  68.5386258 117.2278307  82.1816075  65.3166915 113.8439619  77.1530996
  66.2458975 113.9950778  76.9799964  64.8957945 113.9323640  76.2979643
  64.1155247 117.8690283  74.9229534  63.9766333 117.5009068  75.7955472
  63.3269843 118.3837923  74.7513492  64.7103399 122.9699380  66.2655071
  64.8855154 122.4987423  67.0800693  64.0236187 123.5965146  66.4936331
  65.6660462 117.2471886  72.3118372  65.3310295 117.2072656  73.2076022
  65.1664408 116.5816602  71.8388782  59.6404706 112.6539516  77.8370953
  59.5024504 111.9219755  78.4382492  60.5509629 112.5648416  77.5555141
  68.6019654 114.5927920  62.5855431  67.9848824 113.8674748  62.4888484
  68.1336142 115.3537281  62.2422506  62.2687007 112.3659475  77.3254633
  62.9786625 111.7252667  77.2841251  62.2256315 112.6172370  78.2480813
  70.2573785 119.3026829  80.2461212  70.1986331 118.6186049  79.5791795
  70.6593304 120.0445819  79.7941838  60.9815941 109.3524693  79.1450272
  60.4453298 108.9015432  79.7971868  60.3932649 109.4870602  78.4020736
  60.3918200 108.8113345  61.7076736  59.5147666 108.6902145  61.3438982
  60.8675953 108.0199423  61.4555624  70.2591193 117.2666413  78.4775192
  69.3717971 116.9292334  78.6001590  70.8289744 116.5349444  78.7143957
  51.9120340 113.5990504  71.8018243  52.5991380 113.2852234  71.2139258
  51.7568468 114.5031869  71.5285494  56.7155062 108.4880701  76.2303267
  56.6313251 107.8806370  75.4953677  55.8937768 108.9789719  76.2312763
  63.7892346 121.9267865  75.4436435  63.7162517 122.7322836  75.9555739
  63.3469739 122.1259831  74.6184456  63.5782126 121.1639635  68.9539256
  62.7949647 121.7061315  69.0477481  64.2774871 121.6813615  69.3533497
  66.8878776 106.9734264  71.5973462  67.3847475 106.2204227  71.2774532
  66.1165757 107.0098581  71.0316671  74.7408533 112.6774630  73.2391753
  74.7298409 113.5599345  72.8685686  73.8725913 112.3246181  73.0446290
  66.2491029 121.8254699  77.5994593  66.9619002 122.4602164  77.5270495
  65.7581058 121.9218565  76.7834595  67.9708556 115.7305952  69.1711885
  67.0364835 115.8507414  69.0016589  68.1485225 114.8278418  68.9071895
  63.4713744 109.1151647  71.3245146  63.1011532 108.5622688  72.0126052
  63.9672837 108.5109781  70.7720146  71.3581108 111.5723271  69.7061919
  71.8241560 112.4051262  69.6322222  71.8088608 111.1068252  70.4107178
  61.3002943 119.5749142  78.4200164  62.0012402 120.2085625  78.5729558
  60.8298058 119.9163874  77.6595803  69.4257339 117.9167092  66.7048071
  69.7017183 117.8023687  67.6141945  68.5561838 117.5184577  66.6660244
  69.3297770 103.9403858  73.7452821  68.4160850 104.1708085  73.9135027
  69.7590872 104.0242302  74.5966853  69.1004229 112.1293750  76.2452715
  68.4475679 112.3769657  75.5905167  69.4784609 111.3157888  75.9115192
  66.0611403 122.1653443  70.3480885  66.2433797 121.3475099  70.8108637
  66.8844389 122.3821135  69.9105775  66.3953568 121.0921628  67.6095933
  66.9241335 120.5814083  66.9966095  66.6581788 120.7764158  68.4741466
  65.1491802 112.8713561  82.7318752  64.4732439 112.7707690  83.4021127
  65.9719436 112.7152775  83.1954749  56.8970661 119.1085497  75.3531267
  57.4824098 118.3629185  75.4859171  56.6995500 119.4189454  76.2367931
  51.4888316 111.6791098  74.0735710  51.5272415 111.1454688  74.8672828
  50.9828609 111.1526303  73.4546687  58.8679078 106.5255638  77.5698252
  58.9320405 107.3870469  77.1575650  58.8046198 105.9129640  76.8370611
  58.3431351 108.5978771  81.2171287  58.9703389 108.2155848  81.8308811
  57.4859269 108.3792973  81.5826979  68.7425459 119.0041746  82.8225022
  69.2865363 119.6171704  82.3279977  68.1612304 119.5621324  83.3392035
  55.1196893 110.4055200  67.1489641  55.4150334 109.4965878  67.0956695
  54.2184929 110.3842939  66.8270644  67.0282972 122.1262464  73.9540050
  66.9034112 121.3252204  73.4450995  67.6862063 122.6208657  73.4654020
  58.6491140 108.4811196  73.1317190  57.9277726 109.0947164  72.9924663
  59.4384396 109.0168961  73.0533836  69.0917881 119.9271484  75.5819600
  68.1448216 119.8076835  75.5097927  69.4400654 119.0393982  75.6645861
  61.4517454 105.8165623  79.4057842  61.9751856 106.0627919  80.1684151
  61.2329787 106.6485658  78.9860979  56.8484735 108.0869297  67.2728967
  56.5197441 107.2066676  67.0904072  57.2024106 108.0316966  68.1605356
  66.0964314 119.7224200  71.7823952  65.9489276 118.7940908  71.9631522
  66.9217807 119.7444291  71.2981027  59.9626558 108.3742267  67.6404444
  60.3022631 108.9028188  66.9183053  60.4098679 108.7122673  68.4163011
  69.6998436 120.5452759  72.8688825  70.6244983 120.3395620  72.7313276
  69.5313739 120.2969160  73.7778166  62.6569999 106.7579318  77.0907512
  62.3166819 105.9587131  77.4928192  61.9509005 107.0581029  76.5184345
  63.3086471 103.8428630  75.5434835  64.1312540 103.3689109  75.4213726
  63.5524534 104.6219114  76.0433522  61.9494705 106.8716889  65.8397737
  62.6703068 107.2498142  65.3361454  61.3260009 107.5905766  65.9432715
  66.0925828 107.5762038  66.7756069  66.3089443 108.4586676  66.4744898
  65.6119895 107.1848251  66.0461711  60.8325050 110.5347751  73.3526814
  60.6869630 110.8488054  74.2451095  60.3550253 111.1532651  72.7997713
  62.6921432 107.5250299  73.4007703  62.6783001 106.6291392  73.0640001
  63.4093861 107.5320963  74.0345990  64.5447563 107.9587639  75.4460831
  64.2865341 108.8804710  75.4445161  64.0132604 107.5618074  76.1361295
  69.4893752 121.0638426  68.2250916  69.6630629 120.4984849  67.4724769
  69.9822643 121.8639321  68.0430406  55.3070712 113.0753095  76.2914475
  54.7624180 113.8512903  76.4234749  56.1850062 113.4223900  76.1333597
  62.0958328 106.4064679  68.6695274  62.2174240 105.4781325  68.8686161
  61.8060371 106.4203365  67.7573589  64.9649519 104.0919590  71.8061993
  64.9871216 104.1558923  70.8513973  65.3817578 103.2524098  72.0002500
  75.3433143 113.8274849  69.8441216  75.7864289 113.0782174  69.4460339
  74.4659653 113.8184986  69.4614948  70.4768924 120.3805191  65.3247815
  71.1719829 121.0011883  65.5435129  70.8192075 119.5300542  65.6000192
  56.0936734 112.2022992  79.1844632  55.3518470 112.3505627  79.7709262
  55.7729478 112.4631257  78.3211381  72.3760347 117.8304896  66.8535145
  72.9011672 118.1692169  66.1284465  72.2882700 116.8951912  66.6698280
  64.0380396 121.7438970  78.9825022  64.3467523 121.4988117  79.8547722
  64.8355878 121.9485608  78.4943892  56.5393347 120.0888420  71.2155027
  57.3651367 119.7892192  70.8353670  56.1887399 119.3196043  71.6644815
  61.5074880 119.4414889  73.2852700  60.8854890 118.7785594  72.9854928
  62.1779747 119.4676021  72.6026348  54.7401952 118.0074747  72.1743960
  53.9033861 117.5796921  71.9927961  54.7125598 118.2007190  73.1114751
  61.5799408 107.9196677  82.8785206  61.6287563 108.7958799  82.4962976
  62.1221922 107.3774070  82.3056849  72.0654254 118.4637800  82.1586343
  71.2749797 118.4461939  81.6190843  71.8287608 119.0026094  82.9135380
  72.1852129 115.3130266  79.4719072  72.2350134 115.1480274  80.4134595
  72.0766052 114.4457525  79.0816953  61.0688387 117.9918812  66.7611161
  61.2176508 118.6754276  66.1077833  61.8754831 117.9723902  67.2760616
  69.4755891 111.2961194  80.7878379  70.3765754 111.1567659  80.4962376
  69.5503866 111.4615649  81.7276556  63.8098696 108.6728049  79.6331565
  62.9402006 108.9661615  79.3614153  64.0458177 109.2568494  80.3538829
  73.6870325 117.7327208  79.7161093  73.3955134 118.0957188  80.5524554
  73.0742457 117.0194216  79.5374425  74.8866008 115.2980088  72.2363664
  75.7212899 115.7369892  72.4001224  75.0225137 114.8218741  71.4171909
  71.9357514 112.8559822  78.1841151  72.4111635 113.0487469  77.3760003
  71.0123079 112.9119008  77.9384535  58.8241020 114.0183990  67.7672230
  58.5787062 113.1146320  67.9652440  58.9936935 114.0201140  66.8251708
  66.5137730 104.8907666  77.1496985  67.0319674 105.6268693  76.8243474
  66.1592863 105.1971659  77.9843744  58.0936668 109.7512347  65.2658391
  57.4005913 109.8256702  64.6098427  57.8488420 108.9872691  65.7879908
  66.7650324 101.3107949  72.6697882  67.0452078 100.6431138  73.2958308
  67.5500931 101.5037044  72.1572546  64.5683793 120.4866942  64.2322908
  63.9957760 121.1057130  63.7793380  65.1416586 121.0366304  64.7662830
  70.6359183 109.7325583  76.4169457  71.5876606 109.8323680  76.4381681
  70.4662633 108.9403851  76.9267541  68.6573562 106.8181166  76.6028858
  68.0623494 107.0986178  75.9075347  68.3723259 107.3075067  77.3745599
  67.7881053 120.7704093  65.3631490  68.7211726 120.7049654  65.5664366
  67.7004265 121.6060359  64.9046023  70.4169069 120.0869963  62.3235438
  70.3382701 119.7529827  63.2171196  71.2378736 120.5791731  62.3226910
  73.1147260 112.9531702  75.5311757  73.0823581 112.0147703  75.7171440
  73.7247884 113.0315739  74.7977582  64.9530591 111.8227755  61.5738961
  65.8989696 111.6933963  61.6427379  64.5744836 111.0842417  62.0508389
  73.2641749 109.7442746  75.5770040  72.7480798 108.9601202  75.3899969
  74.1481697 109.4161462  75.7416559  70.9252476 103.4883761  71.5365852
  70.7277297 103.1798849  72.4209184  71.5352181 104.2145400  71.6663782
  78.9323810 114.0147709  74.6717793  79.6627199 113.7532997  75.2325497
  78.3230756 113.2776431  74.7119861  77.0139107 112.1555572  75.2692245
  76.2872271 112.0211537  74.6608736  76.5986394 112.4632400  76.0748963
  64.8369284 115.8745501  83.0339618  65.7572293 116.0524100  83.2279664
  64.8018867 114.9301547  82.8819317  63.1373508 109.7477732  61.5093846
  62.2304964 109.4510844  61.5856560  63.4149489 109.4507550  60.6428132
  54.0551449 111.0684095  71.9592892  53.7354233 110.2149403  71.6667266
  53.5084877 111.2832673  72.7150860  57.8331356 113.7846536  75.6762399
  58.0517366 114.7163644  75.6950433  58.2457130 113.4254510  76.4617203
  64.7535574 104.2914621  67.6638087  63.9436303 103.9461706  68.0393333
  65.4419991 103.9822165  68.2525699  66.6826122 103.3692668  69.2862384
  67.2357161 103.7888122  69.9452407  66.9196209 102.4428416  69.3285340
  62.7059222 109.3579742  85.0665148  62.6055949 110.3074099  84.9977239
  62.4880764 109.0297981  84.1941218  61.9072293 106.6064667  61.6505825
  62.7691457 106.9319565  61.9101642  62.0922637 105.8196163  61.1378891
  53.9239709 114.6887006  73.9286014  53.2303180 114.2740959  73.4155968
  54.6712700 114.7307543  73.3319433  70.0604930 105.4793193  68.7941048
  69.4803599 106.1377997  68.4119101  69.7940862 104.6570538  68.3828466
  68.5108496 104.8798251  70.9962368  69.0108274 104.9914785  70.1876687
  69.1544104 104.5759304  71.6363177  62.5690492 112.7876881  83.8830209
  62.0857573 113.5877241  84.0894098  62.6551431 112.7984825  82.9297653
  55.8376451 114.6205260  71.8052029  55.8147139 114.7192948  70.8533912
  56.1477088 115.4670411  72.1269195  58.4963829 116.6781415  75.9198643
  59.4507083 116.6465358  75.8528575  58.2976353 116.2172039  76.7348869
  59.0863211 115.2482531  78.4869441  59.9056100 115.7426610  78.5104278
  59.3600019 114.3314499  78.4587008  68.8429808 107.6393284  67.8497396
  67.9555663 107.9242934  67.6317591  69.2583797 107.4787047  67.0024673
  72.1944344 107.6639805  71.5651736  72.9704734 108.1536257  71.8376352
  71.4692478 108.0897859  72.0223605  74.6316902 108.3767424  72.6225676
  75.2261393 108.1363160  71.9118984  74.7043486 107.6574554  73.2499213
  67.9873021 117.4037958  61.9445416  68.6908871 117.6087961  62.5603072
  67.2635670 117.9714720  62.2094500  68.8170831 113.1547820  68.0647687
  68.7606033 113.6116371  67.2255319  69.3699174 112.3938504  67.8870529
  72.6275637 108.9437551  68.8897806  72.3712571 108.5434187  69.7206014
  72.0028505 109.6581345  68.7647945  76.9387975 111.6833625  71.3969097
  76.3787533 111.7526814  72.1700659  76.3331478 111.5074609  70.6768594
  69.8959718 117.8420488  63.9943876  70.7305322 117.4101686  63.8121351
  69.7344061 117.6702501  64.9220771  69.5505611 114.3452601  65.3600216
  69.4954414 114.1796872  64.4188660  68.9251666 115.0528634  65.5162405
  54.3398126 109.5820665  79.1861638  54.9856989 109.0719619  79.6748863
  54.1315277 110.3189347  79.7605063  66.8651518 116.6501513  84.6853778
  67.7342677 116.8242165  84.3240413  66.3858269 117.4695930  84.5629508
  62.8601736 103.8460710  64.9385534  62.8480406 104.7902550  65.0953805
  63.7525158 103.6630855  64.6444995  62.7891300 122.5229600  73.0253291
  61.8386931 122.5231462  72.9117663  63.0923786 121.7762335  72.5089325
  66.6753856 100.4403486  69.1931471  65.9086251  99.8861973  69.3388153
  67.0864561 100.5125355  70.0545623  58.6795617 106.7288282  83.2836652
  59.5427078 106.3725087  83.4939977  58.1061027 106.3902177  83.9712056
  78.0785262 126.0841592  71.1652261  78.8648351 125.6661016  70.8142678
  78.3423966 126.9887685  71.3333910  81.0019110 119.7338400  76.5279848
  80.6702434 120.6033811  76.3041063  80.4064723 119.4174684  77.2073879
  74.7375296 123.4733967  64.2609931  74.9049698 124.3414203  64.6280402
  74.5472465 123.6361249  63.3371220  80.8947773 124.4533486  73.6073198
  79.9864650 124.3848894  73.3131959  80.8435369 124.9305431  74.4355024
  74.7164517 125.9291624  65.2456597  74.5964142 126.3748675  66.0842078
  74.0217105 126.2776942  64.6870136  74.9688639 125.8723132  81.5508096
  74.1921973 126.4317052  81.5410960  75.6079202 126.3579915  82.0722966
  82.7609419 122.6549924  75.3851072  82.1183799 122.9482458  74.7390867
  82.2564348 122.5402845  76.1904269  80.4149583 126.4013098  66.0736932
  81.3267439 126.6340484  65.8984629  79.9059230 126.9850142  65.5112010
  75.0521421 125.7610332  77.0831781  75.8982616 126.1849746  77.2266430
  74.9920058 125.1043956  77.7770344  78.2020866 123.4214700  78.7412955
  77.9581798 124.1756761  78.2047230  78.4780796 123.8000048  79.5760202
  77.7585558 122.5771134  74.3226792  76.8970037 122.8752387  74.6143530
  77.7847992 122.7941532  73.3907825  71.2377117 120.1368999  84.2766624
  70.8444063 119.5835197  84.9514268  72.0543258 120.4479577  84.6673141
  74.1545078 121.5526878  81.8686880  74.8954792 122.1534031  81.7891343
  74.3863001 120.8104516  81.3104923  78.1002241 117.5807981  76.1451162
  77.7566511 118.4709623  76.0690273  78.4681204 117.3909639  75.2820747
  78.0652524 127.5716592  64.6523597  77.5499147 128.3421197  64.8911984
  77.7929833 126.8981728  65.2756658  75.6499635 122.4166293  69.7108835
  74.7941231 122.0273143  69.5314474  76.0626587 122.4958254  68.8508621
  77.1798782 119.9512636  74.1100395  76.6763577 119.9142771  73.2968200
  77.4729389 120.8605379  74.1697052  73.4241668 120.0351366  73.1166577
  74.2894664 119.8394175  72.7572466  73.4919177 119.8061718  74.0435934
  77.8538827 125.4443684  66.4783378  77.5488963 125.7589833  67.3293521
  78.8069269 125.5225104  66.5210711  71.0303987 122.2653574  70.4882944
  71.6047739 122.0428755  69.7556137  71.6174969 122.3342268  71.2411545
  71.3573574 124.2958035  64.5078829  70.5210886 124.6332721  64.8288104
  71.2178343 124.1607015  63.5705966  73.3326654 119.1394823  69.2158013
  72.6791067 118.8243840  68.5914628  73.2907129 118.5170563  69.9417836
  76.5664395 125.6276756  73.5405661  75.6486956 125.8491703  73.3827349
  76.9824538 125.7023067  72.6817368  77.3499443 127.0268172  68.6708341
  78.0971261 127.5389569  68.3615463  77.6191032 126.7052225  69.5312735
  79.7978280 124.0625288  70.6527130  79.0601036 123.5502674  70.9837373
  80.0505053 123.6225670  69.8410407  79.8989907 116.8401540  71.2468900
  80.2048784 115.9798904  70.9594815  80.6242512 117.4319160  71.0467894
  72.1103347 125.7532393  69.5135470  71.2971212 126.0526564  69.9200662
  72.6062341 125.3588082  70.2309952  77.7077558 126.2174217  78.3450363
  78.0626946 126.4445691  79.2044829  78.3549690 126.5492594  77.7227619
  71.6017421 123.3250748  75.1296704  72.2416801 123.1839508  74.4319668
  70.7694952 123.0385262  74.7535306  68.6046038 123.2951073  69.9069691
  68.8652855 124.2096407  69.7978852  69.4263210 122.8275516  70.0566304
  70.0770963 124.7088831  77.0768516  70.7494017 124.5006193  76.4281165
  69.2500750 124.5110917  76.6373748  75.9796535 121.3350772  79.0934177
  75.3324450 122.0340721  78.9998653  76.7497551 121.7686915  79.4610425
  71.8209695 124.6816611  79.1450272  71.2847052 124.2307349  79.7971868
  71.2326404 124.8162520  78.4020736  71.2311954 124.1405262  61.7076736
  70.3541420 124.0194063  61.3438982  71.7069707 123.3491341  61.4555624
  67.5548816 123.8172619  76.2303267  67.4707005 123.2098288  75.4953677
  66.7331523 124.3081637  76.2312763  77.7272530 122.3026182  71.5973462
  78.2241230 121.5496144  71.2774532  76.9559512 122.3390499  71.0316671
  74.3107499 124.4443565  71.3245146  73.9405286 123.8914605  72.0126052
  74.8066591 123.8401699  70.7720146  80.1691525 119.2695776  73.7452821
  79.2554605 119.5000002  73.9135027  80.5984626 119.3534220  74.5966853
  79.9397983 127.4585668  76.2452715  79.2869434 127.7061575  75.5905167
  80.3178363 126.6449806  75.9115192  69.7072833 121.8547556  77.5698252
  69.7714159 122.7162387  77.1575650  69.6439953 121.2421557  76.8370611
  69.1825105 123.9270688  81.2171287  69.8097144 123.5447766  81.8308811
  68.3253024 123.7084890  81.5826979  69.4884895 123.8103114  73.1317190
  68.7671481 124.4239082  72.9924663  70.2778151 124.3460879  73.0533836
  72.2911208 121.1457541  79.4057842  72.8145610 121.3919837  80.1684151
  72.0723542 121.9777575  78.9860979  67.6878489 123.4161215  67.2728967
  67.3591196 122.5358594  67.0904072  68.0417860 123.3608884  68.1605356
  70.8020313 123.7034185  67.6404444  71.1416385 124.2320106  66.9183053
  71.2492433 124.0414591  68.4163011  73.4963753 122.0871236  77.0907512
  73.1560574 121.2879049  77.4928192  72.7902760 122.3872946  76.5184345
  74.1480225 119.1720548  75.5434835  74.9706295 118.6981026  75.4213726
  74.3918289 119.9511032  76.0433522  72.7888460 122.2008807  65.8397737
  73.5096822 122.5790059  65.3361454  72.1653764 122.9197683  65.9432715
  76.9319583 122.9053955  66.7756069  77.1483197 123.7878593  66.4744898
  76.4513650 122.5140169  66.0461711  73.5315187 122.8542217  73.4007703
  73.5176756 121.9583310  73.0640001  74.2487615 122.8612880  74.0345990
  75.3841318 123.2879557  75.4460831  75.1259095 124.2096628  75.4445161
  74.8526358 122.8909991  76.1361295  72.9352083 121.7356597  68.6695274
  73.0567994 120.8073243  68.8686161  72.6454125 121.7495283  67.7573589
  75.8043273 119.4211507  71.8061993  75.8264970 119.4850840  70.8513973
  76.2211332 118.5816016  72.0002500  72.4193162 123.2488594  82.8785206
  72.4681318 124.1250717  82.4962976  72.9615677 122.7065987  82.3056849
  80.3149645 126.6253112  80.7878379  81.2159508 126.4859577  80.4962376
  80.3897620 126.7907567  81.7276556  74.6492451 124.0019967  79.6331565
  73.7795760 124.2953533  79.3614153  74.8851931 124.5860412  80.3538829
  77.3531485 120.2199584  77.1496985  77.8713429 120.9560611  76.8243474
  76.9986617 120.5263577  77.9843744  68.9330422 125.0804265  65.2658391
  68.2399667 125.1548620  64.6098427  68.6882174 124.3164609  65.7879908
  77.6044079 116.6399866  72.6697882  77.8845833 115.9723055  73.2958308
  78.3894686 116.8328962  72.1572546  81.4752937 125.0617500  76.4169457
  82.4270360 125.1615598  76.4381681  81.3056388 124.2695769  76.9267541
  79.4967317 122.1473083  76.6028858  78.9017249 122.4278096  75.9075347
  79.2117013 122.6366984  77.3745599  75.7924346 127.1519673  61.5738961
  76.7383451 127.0225881  61.6427379  75.4138591 126.4134335  62.0508389
  84.1035503 125.0734663  75.5770040  83.5874552 124.2893120  75.3899969
  84.9875452 124.7453380  75.7416559  81.7646230 118.8175679  71.5365852
  81.5671051 118.5090767  72.4209184  82.3745936 119.5437318  71.6663782
  73.9767263 125.0769649  61.5093846  73.0698718 124.7802762  61.5856560
  74.2543244 124.7799467  60.6428132  75.5929329 119.6206539  67.6638087
  74.7830057 119.2753624  68.0393333  76.2813746 119.3114083  68.2525699
  77.5219877 118.6984586  69.2862384  78.0750916 119.1180039  69.9452407
  77.7589963 117.7720334  69.3285340  73.5452976 124.6871659  85.0665148
  73.4449703 125.6366016  84.9977239  73.3274518 124.3589898  84.1941218
  72.7466048 121.9356584  61.6505825  73.6085212 122.2611483  61.9101642
  72.9316392 121.1488080  61.1378891  80.8998684 120.8085111  68.7941048
  80.3197353 121.4669915  68.4119101  80.6334617 119.9862456  68.3828466
  79.3502250 120.2090169  70.9962368  79.8502029 120.3206703  70.1876687
  79.9937858 119.9051221  71.6363177  79.6823562 122.9685201  67.8497396
  78.7949417 123.2534852  67.6317591  80.0977551 122.8078965  67.0024673
  83.0338098 122.9931722  71.5651736  83.8098488 123.4828175  71.8376352
  82.3086232 123.4189776  72.0223605  85.4710657 123.7059342  72.6225676
  86.0655148 123.4655077  71.9118984  85.5437241 122.9866472  73.2499213
  83.4669392 124.2729469  68.8897806  83.2106326 123.8726105  69.7206014
  82.8422260 124.9873263  68.7647945  73.6995491 119.1752627  64.9385534
  73.6874160 120.1194467  65.0953805  74.5918912 118.9922773  64.6444995
  77.5147610 115.7695404  69.1931471  76.7480006 115.2153891  69.3388153
  77.9258315 115.8417273  70.0545623  69.5189371 122.0580200  83.2836652
  70.3820833 121.7017005  83.4939977  68.9454782 121.7194095  83.9712056
  13.4881468  13.3900755  60.8144360  14.1259878  13.2707503  60.1107700
  13.3702311  14.3381599  60.8732312  10.2971174  13.3428183  60.7505884
   9.9589686  13.2269248  59.8626419  11.1660942  12.9419348  60.7306891
   6.1557990  15.1963660  56.7402775   5.5922855  15.1053597  55.9719063
   6.0410385  14.3763564  57.2205268  10.7790957  14.4963035  66.7092090
  10.7679598  14.1015833  65.8372594  10.9411597  13.7629108  67.3025861
   3.7022422  16.6914851  59.5786996   4.4943714  16.3505676  59.1633295
   3.9419072  16.8009826  60.4989149  11.7357549  18.8634627  52.0517240
  11.0845528  19.4488708  51.6651254  12.5301911  19.3940822  52.1112278
   5.6613176  15.9523765  52.4504375   6.4344052  15.4052752  52.3117250
   6.0138575  16.8168014  52.6618836   7.4998218  17.2800147  65.6571274
   7.2088084  18.1845778  65.5417940   8.1355203  17.3216674  66.3715344
   8.4254425  14.6576995  62.2472634   9.0217997  14.4333018  61.5329597
   8.4829397  13.9161741  62.8498081  13.0422736  11.1152209  57.8897568
  13.8285826  10.6971632  57.5387985  13.3061441  12.0198301  58.0579216
  13.2132814  16.5525059  52.5886225  12.5778647  16.6259686  53.3007129
  12.8830220  17.1418658  51.9105304  18.4431164  11.0527442  58.7930546
  19.1756335  10.4826659  59.0268376  17.6870519  10.6649043  59.2337052
   7.7175742  14.0144537  52.2847200   7.6012000  13.3389440  52.9528284
   7.8278002  13.5276911  51.4679353  10.0607283  13.4754684  55.9893889
   9.6965490  12.9485305  56.7006810  10.9174399  13.0853153  55.8160374
  12.4588103  16.9661562  62.6521068  12.1588826  17.8686601  62.5436875
  12.1139163  16.6993746  63.5042221  15.8585247   9.4844102  60.3318505
  14.9502125   9.4159511  60.0377266  15.8072843   9.9616047  61.1600330
   7.4408883  23.7305883  55.6192035   7.3632913  24.6813708  55.6980516
   6.8370527  23.3851755  56.2766962  17.7246894   7.6860541  62.1096379
  17.0821274   7.9793074  61.4636173  17.2201822   7.5713461  62.9149576
  15.3787057  11.4323714  52.7982238  16.2904913  11.6651101  52.6229936
  14.8696704  12.0160758  52.2357317   8.1872485  13.7119201  67.8371369
   8.9287170  14.2504245  67.5606193   7.4809471  14.3385490  67.9942921
  13.6627825  15.8548342  66.4343531  14.0711181  15.4130752  65.6898163
  12.9405086  15.2800969  66.6877724  13.9856640  16.4149533  60.1895820
  13.3565502  16.5795247  59.4871887  13.5982302  16.8291142  60.9606784
  17.8645871  17.3503970  57.5440183  17.1796910  17.7302872  56.9937217
  17.9489721  17.9599297  58.2772131  15.1196803  14.9963929  64.1435527
  15.3313698  15.6395689  63.4669908  15.0726551  14.1626246  63.6757457
   9.5384601  16.1523941  57.4545905  10.0022947  16.4311644  56.6650527
   9.2741400  15.2507385  57.2718995   6.4308682  15.6995422  60.3925668
   7.0010040  16.1282691  59.7543152   7.0216794  15.4178007  61.0909854
  16.2342631  17.8735885  62.3157884  17.0560075  17.4716072  62.0340566
  16.2305034  17.7704119  63.2674000   9.9999234  17.4219928  64.4718595
  10.0643667  17.8840335  65.3076767   9.2910158  16.7917293  64.6000905
  24.3248624  14.2174633  58.6642856  23.5712332  13.6482031  58.5086860
  24.4596165  14.1837298  59.6113490   9.7147252  19.0888036  54.3397575
   9.5792927  19.9339571  54.7682423  10.2557065  19.2907313  53.5763509
   3.1676649  16.6063474  54.9125500   3.6801170  17.4006724  55.0631065
   3.8199362  15.9089764  54.8459102   4.9771534  19.7229230  56.9948253
   5.1538163  20.6447195  56.8069237   5.7728368  19.4087649  57.4242633
  11.3415728  19.7111602  68.4697917  10.8979583  18.9247981  68.1518822
  12.0032942  19.8990753  67.8041808   6.1002850  21.2407404  62.9958596
   6.6510275  21.1124467  62.2235590   5.2614326  21.5402293  62.6453488
  13.4396967  19.9914402  66.4979318  13.4215442  20.8123283  66.0059588
  14.3616887  19.8668477  66.7229460   9.8970021  17.5058532  67.3402827
  10.4298357  16.7446820  67.1102135   9.3684102  17.2132183  68.0826981
  13.0289998  12.6027209  51.3768904  12.5136622  13.3731813  51.6157291
  12.7567307  11.9292345  52.0001965  18.0024273  15.3559563  53.3122077
  17.2253715  15.0170723  52.8677239  18.6815753  15.3612186  52.6377042
  12.8176302  10.4754301  53.2028685  12.5126437  10.7900450  54.0538828
  13.7706744  10.5535721  53.2456018  11.2622733  16.6344524  54.8521639
  10.7344095  15.8997284  54.5394876  10.7610236  17.4119200  54.6061607
  16.2415579  14.8293545  59.9688685  15.5839254  15.5192806  60.0568814
  17.0455979  15.2189976  60.3122671  15.0521038  13.1837917  58.0192627
  15.5652920  13.8167909  58.5214337  15.7022262  12.5839113  57.6535987
   9.4075334  14.4524734  47.8556612   8.5002395  14.2213988  48.0547761
   9.9046366  13.6562354  48.0430593  12.3143412  23.1622241  50.7753298
  11.6405111  23.4653938  51.3838256  12.7009234  23.9651322  50.4258755
  11.5301869  10.6587373  60.2650967  10.6124430  10.8802320  60.1072655
  11.9462013  10.7333683  59.4062675  12.3136917  12.0578788  55.3953648
  13.0608736  12.5700186  55.0860770  12.5828506  11.7362841  56.2558041
  10.5863567  14.5537329  52.3780602   9.6774786  14.2696362  52.4753072
  10.6158651  14.9736408  51.5183909  15.8182834  18.1643919  56.1471770
  15.3645162  17.3234829  56.2036960  15.1876801  18.8005317  56.4846550
  14.7615754   9.0935905  57.3772437  14.0238511   8.5813291  57.7082680
  15.0142528   8.6536286  56.5655714  14.2615774  20.0020415  57.0821588
  14.5538748  20.5625472  56.3633953  14.7714394  20.2948976  57.8374747
  10.2839655  16.0946073  49.7168681   9.8459085  15.3781932  49.2574318
  11.0250096  16.3222188  49.1553772   9.2249399  20.7800766  58.1715041
   9.1825578  21.0061613  57.2423573  10.1412098  20.5464141  58.3200842
  12.6715033  11.2484834  65.0695670  13.0264420  11.4756307  65.9290136
  13.3187164  11.5803211  64.4472925  18.4012770  14.3703270  55.7744999
  18.2630668  14.5604866  54.8466188  18.0448988  15.1322653  56.2313050
  18.4282149  16.4379797  60.7856271  18.8618656  16.3455086  61.6339325
  19.1413730  16.4137297  60.1476287   7.3415200  17.6563795  57.9677004
   8.1355798  17.1614116  57.7659579   6.6306892  17.1281659  57.6044709
  12.1610044  20.0381891  62.3189371  12.2147066  20.6072827  63.0867087
  11.2924825  20.2083776  61.9543408  19.2897699  16.4803498  63.3189156
  19.4833589  17.3849308  63.5648431  19.1898317  16.0210917  64.1527741
  14.3512807  16.6310240  68.8930037  14.1998314  16.4020792  67.9760120
  14.3417487  17.5880842  68.9061382  11.1198144  14.2042153  63.8776303
  12.0490204  14.3553313  63.7045270  10.6989174  14.2926174  63.0224950
   9.9186476  18.2292817  61.6474841   9.7797561  17.8611602  62.5200779
   9.1301072  18.7440457  61.4758798  10.5134628  23.3301914  52.9900377
  10.6886383  22.8589957  53.8046000   9.8267416  23.9567680  53.2181638
  11.4691691  17.6074420  59.0363678  11.1341523  17.5675190  59.9321328
  10.9695636  16.9419136  58.5634089  14.4050882  14.9530454  49.3100738
  13.7880053  14.2277283  49.2133791  13.9367371  15.7139815  48.9667812
   8.0718235  12.7262009  64.0499939   8.7817854  12.0855202  64.0086558
   8.0287544  12.9774904  64.9726120  16.0605014  19.6629363  66.9706518
  16.0017560  18.9788583  66.3037102  16.4624532  20.4048353  66.5187144
   5.0795713  26.4791277  59.7640237   5.3192311  27.1109801  60.4419256
   4.2364909  26.1279317  60.0505597  16.0622421  17.6268947  65.2020498
  15.1749200  17.2894869  65.3246897  16.6320972  16.8951978  65.4389264
   9.5923575  22.2870399  62.1681741   9.5193746  23.0925371  62.6801046
   9.1500968  22.4862365  61.3429763   9.3813354  21.5242169  55.6784563
   8.5980876  22.0663849  55.7722787  10.0806100  22.0416149  56.0778804
  20.5439762  13.0377164  59.9637060  20.5329638  13.9201880  59.5930993
  19.6757141  12.6848715  59.7691597  12.0522258  22.1857233  64.3239900
  12.7650230  22.8204698  64.2515801  11.5612287  22.2821099  63.5079902
  13.7739785  16.0908486  55.8957192  12.8396064  16.2109948  55.7261896
  13.9516454  15.1880953  55.6317202  17.1612337  11.9325805  56.4307226
  17.6272789  12.7653797  56.3567528  17.6119837  11.4670787  57.1352484
   7.1034172  19.9351677  65.1445471   7.8043631  20.5688160  65.2974865
   6.6329287  20.2766408  64.3841110  15.2288568  18.2769626  53.4293378
  15.5048412  18.1626221  54.3387252  14.3593066  17.8787111  53.3905551
  14.9035458  12.4896284  62.9698021  14.2506908  12.7372191  62.3150474
  15.2815838  11.6760422  62.6360498  11.8642632  22.5255977  57.0726191
  12.0465026  21.7077633  57.5353944  12.6875618  22.7423669  56.6351081
  12.1984797  21.4524162  54.3341240  12.7272564  20.9416617  53.7211402
  12.4613017  21.1366693  55.1986773  10.9523031  13.2316095  69.4564058
  10.2763668  13.1310224  70.1266433  11.7750665  13.0755309  69.9200055
   2.7001890  19.4688032  62.0776574   3.2855327  18.7231720  62.2104478
   2.5026728  19.7791988  62.9613237   5.5540545  22.5039279  57.0939016
   4.8850920  22.9885407  56.6103056   5.4153415  22.7508499  58.0082394
   9.6945814  24.5383023  63.6921674  10.2464122  24.7014644  64.4570759
  10.0352007  25.1287460  63.0201699  14.5456688  19.3644280  69.5470329
  15.0896592  19.9774238  69.0525283  13.9643533  19.9223858  70.0637342
  12.8314201  22.4864998  60.6785356  12.7065340  21.6854738  60.1696302
  13.4893292  22.9811191  60.1899326  14.8949109  20.2874018  62.3064907
  13.9479445  20.1679369  62.2343233  15.2431882  19.3996516  62.3891168
  11.8995543  20.0826734  58.5069259  11.7520505  19.1543442  58.6876829
  12.7249036  20.1046825  58.0226334  15.5029664  20.9055293  59.5934132
  16.4276212  20.6998154  59.4558583  15.3344968  20.6571694  60.5023473
  15.2924981  21.4240961  54.9496223  15.4661858  20.8587383  54.1970075
  15.7853872  22.2241855  54.7675713  21.1464372  14.1877384  56.5686523
  21.5895518  13.4384709  56.1705646  20.2690882  14.1787520  56.1860255
  16.2800153  20.7407725  52.0493121  16.9751058  21.3614418  52.2680436
  16.6223303  19.8903076  52.3245499  18.1791576  18.1907430  53.5780452
  18.7042900  18.5294703  52.8529772  18.0913929  17.2554446  53.3943587
   9.8411625  22.1041504  65.7070329  10.1498751  21.8590651  66.5793028
  10.6387107  22.3088143  65.2189199   9.8632237  24.2579414  57.9375705
   9.4237227  23.7655792  58.6308562  10.6140354  23.7152381  57.6967780
   2.3424576  20.4490955  57.9400333   3.1682596  20.1494726  57.5598977
   1.9918628  19.6798577  58.3890122   7.3106109  19.8017423  60.0098007
   6.6886118  19.1388128  59.7100235   7.9810976  19.8278555  59.3271655
  17.8685482  18.8240334  68.8831650  17.0781026  18.8064473  68.3436149
  17.6318837  19.3628628  69.6380687  17.9883357  15.6732801  66.1964378
  18.0381362  15.5082808  67.1379901  17.8797281  14.8060060  65.8062259
   6.8719616  18.3521346  53.4856467   7.0207736  19.0356811  52.8323140
   7.6786060  18.3326436  54.0005923  15.2787120  11.6563729  67.5123685
  16.1796983  11.5170193  67.2207683  15.3535094  11.8218183  68.4521863
  19.4901554  18.0929742  66.4406400  19.1986363  18.4559723  67.2769861
  18.8773686  17.3796750  66.2619732  20.6897237  15.6582622  58.9608970
  21.5244128  16.0972426  59.1246531  20.8256365  15.1821275  58.1417216
  17.7388742  13.2162357  64.9086458  18.2142864  13.4090003  64.1005309
  16.8154308  13.2721542  64.6629842  10.3715022  20.8469477  50.9568215
   9.7988989  21.4659664  50.5038687  10.9447815  21.3968838  51.4908137
  16.4390411  10.0928117  63.1414764  17.3907834  10.1926214  63.1626988
  16.2693862   9.3006385  63.6512848  13.5912281  21.1306627  52.0876797
  14.5242955  21.0652188  52.2909673  13.5035494  21.9662894  51.6291330
  16.2200298  20.4472497  49.0480745  16.1413930  20.1132361  49.9416503
  17.0409965  20.9394265  49.0472217  18.9178489  13.3134236  62.2557063
  18.8854809  12.3750237  62.4416747  19.5279113  13.3918273  61.5222888
  10.7561820  12.1830289  48.2984267  11.7020925  12.0536498  48.3672685
  10.3776065  11.4444951  48.7753695  19.0672978  10.1045280  62.3015346
  18.5512026   9.3203736  62.1145275  19.9512926   9.7763996  62.4661866
  24.7355039  14.3750243  61.3963100  25.4658428  14.1135531  61.9570803
  24.1261985  13.6378965  61.4365168  22.8170336  12.5158106  61.9937551
  22.0903500  12.3814071  61.3854043  22.4017623  12.8234934  62.7994269
  10.6400513  16.2348036  69.7584924  11.5603522  16.4126635  69.9524971
  10.6050096  15.2904081  69.6064624   8.3721721  13.1479415  70.6075516
   7.8888802  13.9479775  70.8139405   8.4582660  13.1587360  69.6542960
   4.2995058  17.0383949  62.6443950   5.2538312  17.0067892  62.5773881
   4.1007582  16.5774573  63.4594176   4.8894440  15.6085066  65.2114747
   5.7087329  16.1029144  65.2349585   5.1631248  14.6917034  65.1832315
  14.6461036   7.9995818  54.5742703  13.7586891   8.2845468  54.3562898
  15.0615025   7.8389581  53.7269980  17.9975573   8.0242339  58.2897042
  18.7735963   8.5138791  58.5621659  17.2723707   8.4500393  58.7468912
  20.4348131   8.7369958  59.3470983  21.0292622   8.4965694  58.6364291
  20.5074715   8.0177089  59.9744519   2.6545287  22.5803569  59.6614148
   2.5199755  21.8203970  59.0952146   2.2377349  23.3044469  59.1942937
  13.7904250  17.7640493  48.6690723  14.4940100  17.9690495  49.2848379
  13.0666899  18.3317254  48.9339807  14.6202060  13.5150354  54.7892993
  14.5637262  13.9718905  53.9500626  15.1730403  12.7541038  54.6115836
  18.4306866   9.3040086  55.6143113  18.1743800   8.9036721  56.4451320
  17.8059734  10.0183880  55.4893252  22.7419204  12.0436159  58.1214404
  22.1818762  12.1129348  58.8945966  22.1362707  11.8677144  57.4013900
   5.8114413  23.4772886  59.8732590   5.6946797  24.4218318  59.7711281
   4.9906859  23.1746448  60.2618390  15.6990947  18.2023022  50.7189183
  16.5336551  17.7704220  50.5366658  15.5375290  18.0305035  51.6466078
  15.3536839  14.7055135  52.0845522  15.2985643  14.5399406  51.1433966
  14.7282895  15.4131168  52.2407712  12.6682747  17.0104047  71.4099085
  13.5373906  17.1844699  71.0485720  12.1889498  17.8298464  71.2874814
   6.8368927  24.1301148  63.0888519   7.7396174  24.1624758  63.4055014
   6.6106297  23.2001599  63.1034855   8.5922529  22.8832134  59.7498597
   7.6418160  22.8833996  59.6362970   8.8955015  22.1364869  59.2334632
  24.3275222  28.7192673  60.8144360  24.9653632  28.5999420  60.1107700
  24.2096065  29.6673517  60.8732312  21.1364929  28.6720101  60.7505884
  20.7983440  28.5561166  59.8626419  22.0054697  28.2711266  60.7306891
  16.9951744  30.5255577  56.7402775  16.4316609  30.4345514  55.9719063
  16.8804139  29.7055482  57.2205268  21.6184712  29.8254953  66.7092090
  21.6073352  29.4307751  65.8372594  21.7805351  29.0921025  67.3025861
  14.5416176  32.0206769  59.5786996  15.3337468  31.6797594  59.1633295
  14.7812826  32.1301744  60.4989149  22.5751303  34.1926545  52.0517240
  21.9239283  34.7780625  51.6651254  23.3695666  34.7232740  52.1112278
  16.5006930  31.2815682  52.4504375  17.2737806  30.7344669  52.3117250
  16.8532329  32.1459932  52.6618836  18.3391973  32.6092064  65.6571274
  18.0481839  33.5137695  65.5417940  18.9748957  32.6508592  66.3715344
  19.2648180  29.9868913  62.2472634  19.8611752  29.7624935  61.5329597
  19.3223151  29.2453658  62.8498081  18.8373208  27.4408348  50.0822825
  19.0898729  26.9189870  49.3206288  17.8997767  27.2774494  50.1849508
  23.8816491  26.4444127  57.8897568  24.6679580  26.0263550  57.5387985
  24.1455195  27.3490219  58.0579216  24.0526568  31.8816977  52.5886225
  23.4172401  31.9551604  53.3007129  23.7223975  32.4710576  51.9105304
  29.2824918  26.3819360  58.7930546  30.0150090  25.8118577  59.0268376
  28.5264274  25.9940960  59.2337052  18.5569497  29.3436454  52.2847200
  18.4405755  28.6681358  52.9528284  18.6671757  28.8568828  51.4679353
  20.9001038  28.8046601  55.9893889  20.5359245  28.2777222  56.7006810
  21.7568154  28.4145070  55.8160374  26.8050338  20.0940934  63.2525155
  26.4733663  20.9636345  63.0286370  26.2095952  19.7777218  63.9319185
  20.5406525  23.8336501  50.9855237  20.7080927  24.7016737  51.3525708
  20.3503694  23.9963783  50.0616527  23.2981858  32.2953480  62.6521068
  22.9982581  33.1978519  62.5436875  22.9532917  32.0285663  63.5042221
  16.7494339  28.7467277  58.6857772  15.8244836  28.6143491  58.8935464
  16.9978753  29.5261496  59.1827715  26.6979002  24.8136020  60.3318505
  25.7895879  24.7451429  60.0377266  26.6466597  25.2907965  61.1600330
  20.5195746  26.2894159  51.9701904  20.3995371  26.7351209  52.8087384
  19.8248334  26.6379476  51.4115442  14.1103150  28.3900550  59.5201561
  14.2395532  28.6435029  60.4340973  13.4300602  28.9828258  59.2006216
  18.2802638  39.0597800  55.6192035  18.2026667  40.0105625  55.6980516
  17.6764281  38.7143673  56.2766962  20.7719867  26.2325666  68.2753402
  19.9953202  26.7919586  68.2656267  21.4110430  26.7182449  68.7968272
  28.5640648  23.0152459  62.1096379  27.9215028  23.3084992  61.4636173
  28.0595577  22.9005379  62.9149576  26.2180812  26.7615632  52.7982238
  27.1298668  26.9943019  52.6229936  25.7090459  27.3452676  52.2357317
  19.0266240  29.0411119  67.8371369  19.7680924  29.5796163  67.5606193
  18.3203225  29.6677408  67.9942921  24.5021579  31.1840260  66.4343531
  24.9104935  30.7422670  65.6898163  23.7798841  30.6092887  66.6877724
  20.8552649  26.1212866  63.8077088  21.7013845  26.5452280  63.9511737
  20.7951287  25.4646491  64.5015651  24.8250394  31.7441450  60.1895820
  24.1959256  31.9087164  59.4871887  24.4376056  32.1583060  60.9606784
  28.7039626  32.6795888  57.5440183  28.0190664  33.0594789  56.9937217
  28.7883475  33.2891215  58.2772131  24.0052095  23.7817235  65.4658261
  23.7613027  24.5359295  64.9292537  24.2812025  24.1602582  66.3005508
  25.9590558  30.3255847  64.1435527  26.1707453  30.9687607  63.4669908
  25.9120306  29.4918164  63.6757457  23.5616786  22.9373668  61.0472099
  22.7001266  23.2354921  61.3388837  23.5879221  23.1544067  60.1153132
  20.3778356  31.4815858  57.4545905  20.8416701  31.7603561  56.6650527
  20.1135154  30.5799303  57.2718995  17.2702437  31.0287340  60.3925668
  17.8403794  31.4574608  59.7543152  17.8610549  30.7469925  61.0909854
  19.3147242  27.6039011  54.2635470  20.0171285  28.0560054  54.7309396
  18.9827870  26.9622830  54.8915363  17.7627603  26.1950767  68.6386679
  17.1326264  26.8767048  68.8722076  17.6563691  26.0833849  67.6939818
  13.0572576  25.8622563  59.5652603  12.2671630  26.1180092  59.0892714
  13.5483823  26.6770901  59.6704644  27.0736385  33.2027803  62.3157884
  27.8953829  32.8007990  62.0340566  27.0698788  33.0996037  63.2674000
  15.0087321  26.2267143  56.5236080  14.2118485  26.3385837  57.0419576
  14.7812914  26.5653795  55.6576971  20.8392989  32.7511846  64.4718595
  20.9037421  33.2132253  65.3076767  20.1303913  32.1209211  64.6000905
  11.3410279  26.1153054  61.9967594  11.5918317  27.0000064  62.2625170
  11.8769827  25.9357655  61.2242686  35.1642379  29.5466551  58.6642856
  34.4106087  28.9773949  58.5086860  35.2989920  29.5129215  59.6113490
  20.5541007  34.4179953  54.3397575  20.4186681  35.2631489  54.7682423
  21.0950819  34.6199231  53.5763509  17.0408346  20.4971533  71.0011930
  16.6475292  19.9437732  71.6759575  17.8574487  20.8082112  71.3918448
  14.0070404  31.9355391  54.9125500  14.5194925  32.7298642  55.0631065
  14.6593117  31.2381682  54.8459102  15.8165289  35.0521148  56.9948253
  15.9931917  35.9739112  56.8069237  16.6122122  34.7379567  57.4242633
  19.9576307  21.9129412  68.5932187  20.6986021  22.5136565  68.5136649
  20.1894230  21.1707050  68.0350229  15.1017645  27.0985779  66.8710417
  14.9871160  26.1971037  67.1717515  14.2462163  27.3449476  66.5195233
  22.1809483  35.0403520  68.4697917  21.7373337  34.2539898  68.1518822
  22.8426697  35.2282670  67.8041808  16.9396604  36.5699321  62.9958596
  17.4904029  36.4416385  62.2235590  16.1008080  36.8694210  62.6453488
  24.2790721  35.3206320  66.4979318  24.2609196  36.1415201  66.0059588
  25.2010641  35.1960395  66.7229460  20.7363775  32.8350449  67.3402827
  21.2692112  32.0738737  67.1102135  20.2077856  32.5424101  68.0826981
  23.9033470  17.9410515  62.8696469  23.5597740  18.8312157  62.7935579
  24.2712433  17.7512173  62.0066054  11.9719321  30.2644046  55.6885071
  12.8094543  30.6741054  55.4718778  12.1497588  29.3243488  55.6585265
  23.8683753  27.9319126  51.3768904  23.3530376  28.7023731  51.6157291
  23.5961061  27.2584262  52.0001965  21.4530864  22.7768827  56.4354142
  20.5972460  22.3875677  56.2559781  21.8657816  22.8560788  55.5753928
  22.9830011  20.3115170  60.8345702  22.4794806  20.2745305  60.0213507
  23.2760617  21.2207913  60.8942358  19.2272896  20.3953900  59.8411884
  20.0925893  20.1996709  59.4817773  19.2950405  20.1664252  60.7681240
  28.8418027  30.6851481  53.3122077  28.0647470  30.3462640  52.8677239
  29.5209508  30.6904104  52.6377042  23.6570056  25.8046218  53.2028685
  23.3520192  26.1192368  54.0538828  24.6100498  25.8827638  53.2456018
  22.1016488  31.9636442  54.8521639  21.5737849  31.2289201  54.5394876
  21.6003991  32.7411118  54.6061607  27.0809334  30.1585462  59.9688685
  26.4233008  30.8484724  60.0568814  27.8849733  30.5481894  60.3122671
  16.8335216  22.6256108  57.2128250  17.4078967  22.4031289  56.4801443
  17.4206198  22.6944802  57.9656852  25.8914793  28.5129835  58.0192627
  26.4046674  29.1459827  58.5214337  26.5416017  27.9131030  57.6535987
  17.1604803  24.6560569  51.2324136  16.3242115  24.9935256  51.5533410
  17.0209572  24.5209549  50.2951273  19.1357883  19.4997357  55.9403320
  18.4822296  19.1846374  55.3159935  19.0938357  18.8773097  56.6663143
  20.2469088  29.7816652  47.8556612  19.3396150  29.5505905  48.0547761
  20.7440120  28.9854271  48.0430593  23.1537167  38.4914159  50.7753298
  22.4798866  38.7945856  51.3838256  23.5402989  39.2943239  50.4258755
  22.3695624  25.9879290  60.2650967  21.4518185  26.2094237  60.1072655
  22.7855767  26.0625601  59.4062675  23.1530671  27.3870706  55.3953648
  23.9002490  27.8992103  55.0860770  23.4222261  27.0654759  56.2558041
  21.4257322  29.8829247  52.3780602  20.5168541  29.5988280  52.4753072
  21.4552405  30.3028325  51.5183909  26.6576589  33.4935836  56.1471770
  26.2038916  32.6526746  56.2036960  26.0270556  34.1297235  56.4846550
  25.6009508  24.4227822  57.3772437  24.8632265  23.9105209  57.7082680
  25.8536282  23.9828204  56.5655714  25.1009528  35.3312333  57.0821588
  25.3932503  35.8917390  56.3633953  25.6108149  35.6240894  57.8374747
  25.7021136  17.2004074  57.9714206  26.0080013  16.3401438  57.6840121
  26.4273741  17.7921695  57.7713200  11.9945492  27.6034761  56.3595804
  11.7969892  27.0104122  55.6346871  11.4392156  27.2986971  57.0771743
  19.9742216  27.4957867  58.4790397  20.0290825  26.5431704  58.4032874
  19.1633418  27.6517307  58.9631696  21.1233409  31.4237990  49.7168681
  20.6852839  30.7073849  49.2574318  21.8643850  31.6514105  49.1553772
  17.9134575  26.1134927  56.2380776  17.1002441  26.4129098  56.6445968
  18.4093570  25.7190616  56.9555258  20.0643153  36.1092684  58.1715041
  20.0219332  36.3353530  57.2423573  20.9805852  35.8756059  58.3200842
  23.5108787  26.5776752  65.0695670  23.8658175  26.8048225  65.9290136
  24.1580918  26.9095128  64.4472925  29.2406524  29.6995188  55.7744999
  29.1024423  29.8896783  54.8466188  28.8842743  30.4614570  56.2313050
  17.4048650  23.6853283  61.8542011  18.0448030  23.5442042  61.1564974
  16.5726181  23.3987796  61.4780613  29.2675904  31.7671715  60.7856271
  29.7012410  31.6747004  61.6339325  29.9807484  31.7429215  60.1476287
  18.1808954  32.9855713  57.9677004  18.9749553  32.4906033  57.7659579
  17.4700647  32.4573576  57.6044709  23.0003799  35.3673809  62.3189371
  23.0540821  35.9364745  63.0867087  22.1318580  35.5375694  61.9543408
  14.4891718  27.1298795  54.0436756  13.5589306  27.0683250  54.2606718
  14.5849190  26.6074748  53.2473398  14.4077267  23.6553608  56.6314998
  14.6684084  24.5698941  56.5224158  15.2294439  23.1878050  56.7811611
  15.8802192  25.0691365  63.8013822  16.5525245  24.8608727  63.1526471
  15.0531979  24.8713451  63.3619055  30.1291453  31.8095415  63.3189156
  30.3227343  32.7141226  63.5648431  30.0292071  31.3502834  64.1527741
  21.7827764  21.6953306  65.8179483  21.1355679  22.3943255  65.7243960
  22.5528779  22.1289450  66.1855732  25.1906562  31.9602158  68.8930037
  25.0392068  31.7312710  67.9760120  25.1811241  32.9172759  68.9061382
  21.9591898  29.5334071  63.8776303  22.8883958  29.6845230  63.7045270
  21.5382928  29.6218091  63.0224950  20.7580230  33.5584735  61.6474841
  20.6191316  33.1903519  62.5200779  19.9694826  34.0732375  61.4758798
  21.3528382  38.6593832  52.9900377  21.5280138  38.1881875  53.8046000
  20.6661170  39.2859598  53.2181638  22.3085445  32.9366338  59.0363678
  21.9735278  32.8967108  59.9321328  21.8089391  32.2711054  58.5634089
  16.2829689  28.3433968  64.5616260  16.1449487  27.6114207  65.1627799
  17.1934613  28.2542868  64.2800447  25.2444637  30.2822372  49.3100738
  24.6273808  29.5569200  49.2133791  24.7761125  31.0431732  48.9667812
  18.9111990  28.0553927  64.0499939  19.6211608  27.4147119  64.0086558
  18.8681298  28.3066822  64.9726120  26.8998769  34.9921280  66.9706518
  26.8411315  34.3080501  66.3037102  27.3018287  35.7340270  66.5187144
  17.6240924  25.0419145  65.8695579  17.0878281  24.5909883  66.5217175
  17.0357632  25.1765054  65.1266043  15.9189467  41.8083194  59.7640237
  16.1586066  42.4401718  60.4419256  15.0758664  41.4571234  60.0505597
  17.0343183  24.5007796  48.4322042  16.1572649  24.3796597  48.0684289
  17.5100936  23.7093875  48.1800931  26.9016176  32.9560864  65.2020498
  26.0142955  32.6186786  65.3246897  27.4714727  32.2243896  65.4389264
   8.5545323  29.2884956  58.5263550   9.2416363  28.9746686  57.9384565
   8.3993452  30.1926321  58.2530801  13.3580045  24.1775153  62.9548573
  13.2738234  23.5700822  62.2198983  12.5362752  24.6684171  62.9558070
  20.4317329  37.6162317  62.1681741  20.3587501  38.4217288  62.6801046
  19.9894722  37.8154283  61.3429763  20.2207109  36.8534087  55.6784563
  19.4374631  37.3955767  55.7722787  20.9199854  37.3708066  56.0778804
  23.5303759  22.6628716  58.3218768  24.0272459  21.9098679  58.0019839
  22.7590740  22.6993033  57.7561978  31.3833516  28.3669082  59.9637060
  31.3723393  29.2493797  59.5930993  30.5150896  28.0140633  59.7691597
  22.8916013  37.5149151  64.3239900  23.6043985  38.1496616  64.2515801
  22.4006041  37.6113017  63.5079902  24.6133540  31.4200403  55.8957192
  23.6789818  31.5401866  55.7261896  24.7910208  30.5172870  55.6317202
  20.1138728  24.8046099  58.0490453  19.7436515  24.2517140  58.7371358
  20.6097820  24.2004233  57.4965453  28.0006091  27.2617723  56.4307226
  28.4666543  28.0945714  56.3567528  28.4513592  26.7962704  57.1352484
  17.9427926  35.2643594  65.1445471  18.6437386  35.8980077  65.2974865
  17.4723041  35.6058326  64.3841110  26.0682322  33.6061544  53.4293378
  26.3442166  33.4918139  54.3387252  25.1986821  33.2079029  53.3905551
  25.9722754  19.6298310  60.4698127  25.0585834  19.8602537  60.6380334
  26.4015855  19.7136754  61.3212160  25.7429212  27.8188202  62.9698021
  25.0900663  28.0664109  62.3150474  26.1209592  27.0052340  62.6360498
  22.7036386  37.8547895  57.0726191  22.8858781  37.0369551  57.5353944
  23.5269372  38.0715587  56.6351081  23.0378552  36.7816080  54.3341240
  23.5666318  36.2708535  53.7211402  23.3006771  36.4658610  55.1986773
  21.7916785  28.5608013  69.4564058  21.1157422  28.4602142  70.1266433
  22.6144419  28.4047227  69.9200055  13.5395644  34.7979949  62.0776574
  14.1249081  34.0523637  62.2104478  13.3420483  35.1083906  62.9613237
  16.3934300  37.8331197  57.0939016  15.7244675  38.3177324  56.6103056
  16.2547169  38.0800417  58.0082394   8.1313299  27.3685550  60.7981017
   8.1697399  26.8349140  61.5918135   7.6253592  26.8420755  60.1791994
  20.5339568  39.8674940  63.6921674  21.0857876  40.0306562  64.4570759
  20.8745762  40.4579378  63.0201699  15.5104061  22.2150090  64.2943559
  15.5745388  23.0764921  63.8820957  15.4471182  21.6024092  63.5615917
  14.9856334  24.2873223  67.9416593  15.6128373  23.9050300  68.5554118
  14.1284253  24.0687425  68.3072286  25.3850442  34.6936198  69.5470329
  25.9290346  35.3066156  69.0525283  24.8037287  35.2515776  70.0637342
  11.7621877  26.0949652  53.8734948  12.0575318  25.1860330  53.8202002
  10.8609912  26.0737391  53.5515950  23.6707955  37.8156916  60.6785356
  23.5459095  37.0146656  60.1696302  24.3287047  38.3103109  60.1899326
  15.2916124  24.1705648  59.8562497  14.5702709  24.7841616  59.7169970
  16.0809379  24.7063413  59.7779143  25.7342864  35.6165936  62.3064907
  24.7873199  35.4971287  62.2343233  26.0825637  34.7288434  62.3891168
  18.0942437  21.5060075  66.1303148  18.6176839  21.7522371  66.8929458
  17.8754770  22.3380110  65.7106286  13.4909718  23.7763749  53.9974273
  13.1622424  22.8961128  53.8149379  13.8449089  23.7211418  54.8850662
  22.7389297  35.4118652  58.5069259  22.5914260  34.4835359  58.6876829
  23.5642791  35.4338743  58.0226334  16.6051541  24.0636719  54.3649751
  16.9447614  24.5922640  53.6428359  17.0523662  24.4017125  55.1408317
  26.3423419  36.2347211  59.5934132  27.2669966  36.0290072  59.4558583
  26.1738722  35.9863612  60.5023473  19.2994982  22.4473770  63.8152819
  18.9591803  21.6481583  64.2173499  18.5933989  22.7475481  63.2429652
  19.9511454  19.5323082  62.2680142  20.7737523  19.0583560  62.1459032
  20.1949518  20.3113566  62.7678828  18.5919689  22.5611341  52.5643044
  19.3128051  22.9392594  52.0606761  17.9684993  23.2800218  52.6678022
  22.7350811  23.2656490  53.5001376  22.9514426  24.1481128  53.1990204
  22.2544879  22.8742703  52.7707018  17.4750033  26.2242203  60.0772121
  17.3294614  26.5382506  60.9696402  16.9975236  26.8427103  59.5243019
  19.3346416  23.2144751  60.1253010  19.3207984  22.3185844  59.7885308
  20.0518844  23.2215415  60.7591296  21.1872546  23.6482091  62.1706138
  20.9290324  24.5699162  62.1690468  20.6557587  23.2512526  62.8606602
  26.1318735  36.7532878  54.9496223  26.3055613  36.1879301  54.1970075
  26.6247626  37.5533773  54.7675713  11.9495695  28.7647547  63.0159782
  11.4049163  29.5407355  63.1480056  12.8275045  29.1118352  62.8578903
  18.7383312  22.0959131  55.3940580  18.8599223  21.1675777  55.5931468
  18.4485354  22.1097817  54.4818896  21.6074502  19.7814042  58.5307300
  21.6296199  19.8453375  57.5759280  22.0242561  18.9418550  58.7247806
  31.9858126  29.5169301  56.5686523  32.4289272  28.7676626  56.1705646
  31.1084637  29.5079438  56.1860255  27.1193908  36.0699643  52.0493121
  27.8144812  36.6906335  52.2680436  27.4617058  35.2194994  52.3245499
  12.7361717  27.8917444  65.9089939  11.9943453  28.0400079  66.4954569
  12.4154461  28.1525709  65.0456688  29.0185331  33.5199348  53.5780452
  29.5436655  33.8586621  52.8529772  28.9307683  32.5846363  53.3943587
  20.6805379  37.4333422  65.7070329  20.9892506  37.1882569  66.5793028
  21.4780862  37.6380060  65.2189199  20.7025992  39.5871331  57.9375705
  20.2630982  39.0947710  58.6308562  21.4534108  39.0444299  57.6967780
  13.1818331  35.7782872  57.9400333  14.0076350  35.4786644  57.5598977
  12.8312383  35.0090495  58.3890122  18.1499864  35.1309341  60.0098007
  17.5279873  34.4680046  59.7100235  18.8204731  35.1570472  59.3271655
  11.3826936  33.6969199  58.8989267  10.5458844  33.2691373  58.7173268
  11.3550581  33.8901642  59.8360058  18.2224391  23.6091129  69.6030513
  18.2712547  24.4853251  69.2208282  18.7646905  23.0668522  69.0302156
  28.7079237  34.1532252  68.8831650  27.9174781  34.1356391  68.3436149
  28.4712591  34.6920545  69.6380687  28.8277112  31.0024718  66.1964378
  28.8775117  30.8374726  67.1379901  28.7191035  30.1351977  65.8062259
  17.7113371  33.6813264  53.4856467  17.8601491  34.3648728  52.8323140
  18.5179814  33.6618354  54.0005923  26.1180874  26.9855646  67.5123685
  27.0190737  26.8462111  67.2207683  26.1928849  27.1510101  68.4521863
  20.4523680  24.3622501  66.3576872  19.5826989  24.6556067  66.0859460
  20.6883160  24.9462946  67.0784135  30.3295309  33.4221660  66.4406400
  30.0380117  33.7851640  67.2769861  29.7167440  32.7088668  66.2619732
  31.5290991  30.9874539  58.9608970  32.3637882  31.4264344  59.1246531
  31.6650120  30.5113193  58.1417216  28.5782497  28.5454274  64.9086458
  29.0536619  28.7381921  64.1005309  27.6548062  28.6013460  64.6629842
  15.4666004  29.7078442  54.4917536  15.2212046  28.8040772  54.6897746
  15.6361918  29.7095592  53.5497014  23.1562713  20.5802118  63.8742292
  23.6744657  21.3163145  63.5488780  22.8017846  20.8866111  64.7089051
  14.7361651  25.4406799  51.9903698  14.0430896  25.5151154  51.3343734
  14.4913403  24.6767143  52.5125215  23.4075308  17.0002400  59.3943189
  23.6877061  16.3325589  60.0203615  24.1925915  17.1931496  58.8817852
  21.2108776  36.1761394  50.9568215  20.6382743  36.7951581  50.5038687
  21.7841570  36.7260756  51.4908137  27.2784166  25.4220034  63.1414764
  28.2301589  25.5218132  63.1626988  27.1087616  24.6298303  63.6512848
  25.2998545  22.5075618  63.3274165  24.7048478  22.7880630  62.6320653
  25.0148242  22.9969519  64.0990906  24.4306036  36.4598544  52.0876797
  25.3636709  36.3944106  52.2909673  24.3429249  37.2954811  51.6291330
  27.0594053  35.7764415  49.0480745  26.9807684  35.4424278  49.9416503
  27.8803719  36.2686183  49.0472217  29.7572244  28.6426154  62.2557063
  29.7248564  27.7042155  62.4416747  30.3672867  28.7210191  61.5222888
  21.5955575  27.5122207  48.2984267  22.5414679  27.3828415  48.3672685
  21.2169820  26.7736869  48.7753695  29.9066732  25.4337198  62.3015346
  29.3905781  24.6495654  62.1145275  30.7906681  25.1055914  62.4661866
  27.5677459  19.1778213  58.2611159  27.3702280  18.8693301  59.1454491
  28.1777165  19.9039852  58.3909089  35.5748794  29.7042161  61.3963100
  36.3052182  29.4427449  61.9570803  34.9655739  28.9670883  61.4365168
  33.6564091  27.8450024  61.9937551  32.9297254  27.7105988  61.3854043
  33.2411378  28.1526852  62.7994269  21.4794267  31.5639953  69.7584924
  22.3997277  31.7418552  69.9524971  21.4443850  30.6195999  69.6064624
  19.7798492  25.4372183  48.2339153  18.8729947  25.1405296  48.3101866
  20.0574473  25.1402002  47.3673439  10.6976432  26.7578547  58.6838199
  10.3779217  25.9043855  58.3912573  10.1509860  26.9727125  59.4396166
  14.4756340  29.4740988  62.4007705  14.6942349  30.4058096  62.4195739
  14.8882114  29.1148962  63.1862509  21.3960558  19.9809073  54.3883394
  20.5861286  19.6356158  54.7638640  22.0844974  19.6716617  54.9771005
  23.3251106  19.0587120  56.0107690  23.8782144  19.4782573  56.6697714
  23.5621192  18.1322868  56.0530646  19.3484205  25.0474194  71.7910454
  19.2480932  25.9968551  71.7222545  19.1305747  24.7192433  70.9186524
  18.5497276  22.2959119  48.3751132  19.4116440  22.6214017  48.6346949
  18.7347621  21.5090615  47.8624198  10.5664692  30.3781458  60.6531321
   9.8728164  29.9635411  60.1401275  11.3137683  30.4201995  60.0564739
  26.7029913  21.1687645  55.5186355  26.1228582  21.8272449  55.1364407
  26.4365846  20.3464990  55.1073772  25.1533479  20.5692703  57.7207675
  25.6533258  20.6809237  56.9121994  25.7969087  20.2653756  58.3608484
  19.2115475  28.4771332  70.6075516  18.7282557  29.2771693  70.8139405
  19.2976414  28.4879277  69.6542960  12.4801435  30.3099712  58.5297335
  12.4572123  30.4087399  57.5779219  12.7902071  31.1564863  58.8514502
  15.1388813  32.3675867  62.6443950  16.0932066  32.3359810  62.5773881
  14.9401336  31.9066491  63.4594176  15.7288195  30.9376983  65.2114747
  16.5481084  31.4321062  65.2349585  16.0025002  30.0208951  65.1832315
  25.4854791  23.3287736  54.5742703  24.5980646  23.6137386  54.3562898
  25.9008780  23.1681499  53.7269980  28.8369327  23.3534257  58.2897042
  29.6129717  23.8430709  58.5621659  28.1117461  23.7792311  58.7468912
  31.2741886  24.0661876  59.3470983  31.8686376  23.8257612  58.6364291
  31.3468469  23.3469006  59.9744519  13.4939041  37.9095487  59.6614148
  13.3593509  37.1495888  59.0952146  13.0771104  38.6336387  59.1942937
  24.6298004  33.0932410  48.6690723  25.3333854  33.2982413  49.2848379
  23.9060653  33.6609172  48.9339807  25.4595815  28.8442271  54.7892993
  25.4031016  29.3010823  53.9500626  26.0124157  28.0832956  54.6115836
  29.2700621  24.6332003  55.6143113  29.0137555  24.2328639  56.4451320
  28.6453489  25.3475797  55.4893252  33.5812958  27.3728077  58.1214404
  33.0212516  27.4421266  58.8945966  32.9756462  27.1969061  57.4013900
  16.6508167  38.8064804  59.8732590  16.5340551  39.7510236  59.7711281
  15.8300613  38.5038365  60.2618390  26.5384702  33.5314939  50.7189183
  27.3730306  33.0996138  50.5366658  26.3769045  33.3596953  51.6466078
  26.1930594  30.0347053  52.0845522  26.1379398  29.8691324  51.1433966
  25.5676649  30.7423086  52.2407712  10.9823109  25.2715117  65.9106945
  11.6281973  24.7614071  66.3994170  10.7740260  26.0083799  66.4850370
  23.5076501  32.3395965  71.4099085  24.3767661  32.5136617  71.0485720
  23.0283253  33.1590381  71.2874814  19.5026719  19.5355162  51.6630841
  19.4905389  20.4797002  51.8199112  20.3950141  19.3525307  51.3690302
  17.6762681  39.4593066  63.0888519  18.5789928  39.4916676  63.4055014
  17.4500051  38.5293517  63.1034855  19.4316283  38.2124052  59.7498597
  18.4811914  38.2125914  59.6362970  19.7348770  37.4656787  59.2334632
  23.3178839  16.1297938  55.9176778  22.5511235  15.5756425  56.0633460
  23.7289544  16.2019807  56.7790929  15.3220600  22.4182734  70.0081959
  16.1852061  22.0619539  70.2185283  14.7486011  22.0796629  70.6957363
  31.9758683  44.0012019  60.7505884  31.6377195  43.8853083  59.8626419
  32.8448451  43.6003184  60.7306891  27.8345499  45.8547495  56.7402775
  27.2710364  45.7637432  55.9719063  27.7197894  45.0347399  57.2205268
  32.4578466  45.1546870  66.7092090  32.4467107  44.7599669  65.8372594
  32.6199106  44.4212943  67.3025861  25.3809931  47.3498687  59.5786996
  26.1731223  47.0089511  59.1633295  25.6206581  47.4593662  60.4989149
  27.3400685  46.6107600  52.4504375  28.1131561  46.0636587  52.3117250
  27.6926084  47.4751849  52.6618836  29.1785727  47.9383982  65.6571274
  28.8875593  48.8429613  65.5417940  29.8142712  47.9800510  66.3715344
  30.1041934  45.3160831  62.2472634  30.7005506  45.0916853  61.5329597
  30.1616906  44.5745576  62.8498081  29.6766963  42.7700266  50.0822825
  29.9292483  42.2481787  49.3206288  28.7391522  42.6066411  50.1849508
  29.3963251  44.6728372  52.2847200  29.2799509  43.9973275  52.9528284
  29.5065511  44.1860746  51.4679353  31.7394792  44.1338519  55.9893889
  31.3752999  43.6069140  56.7006810  32.5961908  43.7436988  55.8160374
  37.6444093  35.4232852  63.2525155  37.3127418  36.2928263  63.0286370
  37.0489706  35.1069136  63.9319185  34.1375612  47.6245398  62.6521068
  33.8376335  48.5270436  62.5436875  33.7926672  47.3577581  63.5042221
  27.5888094  44.0759194  58.6857772  26.6638590  43.9435409  58.8935464
  27.8372507  44.8553414  59.1827715  24.9496905  43.7192468  59.5201561
  25.0789286  43.9726947  60.4340973  24.2694356  44.3120176  59.2006216
  31.6113622  41.5617583  68.2753402  30.8346956  42.1211504  68.2656267
  32.2504185  42.0474366  68.7968272  29.8659994  44.3703037  67.8371369
  30.6074679  44.9088081  67.5606193  29.1596980  44.9969326  67.9942921
  35.3415334  46.5132177  66.4343531  35.7498690  46.0714588  65.6898163
  34.6192595  45.9384805  66.6877724  31.6946404  41.4504784  63.8077088
  32.5407599  41.8744198  63.9511737  31.6345042  40.7938408  64.5015651
  35.6644149  47.0733368  60.1895820  35.0353011  47.2379082  59.4871887
  35.2769811  47.4874977  60.9606784  34.8445849  39.1109152  65.4658261
  34.6006781  39.8651213  64.9292537  35.1205780  39.4894500  66.3005508
  36.7984312  45.6547765  64.1435527  37.0101207  46.2979525  63.4669908
  36.7514060  44.8210081  63.6757457  31.2172110  46.8107776  57.4545905
  31.6810456  47.0895479  56.6650527  30.9528909  45.9091221  57.2718995
  28.1096191  46.3579258  60.3925668  28.6797549  46.7866526  59.7543152
  28.7004303  46.0761842  61.0909854  30.1540996  42.9330928  54.2635470
  30.8565040  43.3851972  54.7309396  29.8221625  42.2914747  54.8915363
  28.6021358  41.5242685  68.6386679  27.9720019  42.2058966  68.8722076
  28.4957446  41.4125767  67.6939818  23.8966330  41.1914481  59.5652603
  23.1065384  41.4472010  59.0892714  24.3877578  42.0062819  59.6704644
  25.8481076  41.5559060  56.5236080  25.0512239  41.6677755  57.0419576
  25.6206668  41.8945712  55.6576971  31.6786743  48.0803763  64.4718595
  31.7431176  48.5424171  65.3076767  30.9697667  47.4501128  64.6000905
  22.1804033  41.4444971  61.9967594  22.4312072  42.3291981  62.2625170
  22.7163582  41.2649573  61.2242686  27.8802101  35.8263451  71.0011930
  27.4869046  35.2729649  71.6759575  28.6968241  36.1374029  71.3918448
  24.8464158  47.2647309  54.9125500  25.3588679  48.0590559  55.0631065
  25.4986871  46.5673599  54.8459102  26.6559043  50.3813065  56.9948253
  26.8325672  51.3031030  56.8069237  27.4515877  50.0671484  57.4242633
  30.7970062  37.2421330  68.5932187  31.5379775  37.8428483  68.5136649
  31.0287985  36.4998968  68.0350229  25.9411400  42.4277697  66.8710417
  25.8264915  41.5262954  67.1717515  25.0855917  42.6741394  66.5195233
  33.0203237  50.3695437  68.4697917  32.5767092  49.5831816  68.1518822
  33.6820451  50.5574588  67.8041808  27.7790359  51.8991239  62.9958596
  28.3297784  51.7708302  62.2235590  26.9401835  52.1986128  62.6453488
  35.1184476  50.6498237  66.4979318  35.1002951  51.4707118  66.0059588
  36.0404396  50.5252313  66.7229460  31.5757530  48.1642367  67.3402827
  32.1085866  47.4030655  67.1102135  31.0471611  47.8716019  68.0826981
  34.7427225  33.2702433  62.8696469  34.3991494  34.1604075  62.7935579
  35.1106187  33.0804090  62.0066054  22.8113075  45.5935963  55.6885071
  23.6488297  46.0032972  55.4718778  22.9891343  44.6535405  55.6585265
  33.8223765  35.6407088  60.8345702  33.3188561  35.6037223  60.0213507
  34.1154372  36.5499831  60.8942358  30.0666651  35.7245818  59.8411884
  30.9319648  35.5288626  59.4817773  30.1344160  35.4956169  60.7681240
  27.6728970  37.9548026  57.2128250  28.2472722  37.7323207  56.4801443
  28.2599952  38.0236720  57.9656852  27.9998557  39.9852487  51.2324136
  27.1635869  40.3227173  51.5533410  27.8603327  39.8501466  50.2951273
  29.9751638  34.8289275  55.9403320  29.3216050  34.5138292  55.3159935
  29.9332112  34.2065015  56.6663143  31.0862843  45.1108570  47.8556612
  30.1789904  44.8797823  48.0547761  31.5833875  44.3146189  48.0430593
  33.2089378  41.3171208  60.2650967  32.2911939  41.5386155  60.1072655
  33.6249522  41.3917519  59.4062675  32.2651076  45.2121164  52.3780602
  31.3562295  44.9280197  52.4753072  32.2946160  45.6320243  51.5183909
  36.5414890  32.5295992  57.9714206  36.8473767  31.6693355  57.6840121
  37.2667495  33.1213612  57.7713200  22.8339246  42.9326679  56.3595804
  22.6363646  42.3396039  55.6346871  22.2785910  42.6278889  57.0771743
  30.8135970  42.8249785  58.4790397  30.8684580  41.8723621  58.4032874
  30.0027172  42.9809224  58.9631696  28.7528330  41.4426845  56.2380776
  27.9396195  41.7421015  56.6445968  29.2487324  41.0482534  56.9555258
  34.3502542  41.9068669  65.0695670  34.7051929  42.1340142  65.9290136
  34.9974673  42.2387046  64.4472925  28.2442405  39.0145200  61.8542011
  28.8841784  38.8733959  61.1564974  27.4119935  38.7279714  61.4780613
  29.0202709  48.3147631  57.9677004  29.8143307  47.8197951  57.7659579
  28.3094401  47.7865494  57.6044709  33.8397553  50.6965726  62.3189371
  33.8934575  51.2656663  63.0867087  32.9712334  50.8667611  61.9543408
  25.3285472  42.4590713  54.0436756  24.3983060  42.3975168  54.2606718
  25.4242944  41.9366665  53.2473398  25.2471021  38.9845525  56.6314998
  25.5077838  39.8990859  56.5224158  26.0688193  38.5169968  56.7811611
  26.7195946  40.3983283  63.8013822  27.3919000  40.1900645  63.1526471
  25.8925733  40.2005369  63.3619055  32.6221518  37.0245223  65.8179483
  31.9749434  37.7235173  65.7243960  33.3922534  37.4581367  66.1855732
  36.0300316  47.2894076  68.8930037  35.8785823  47.0604627  67.9760120
  36.0204996  48.2464677  68.9061382  32.7985653  44.8625988  63.8776303
  33.7277713  45.0137148  63.7045270  32.3776683  44.9510009  63.0224950
  31.5973985  48.8876653  61.6474841  31.4585070  48.5195437  62.5200779
  30.8088581  49.4024292  61.4758798  27.1223444  43.6725885  64.5616260
  26.9843242  42.9406124  65.1627799  28.0328367  43.5834786  64.2800447
  29.7505744  43.3845845  64.0499939  30.4605363  42.7439037  64.0086558
  29.7075053  43.6358740  64.9726120  37.7392523  50.3213198  66.9706518
  37.6805069  49.6372418  66.3037102  38.1412041  51.0632188  66.5187144
  28.4634678  40.3711063  65.8695579  27.9272035  39.9201801  66.5217175
  27.8751387  40.5056972  65.1266043  26.7583222  57.1375112  59.7640237
  26.9979820  57.7693636  60.4419256  25.9152418  56.7863152  60.0505597
  27.8736937  39.8299714  48.4322042  26.9966404  39.7088515  48.0684289
  28.3494690  39.0385792  48.1800931  37.7409930  48.2852782  65.2020498
  36.8536709  47.9478704  65.3246897  38.3108481  47.5535813  65.4389264
  19.3939077  44.6176874  58.5263550  20.0810117  44.3038604  57.9384565
  19.2387206  45.5218238  58.2530801  24.1973800  39.5067070  62.9548573
  24.1131988  38.8992740  62.2198983  23.3756506  39.9976089  62.9558070
  31.2711084  52.9454234  62.1681741  31.1981255  53.7509206  62.6801046
  30.8288477  53.1446200  61.3429763  33.7309767  52.8441068  64.3239900
  34.4437739  53.4788533  64.2515801  33.2399796  52.9404934  63.5079902
  30.9532482  40.1338017  58.0490453  30.5830270  39.5809057  58.7371358
  31.4491575  39.5296150  57.4965453  28.7821681  50.5935512  65.1445471
  29.4831140  51.2271995  65.2974865  28.3116796  50.9350243  64.3841110
  36.8116508  34.9590227  60.4698127  35.8979588  35.1894454  60.6380334
  37.2409610  35.0428671  61.3212160  32.6310540  43.8899930  69.4564058
  31.9551177  43.7894060  70.1266433  33.4538174  43.7339144  69.9200055
  24.3789399  50.1271867  62.0776574  24.9642836  49.3815555  62.2104478
  24.1814237  50.4375824  62.9613237  18.9707054  42.6977467  60.7981017
  19.0091153  42.1641058  61.5918135  18.4647346  42.1712673  60.1791994
  31.3733323  55.1966858  63.6921674  31.9251631  55.3598479  64.4570759
  31.7139516  55.7871296  63.0201699  26.3497816  37.5442008  64.2943559
  26.4139142  38.4056839  63.8820957  26.2864936  36.9316009  63.5615917
  25.8250088  39.6165140  67.9416593  26.4522127  39.2342218  68.5554118
  24.9678007  39.3979342  68.3072286  36.2244197  50.0228115  69.5470329
  36.7684101  50.6358074  69.0525283  35.6431042  50.5807694  70.0637342
  22.6015631  41.4241569  53.8734948  22.8969072  40.5152248  53.8202002
  21.7003667  41.4029309  53.5515950  26.1309878  39.4997566  59.8562497
  25.4096464  40.1133534  59.7169970  26.9203134  40.0355331  59.7779143
  36.5736618  50.9457854  62.3064907  35.6266954  50.8263205  62.2343233
  36.9219391  50.0580352  62.3891168  28.9336192  36.8351992  66.1303148
  29.4570594  37.0814289  66.8929458  28.7148525  37.6672027  65.7106286
  24.3303473  39.1055667  53.9974273  24.0016179  38.2253046  53.8149379
  24.6842843  39.0503336  54.8850662  27.4445296  39.3928637  54.3649751
  27.7841368  39.9214558  53.6428359  27.8917416  39.7309043  55.1408317
  30.1388737  37.7765688  63.8152819  29.7985557  36.9773501  64.2173499
  29.4327743  38.0767398  63.2429652  30.7905209  34.8615000  62.2680142
  31.6131278  34.3875478  62.1459032  31.0343272  35.6405484  62.7678828
  29.4313443  37.8903258  52.5643044  30.1521806  38.2684511  52.0606761
  28.8078747  38.6092135  52.6678022  28.3143787  41.5534121  60.0772121
  28.1688368  41.8674424  60.9696402  27.8368991  42.1719021  59.5243019
  30.1740170  38.5436669  60.1253010  30.1601739  37.6477762  59.7885308
  30.8912598  38.5507332  60.7591296  32.0266301  38.9774009  62.1706138
  31.7684079  39.8991079  62.1690468  31.4951341  38.5804443  62.8606602
  22.7889449  44.0939465  63.0159782  22.2442918  44.8699273  63.1480056
  23.6668799  44.4410269  62.8578903  29.5777066  37.4251049  55.3940580
  29.6992977  36.4967695  55.5931468  29.2879109  37.4389735  54.4818896
  32.4468257  35.1105959  58.5307300  32.4689953  35.1745292  57.5759280
  32.8636316  34.2710468  58.7247806  23.5755471  43.2209361  65.9089939
  22.8337207  43.3691997  66.4954569  23.2548216  43.4817627  65.0456688
  31.5199134  52.7625339  65.7070329  31.8286260  52.5174486  66.5793028
  32.3174616  52.9671978  65.2189199  24.0212085  51.1074790  57.9400333
  24.8470105  50.8078562  57.5598977  23.6706137  50.3382412  58.3890122
  28.9893618  50.4601258  60.0098007  28.3673627  49.7971963  59.7100235
  29.6598485  50.4862390  59.3271655  22.2220690  49.0261116  58.8989267
  21.3852598  48.5983291  58.7173268  22.1944335  49.2193560  59.8360058
  29.0618146  38.9383046  69.6030513  29.1106301  39.8145169  69.2208282
  29.6040660  38.3960439  69.0302156  39.5472991  49.4824169  68.8831650
  38.7568535  49.4648308  68.3436149  39.3106346  50.0212463  69.6380687
  39.6670866  46.3316636  66.1964378  39.7168871  46.1666643  67.1379901
  39.5584790  45.4643895  65.8062259  28.5507125  49.0105182  53.4856467
  28.6995245  49.6940646  52.8323140  29.3573569  48.9910272  54.0005923
  36.9574629  42.3147564  67.5123685  37.8584492  42.1754029  67.2207683
  37.0322603  42.4802019  68.4521863  31.2917434  39.6914419  66.3576872
  30.4220744  39.9847985  66.0859460  31.5276914  40.2754864  67.0784135
  26.3059758  45.0370359  54.4917536  26.0605800  44.1332689  54.6897746
  26.4755673  45.0387510  53.5497014  33.9956468  35.9094036  63.8742292
  34.5138412  36.6455062  63.5488780  33.6411601  36.2158029  64.7089051
  25.5755406  40.7698717  51.9903698  24.8824651  40.8443072  51.3343734
  25.3307158  40.0059060  52.5125215  34.2469062  32.3294318  59.3943189
  34.5270816  31.6617507  60.0203615  35.0319669  32.5223414  58.8817852
  36.1392300  37.8367535  63.3274165  35.5442232  38.1172548  62.6320653
  35.8541997  38.3261436  64.0990906  32.4349329  42.8414125  48.2984267
  33.3808434  42.7120333  48.3672685  32.0563574  42.1028787  48.7753695
  38.4071214  34.5070131  58.2611159  38.2096035  34.1985219  59.1454491
  39.0170919  35.2331770  58.3909089  32.3188022  46.8931871  69.7584924
  33.2391031  47.0710470  69.9524971  32.2837605  45.9487916  69.6064624
  30.6192246  40.7664101  48.2339153  29.7123702  40.4697214  48.3101866
  30.8968227  40.4693919  47.3673439  21.5370187  42.0870465  58.6838199
  21.2172971  41.2335773  58.3912573  20.9903615  42.3019043  59.4396166
  25.3150094  44.8032906  62.4007705  25.5336104  45.7350013  62.4195739
  25.7275868  44.4440880  63.1862509  32.2354312  35.3100991  54.3883394
  31.4255040  34.9648076  54.7638640  32.9238729  35.0008535  54.9771005
  34.1644860  34.3879038  56.0107690  34.7175899  34.8074491  56.6697714
  34.4014947  33.4614786  56.0530646  30.1877960  40.3766111  71.7910454
  30.0874686  41.3260468  71.7222545  29.9699502  40.0484350  70.9186524
  29.3891031  37.6251036  48.3751132  30.2510195  37.9505935  48.6346949
  29.5741375  36.8382532  47.8624198  21.4058447  45.7073376  60.6531321
  20.7121918  45.2927329  60.1401275  22.1531438  45.7493913  60.0564739
  35.9927234  35.8984621  57.7207675  36.4927012  36.0101155  56.9121994
  36.6362842  35.5945673  58.3608484  30.0509230  43.8063250  70.6075516
  29.5676311  44.6063610  70.8139405  30.1370169  43.8171195  69.6542960
  23.3195189  45.6391630  58.5297335  23.2965877  45.7379317  57.5779219
  23.6295826  46.4856781  58.8514502  25.9782567  47.6967785  62.6443950
  26.9325821  47.6651727  62.5773881  25.7795091  47.2358409  63.4594176
  26.5681949  46.2668901  65.2114747  27.3874838  46.7612980  65.2349585
  26.8418757  45.3500869  65.1832315  24.3332796  53.2387404  59.6614148
  24.1987264  52.4787805  59.0952146  23.9164858  53.9628304  59.1942937
  27.4901922  54.1356721  59.8732590  27.3734306  55.0802154  59.7711281
  26.6694368  53.8330283  60.2618390  21.8216863  40.6007035  65.9106945
  22.4675727  40.0905989  66.3994170  21.6134015  41.3375716  66.4850370
  34.3470256  47.6687882  71.4099085  35.2161415  47.8428535  71.0485720
  33.8677007  48.4882299  71.2874814  30.3420474  34.8647079  51.6630841
  30.3299144  35.8088919  51.8199112  31.2343896  34.6817225  51.3690302
  28.5156436  54.7884983  63.0888519  29.4183683  54.8208594  63.4055014
  28.2893806  53.8585434  63.1034855  34.1572593  31.4589856  55.9176778
  33.3904989  30.9048343  56.0633460  34.5683298  31.5311725  56.7790929
  26.1614354  37.7474652  70.0081959  27.0245816  37.3911457  70.2185283
  25.5879765  37.4088547  70.6957363  43.2972221  60.4838788  66.7092090
  43.2860861  60.0891586  65.8372594  43.4592860  59.7504861  67.3025861
  42.4507376  56.8909501  68.2753402  41.6740710  57.4503421  68.2656267
  43.0897939  57.3766284  68.7968272  40.7053749  59.6994954  67.8371369
  41.4468433  60.2379998  67.5606193  39.9990734  60.3261243  67.9942921
  39.4415112  56.8534603  68.6386679  38.8113773  57.5350884  68.8722076
  39.3351200  56.7417684  67.6939818  38.7195855  51.1555368  71.0011930
  38.3262801  50.6021567  71.6759575  39.5361996  51.4665947  71.3918448
  36.7805154  57.7569615  66.8710417  36.6658669  56.8554872  67.1717515
  35.9249672  58.0033312  66.5195233  43.8596992  65.6987355  68.4697917
  43.4160846  64.9123734  68.1518822  44.5214206  65.8866506  67.8041808
  37.5589701  55.7275200  63.8013822  38.2312754  55.5192562  63.1526471
  36.7319487  55.5297286  63.3619055  37.9617198  59.0017803  64.5616260
  37.8236996  58.2698042  65.1627799  38.8722122  58.9126703  64.2800447
  40.5899499  58.7137762  64.0499939  41.2999117  58.0730955  64.0086558
  40.5468807  58.9650657  64.9726120  39.3028433  55.7002980  65.8695579
  38.7665790  55.2493719  66.5217175  38.7145141  55.8348889  65.1266043
  30.2332832  59.9468792  58.5263550  30.9203872  59.6330522  57.9384565
  30.0780961  60.8510156  58.2530801  35.0367554  54.8358988  62.9548573
  34.9525743  54.2284658  62.2198983  34.2150260  55.3268006  62.9558070
  43.4704294  59.2191848  69.4564058  42.7944931  59.1185977  70.1266433
  44.2931928  59.0631062  69.9200055  35.2183153  65.4563785  62.0776574
  35.8036590  64.7107473  62.2104478  35.0207992  65.7667741  62.9613237
  29.8100808  58.0269385  60.7981017  29.8484908  57.4932976  61.5918135
  29.3041101  57.5004590  60.1791994  37.1891570  52.8733925  64.2943559
  37.2532897  53.7348756  63.8820957  37.1258691  52.2607927  63.5615917
  36.6643843  54.9457058  67.9416593  37.2915882  54.5634135  68.5554118
  35.8071762  54.7271260  68.3072286  47.0637951  65.3520033  69.5470329
  47.6077855  65.9649991  69.0525283  46.4824796  65.9099611  70.0637342
  33.6283204  59.4231383  63.0159782  33.0836672  60.1991191  63.1480056
  34.5062554  59.7702187  62.8578903  34.4149226  58.5501279  65.9089939
  33.6730962  58.6983914  66.4954569  34.0941970  58.8109545  65.0456688
  42.3592888  68.0917257  65.7070329  42.6680015  67.8466404  66.5793028
  43.1568370  68.2963896  65.2189199  33.0614445  64.3553034  58.8989267
  32.2246353  63.9275208  58.7173268  33.0338090  64.5485477  59.8360058
  39.9011900  54.2674964  69.6030513  39.9500056  55.1437087  69.2208282
  40.4434414  53.7252357  69.0302156  50.3866746  64.8116087  68.8831650
  49.5962290  64.7940226  68.3436149  50.1500100  65.3504381  69.6380687
  43.1581776  62.2223789  69.7584924  44.0784786  62.4002388  69.9524971
  43.1231359  61.2779834  69.6064624  36.1543849  60.1324823  62.4007705
  36.3729858  61.0641931  62.4195739  36.5669623  59.7732798  63.1862509
  41.0271714  55.7058029  71.7910454  40.9268441  56.6552386  71.7222545
  40.8093256  55.3776268  70.9186524  32.2452201  61.0365294  60.6531321
  31.5515673  60.6219247  60.1401275  32.9925192  61.0785830  60.0564739
  40.8902984  59.1355168  70.6075516  40.4070066  59.9355528  70.8139405
  40.9763923  59.1463113  69.6542960  36.8176322  63.0259703  62.6443950
  37.7719575  62.9943645  62.5773881  36.6188845  62.5650326  63.4594176
  35.1726550  68.5679322  59.6614148  35.0381018  67.8079723  59.0952146
  34.7558613  69.2920222  59.1942937  32.6610618  55.9298952  65.9106945
  33.3069482  55.4197906  66.3994170  32.4527769  56.6667634  66.4850370
  45.1864010  62.9979800  71.4099085  46.0555170  63.1720452  71.0485720
  44.7070762  63.8174217  71.2874814  37.0008109  53.0766570  70.0081959
  37.8639570  52.7203374  70.2185283  36.4273520  52.7380464  70.6957363
  50.8573236  78.5967817  65.6571274  50.5663102  79.5013448  65.5417940
  51.4930221  78.6384345  66.3715344  55.8163121  78.2829233  62.6521068
  55.5163844  79.1854272  62.5436875  55.4714181  78.0161416  63.5042221
  57.3431658  77.7317203  60.1895820  56.7140520  77.8962917  59.4871887
  56.9557320  78.1458813  60.9606784  58.4771821  76.3131600  64.1435527
  58.6888716  76.9563360  63.4669908  58.4301569  75.4793917  63.6757457
  59.5917649  79.1903556  62.3157884  60.4135093  78.7883743  62.0340566
  59.5880052  79.0871790  63.2674000  53.3574252  78.7387599  64.4718595
  53.4218685  79.2008006  65.3076767  52.6485176  78.1084964  64.6000905
  49.5589610  66.4847286  71.0011930  49.1656555  65.9313485  71.6759575
  50.3755750  66.7957865  71.3918448  54.6990746  81.0279273  68.4697917
  54.2554601  80.2415651  68.1518822  55.3607960  81.2158423  67.8041808
  49.4577868  82.5575074  62.9958596  50.0085293  82.4292138  62.2235590
  48.6189344  82.8569963  62.6453488  56.7971984  81.3082073  66.4979318
  56.7790460  82.1290954  66.0059588  57.7191905  81.1836148  66.7229460
  59.5990597  76.1461215  59.9688685  58.9414272  76.8360477  60.0568814
  60.4030997  76.5357647  60.3122671  57.6190792  81.3188086  57.0821588
  57.9113766  81.8793143  56.3633953  58.1289412  81.6116647  57.8374747
  52.5824417  82.0968437  58.1715041  52.5400596  82.3229283  57.2423573
  53.4987116  81.8631812  58.3200842  55.5185062  81.3549562  62.3189371
  55.5722084  81.9240498  63.0867087  54.6499843  81.5251447  61.9543408
  53.2761494  79.5460488  61.6474841  53.1372579  79.1779273  62.5200779
  52.4876090  80.0608128  61.4758798  53.8709646  84.6469585  52.9900377
  54.0461401  84.1757628  53.8046000  53.1842434  85.2735351  53.2181638
  54.8266709  78.9242091  59.0363678  54.4916541  78.8842861  59.9321328
  54.3270654  78.2586807  58.5634089  59.4180032  80.9797034  66.9706518
  59.3592578  80.2956254  66.3037102  59.8199550  81.7216024  66.5187144
  59.4197439  78.9436617  65.2020498  58.5324218  78.6062539  65.3246897
  59.9895990  78.2119649  65.4389264  52.9498593  83.6038070  62.1681741
  52.8768764  84.4093041  62.6801046  52.5075986  83.8030036  61.3429763
  52.7388372  82.8409840  55.6784563  51.9555894  83.3831520  55.7722787
  53.4381118  83.3583819  56.0778804  55.4097276  83.5024904  64.3239900
  56.1225248  84.1372369  64.2515801  54.9187305  83.5988770  63.5079902
  50.4609190  81.2519347  65.1445471  51.1618649  81.8855830  65.2974865
  49.9904305  81.5934079  64.3841110  58.2610476  73.8063955  62.9698021
  57.6081926  74.0539862  62.3150474  58.6390856  72.9928093  62.6360498
  55.2217650  83.8423648  57.0726191  55.4040044  83.0245304  57.5353944
  56.0450636  84.0591340  56.6351081  55.5559815  82.7691833  54.3341240
  56.0847582  82.2584288  53.7211402  55.8188035  82.4534363  55.1986773
  53.0520832  85.8550693  63.6921674  53.6039140  86.0182315  64.4570759
  53.3927025  86.4455131  63.0201699  57.9031706  80.6811951  69.5470329
  58.4471610  81.2941909  69.0525283  57.3218551  81.2391529  70.0637342
  56.1889219  83.8032669  60.6785356  56.0640358  83.0022409  60.1696302
  56.8468310  84.2978862  60.1899326  58.2524127  81.6041689  62.3064907
  57.3054463  81.4847040  62.2343233  58.6006900  80.7164187  62.3891168
  55.2570561  81.3994405  58.5069259  55.1095523  80.4711112  58.6876829
  56.0824054  81.4214496  58.0226334  58.8604682  82.2222964  59.5934132
  59.7851230  82.0165825  59.4558583  58.6919986  81.9739365  60.5023473
  53.1986643  83.4209175  65.7070329  53.5073769  83.1758322  66.5793028
  53.9962125  83.6255813  65.2189199  50.6681127  81.1185094  60.0098007
  50.0461136  80.4555799  59.7100235  51.3385994  81.1446225  59.3271655
  61.2260500  80.1408005  68.8831650  60.4356044  80.1232144  68.3436149
  60.9893855  80.6796299  69.6380687  61.3458375  76.9900471  66.1964378
  61.3956380  76.8250479  67.1379901  61.2372299  76.1227730  65.8062259
  62.8476572  79.4097413  66.4406400  62.5561381  79.7727393  67.2769861
  62.2348703  78.6964421  66.2619732  61.0963760  74.5330027  64.9086458
  61.5717882  74.7257674  64.1005309  60.1729326  74.5889213  64.6629842
  50.1943945  85.4468819  63.0888519  51.0971192  85.4792429  63.4055014
  49.9681315  84.5169270  63.1034855  67.6850240  90.0360344  60.8144360
  68.3228650  89.9167091  60.1107700  67.5671083  90.9841187  60.8732312
  64.4939947  89.9887772  60.7505884  64.1558458  89.8728836  59.8626419
  65.3629715  89.5878937  60.7306891  60.3526762  91.8423248  56.7402775
  59.7891627  91.7513185  55.9719063  60.2379157  91.0223153  57.2205268
  64.9759730  91.1422623  66.7092090  64.9648370  90.7475422  65.8372594
  65.1380369  90.4088696  67.3025861  57.8991194  93.3374440  59.5786996
  58.6912486  92.9965264  59.1633295  58.1387844  93.4469415  60.4989149
  65.9326321  95.5094216  52.0517240  65.2814301  96.0948296  51.6651254
  66.7270684  96.0400411  52.1112278  59.8581948  92.5983353  52.4504375
  60.6312824  92.0512340  52.3117250  60.2107347  93.4627602  52.6618836
  61.6966991  93.9259735  65.6571274  61.4056857  94.8305366  65.5417940
  62.3323975  93.9676263  66.3715344  62.6223198  91.3036584  62.2472634
  63.2186770  91.0792606  61.5329597  62.6798169  90.5621329  62.8498081
  62.1948226  88.7576019  50.0822825  62.4473747  88.2357540  49.3206288
  61.2572785  88.5942164  50.1849508  67.2391509  87.7611797  57.8897568
  68.0254598  87.3431221  57.5387985  67.5030213  88.6657890  58.0579216
  67.4101586  93.1984648  52.5886225  66.7747419  93.2719274  53.3007129
  67.0798993  93.7878247  51.9105304  72.6399936  87.6987031  58.7930546
  73.3725108  87.1286247  59.0268376  71.8839292  87.3108631  59.2337052
  61.9144515  90.6604125  52.2847200  61.7980773  89.9849028  52.9528284
  62.0246775  90.1736499  51.4679353  64.2576056  90.1214272  55.9893889
  63.8934263  89.5944893  56.7006810  65.1143172  89.7312741  55.8160374
  70.1625356  81.4108605  63.2525155  69.8308681  82.2804016  63.0286370
  69.5670970  81.0944889  63.9319185  66.6556876  93.6121151  62.6521068
  66.3557599  94.5146189  62.5436875  66.3107935  93.3453334  63.5042221
  60.1069357  90.0634948  58.6857772  59.1819854  89.9311162  58.8935464
  60.3553771  90.8429167  59.1827715  70.0554020  86.1303691  60.3318505
  69.1470897  86.0619099  60.0377266  70.0041615  86.6075636  61.1600330
  63.8770764  87.6061829  51.9701904  63.7570389  88.0518880  52.8087384
  63.1823352  87.9547147  51.4115442  57.4678168  89.7068221  59.5201561
  57.5970550  89.9602700  60.4340973  56.7875620  90.2995929  59.2006216
  61.6377656 100.3765471  55.6192035  61.5601685 101.3273296  55.6980516
  61.0339299 100.0311344  56.2766962  64.1294885  87.5493336  68.2753402
  63.3528219  88.1087257  68.2656267  64.7685448  88.0350119  68.7968272
  71.9215666  84.3320129  62.1096379  71.2790046  84.6252662  61.4636173
  71.4170595  84.2173050  62.9149576  69.5755830  88.0783302  52.7982238
  70.4873686  88.3110689  52.6229936  69.0665477  88.6620347  52.2357317
  62.3841258  90.3578790  67.8371369  63.1255942  90.8963834  67.5606193
  61.6778243  90.9845079  67.9942921  67.8596597  92.5007930  66.4343531
  68.2679953  92.0590341  65.6898163  67.1373859  91.9260558  66.6877724
  64.2127667  87.4380537  63.8077088  65.0588863  87.8619951  63.9511737
  64.1526305  86.7814161  64.5015651  68.1825412  93.0609121  60.1895820
  67.5534274  93.2254835  59.4871887  67.7951074  93.4750730  60.9606784
  72.0614644  93.9963559  57.5440183  71.3765682  94.3762460  56.9937217
  72.1458493  94.6058885  58.2772131  67.3627113  85.0984905  65.4658261
  67.1188045  85.8526966  64.9292537  67.6387043  85.4770253  66.3005508
  69.3165575  91.6423518  64.1435527  69.5282471  92.2855278  63.4669908
  69.2695324  90.8085834  63.6757457  66.9191804  84.2541338  61.0472099
  66.0576283  84.5522592  61.3388837  66.9454239  84.4711737  60.1153132
  63.7353374  92.7983529  57.4545905  64.1991719  93.0771232  56.6650527
  63.4710172  91.8966974  57.2718995  60.6277455  92.3455011  60.3925668
  61.1978812  92.7742279  59.7543152  61.2185567  92.0637595  61.0909854
  62.6722260  88.9206681  54.2635470  63.3746303  89.3727725  54.7309396
  62.3402888  88.2790500  54.8915363  61.1202621  87.5118438  68.6386679
  60.4901282  88.1934719  68.8722076  61.0138709  87.4001520  67.6939818
  56.4147594  87.1790234  59.5652603  55.6246648  87.4347763  59.0892714
  56.9058841  87.9938572  59.6704644  70.4311403  94.5195473  62.3157884
  71.2528847  94.1175660  62.0340566  70.4273806  94.4163707  63.2674000
  58.3662339  87.5434813  56.5236080  57.5693503  87.6553508  57.0419576
  58.1387931  87.8821465  55.6576971  64.1968007  94.0679517  64.4718595
  64.2612439  94.5299924  65.3076767  63.4878931  93.4376881  64.6000905
  54.6985297  87.4320724  61.9967594  54.9493335  88.3167734  62.2625170
  55.2344845  87.2525326  61.2242686  78.5217396  90.8634222  58.6642856
  77.7681105  90.2941620  58.5086860  78.6564938  90.8296886  59.6113490
  63.9116025  95.7347624  54.3397575  63.7761699  96.5799160  54.7682423
  64.4525837  95.9366902  53.5763509  60.3983364  81.8139204  71.0011930
  60.0050310  81.2605402  71.6759575  61.2149505  82.1249782  71.3918448
  57.3645422  93.2523062  54.9125500  57.8769942  94.0466312  55.0631065
  58.0168135  92.5549352  54.8459102  59.1740307  96.3688818  56.9948253
  59.3506935  97.2906783  56.8069237  59.9697140  96.0547238  57.4242633
  63.3151325  83.2297083  68.5932187  64.0561039  83.8304236  68.5136649
  63.5469248  82.4874721  68.0350229  58.4592663  88.4153450  66.8710417
  58.3446178  87.5138707  67.1717515  57.6037181  88.6617147  66.5195233
  65.5384501  96.3571190  68.4697917  65.0948355  95.5707569  68.1518822
  66.2001715  96.5450341  67.8041808  60.2971622  97.8866992  62.9958596
  60.8479047  97.7584055  62.2235590  59.4583098  98.1861881  62.6453488
  67.6365739  96.6373990  66.4979318  67.6184214  97.4582871  66.0059588
  68.5585659  96.5128066  66.7229460  64.0938793  94.1518120  67.3402827
  64.6267130  93.3906408  67.1102135  63.5652874  93.8591772  68.0826981
  55.3294339  91.5811716  55.6885071  56.1669561  91.9908725  55.4718778
  55.5072606  90.6411158  55.6585265  67.2258771  89.2486797  51.3768904
  66.7105394  90.0191402  51.6157291  66.9536079  88.5751933  52.0001965
  64.8105882  84.0936498  56.4354142  63.9547478  83.7043348  56.2559781
  65.2232834  84.1728459  55.5753928  62.5847914  81.7121571  59.8411884
  63.4500911  81.5164379  59.4817773  62.6525423  81.4831923  60.7681240
  72.1993045  92.0019152  53.3122077  71.4222488  91.6630311  52.8677239
  72.8784526  92.0071775  52.6377042  67.0145074  87.1213889  53.2028685
  66.7095210  87.4360038  54.0538828  67.9675516  87.1995309  53.2456018
  65.4591506  93.2804112  54.8521639  64.9312867  92.5456872  54.5394876
  64.9579009  94.0578789  54.6061607  70.4384352  91.4753133  59.9688685
  69.7808026  92.1652394  60.0568814  71.2424751  91.8649565  60.3122671
  60.1910233  83.9423779  57.2128250  60.7653985  83.7198960  56.4801443
  60.7781216  84.0112473  57.9656852  69.2489811  89.8297506  58.0192627
  69.7621692  90.4627497  58.5214337  69.8991035  89.2298701  57.6535987
  63.6044106  91.0984323  47.8556612  62.6971168  90.8673576  48.0547761
  64.1015138  90.3021942  48.0430593  66.5112185  99.8081830  50.7753298
  65.8373884 100.1113527  51.3838256  66.8978007 100.6110910  50.4258755
  65.7270642  87.3046961  60.2650967  64.8093203  87.5261908  60.1072655
  66.1430785  87.3793272  59.4062675  66.5105689  88.7038377  55.3953648
  67.2577508  89.2159774  55.0860770  66.7797279  88.3822430  56.2558041
  64.7832339  91.1996918  52.3780602  63.8743559  90.9155950  52.4753072
  64.8127423  91.6195996  51.5183909  70.0151607  94.8103507  56.1471770
  69.5613934  93.9694417  56.2036960  69.3845574  95.4464905  56.4846550
  68.9584526  85.7395493  57.3772437  68.2207283  85.2272879  57.7082680
  69.2111300  85.2995875  56.5655714  68.4584546  96.6480004  57.0821588
  68.7507520  97.2085061  56.3633953  68.9683167  96.9408565  57.8374747
  55.3520510  88.9202432  56.3595804  55.1544910  88.3271792  55.6346871
  54.7967174  88.6154642  57.0771743  63.3317234  88.8125538  58.4790397
  63.3865843  87.8599375  58.4032874  62.5208436  88.9684977  58.9631696
  64.4808427  92.7405661  49.7168681  64.0427857  92.0241520  49.2574318
  65.2218868  92.9681776  49.1553772  61.2709593  87.4302598  56.2380776
  60.4577459  87.7296768  56.6445968  61.7668588  87.0358287  56.9555258
  63.4218171  97.4260355  58.1715041  63.3794350  97.6521201  57.2423573
  64.3380870  97.1923729  58.3200842  66.8683805  87.8944422  65.0695670
  67.2233193  88.1215895  65.9290136  67.5155936  88.2262799  64.4472925
  72.5981542  91.0162858  55.7744999  72.4599441  91.2064454  54.8466188
  72.2417761  91.7782241  56.2313050  60.7623668  85.0020953  61.8542011
  61.4023048  84.8609712  61.1564974  59.9301199  84.7155467  61.4780613
  72.6250922  93.0839385  60.7856271  73.0587428  92.9914674  61.6339325
  73.3382502  93.0596886  60.1476287  61.5383972  94.3023384  57.9677004
  62.3324571  93.8073704  57.7659579  60.8275664  93.7741247  57.6044709
  66.3578817  96.6841479  62.3189371  66.4115839  97.2532416  63.0867087
  65.4893598  96.8543364  61.9543408  57.8466736  88.4466466  54.0436756
  56.9164324  88.3850921  54.2606718  57.9424208  87.9242418  53.2473398
  57.7652285  84.9721278  56.6314998  58.0259102  85.8866612  56.5224158
  58.5869457  84.5045721  56.7811611  59.2377210  86.3859036  63.8013822
  59.9100263  86.1776398  63.1526471  58.4106996  86.1881122  63.3619055
  73.4866471  93.1263086  63.3189156  73.6802361  94.0308896  63.5648431
  73.3867089  92.6670505  64.1527741  65.1402782  83.0120976  65.8179483
  64.4930697  83.7110926  65.7243960  65.9103797  83.4457120  66.1855732
  68.5481580  93.2769829  68.8930037  68.3967086  93.0480380  67.9760120
  68.5386259  94.2340430  68.9061382  65.3166916  90.8501741  63.8776303
  66.2458976  91.0012901  63.7045270  64.8957946  90.9385762  63.0224950
  64.1155248  94.8752406  61.6474841  63.9766334  94.5071190  62.5200779
  63.3269844  95.3900045  61.4758798  64.7103400  99.9761502  52.9900377
  64.8855156  99.5049545  53.8046000  64.0236188 100.6027268  53.2181638
  65.6660463  94.2534008  59.0363678  65.3310296  94.2134778  59.9321328
  65.1664409  93.5878724  58.5634089  59.6404707  89.6601639  64.5616260
  59.5024505  88.9281877  65.1627799  60.5509631  89.5710539  64.2800447
  68.6019655  91.5990043  49.3100738  67.9848826  90.8736871  49.2133791
  68.1336143  92.3599403  48.9667812  62.2687008  89.3721598  64.0499939
  62.9786626  88.7314790  64.0086558  62.2256316  89.6234493  64.9726120
  70.2573787  96.3088951  66.9706518  70.1986333  95.6248171  66.3037102
  70.6593305  97.0507941  66.5187144  60.9815942  86.3586816  65.8695579
  60.4453299  85.9077554  66.5217175  60.3932650  86.4932725  65.1266043
  59.2764485 103.1250865  59.7640237  59.5161084 103.7569389  60.4419256
  58.4333682 102.7738905  60.0505597  70.2591194  94.2728535  65.2020498
  69.3717973  93.9354457  65.3246897  70.8289745  93.5411566  65.4389264
  51.9120341  90.6052627  58.5263550  52.5991381  90.2914357  57.9384565
  51.7568470  91.5093992  58.2530801  56.7155063  85.4942823  62.9548573
  56.6313252  84.8868493  62.2198983  55.8937769  85.9851842  62.9558070
  63.7892347  98.9329987  62.1681741  63.7162519  99.7384959  62.6801046
  63.3469740  99.1321953  61.3429763  63.5782127  98.1701758  55.6784563
  62.7949649  98.7123438  55.7722787  64.2774872  98.6875737  56.0778804
  66.8878777  83.9796387  58.3218768  67.3847476  83.2266349  58.0019839
  66.1165758  84.0160704  57.7561978  74.7408534  89.6836752  59.9637060
  74.7298411  90.5661468  59.5930993  73.8725914  89.3308303  59.7691597
  66.2491031  98.8316822  64.3239900  66.9619003  99.4664286  64.2515801
  65.7581059  98.9280687  63.5079902  67.9708558  92.7368074  55.8957192
  67.0364836  92.8569537  55.7261896  68.1485226  91.8340541  55.6317202
  63.4713746  86.1213770  58.0490453  63.1011533  85.5684810  58.7371358
  63.9672838  85.5171903  57.4965453  71.3581109  88.5785393  56.4307226
  71.8241561  89.4113385  56.3567528  71.8088609  88.1130375  57.1352484
  61.3002944  96.5811265  65.1445471  62.0012404  97.2147748  65.2974865
  60.8298059  96.9225997  64.3841110  69.4257340  94.9229215  53.4293378
  69.7017184  94.8085809  54.3387252  68.5561839  94.5246700  53.3905551
  69.3297772  80.9465980  60.4698127  68.4160852  81.1770207  60.6380334
  69.7590873  81.0304425  61.3212160  69.1004230  89.1355872  62.9698021
  68.4475680  89.3831780  62.3150474  69.4784610  88.3220011  62.6360498
  66.0611404  99.1715566  57.0726191  66.2433799  98.3537222  57.5353944
  66.8844390  99.3883258  56.6351081  66.3953570  98.0983751  54.3341240
  66.9241336  97.5876205  53.7211402  66.6581789  97.7826281  55.1986773
  65.1491803  89.8775683  69.4564058  64.4732440  89.7769813  70.1266433
  65.9719437  89.7214897  69.9200055  56.8970662  96.1147620  62.0776574
  57.4824099  95.3691308  62.2104478  56.6995501  96.4251577  62.9613237
  59.7509318  99.1498867  57.0939016  59.0819693  99.6344995  56.6103056
  59.6122187  99.3968088  58.0082394  51.4888317  88.6853220  60.7981017
  51.5272417  88.1516811  61.5918135  50.9828610  88.1588426  60.1791994
  63.8914586 101.1842611  63.6921674  64.4432894 101.3474232  64.4570759
  64.2320780 101.7747049  63.0201699  58.8679079  83.5317761  64.2943559
  58.9320406  84.3932592  63.8820957  58.8046200  82.9191762  63.5615917
  58.3431352  85.6040893  67.9416593  58.9703391  85.2217971  68.5554118
  57.4859271  85.3855095  68.3072286  68.7425460  96.0103868  69.5470329
  69.2865364  96.6233827  69.0525283  68.1612305  96.5683447  70.0637342
  55.1196895  87.4117322  53.8734948  55.4150336  86.5028001  53.8202002
  54.2184930  87.3905062  53.5515950  67.0282973  99.1324586  60.6785356
  66.9034113  98.3314326  60.1696302  67.6862065  99.6270780  60.1899326
  58.6491142  85.4873319  59.8562497  57.9277727  86.1009287  59.7169970
  59.4384397  86.0231084  59.7779143  69.0917882  96.9333607  62.3064907
  68.1448217  96.8138958  62.2343233  69.4400655  96.0456105  62.3891168
  61.4517455  82.8227745  66.1303148  61.9751857  83.0690042  66.8929458
  61.2329788  83.6547780  65.7106286  56.8484736  85.0931420  53.9974273
  56.5197442  84.2128799  53.8149379  57.2024107  85.0379089  54.8850662
  66.0964315  96.7286323  58.5069259  65.9489278  95.8003030  58.6876829
  66.9217809  96.7506413  58.0226334  59.9626559  85.3804390  54.3649751
  60.3022632  85.9090311  53.6428359  60.4098680  85.7184796  55.1408317
  69.6998437  97.5514881  59.5934132  70.6244984  97.3457743  59.4558583
  69.5313740  97.3031283  60.5023473  62.6570000  83.7641441  63.8152819
  62.3166821  82.9649254  64.2173499  61.9509006  84.0643151  63.2429652
  63.3086472  80.8490753  62.2680142  64.1312541  80.3751231  62.1459032
  63.5524536  81.6281237  62.7678828  60.8325051  87.5409874  60.0772121
  60.6869632  87.8550177  60.9696402  60.3550254  88.1594774  59.5243019
  62.6921434  84.5312422  60.1253010  62.6783002  83.6353515  59.7885308
  63.4093862  84.5383085  60.7591296  64.5447564  84.9649762  62.1706138
  64.2865342  85.8866832  62.1690468  64.0132605  84.5680196  62.8606602
  69.4893753  98.0700549  54.9496223  69.6630631  97.5046971  54.1970075
  69.9822644  98.8701444  54.7675713  55.3070713  90.0815218  63.0159782
  54.7624181  90.8575026  63.1480056  56.1850063  90.4286022  62.8578903
  75.3433144  90.8336972  56.5686523  75.7864290  90.0844297  56.1705646
  74.4659655  90.8247108  56.1860255  70.4768926  97.3867313  52.0493121
  71.1719830  98.0074006  52.2680436  70.8192076  96.5362665  52.3245499
  56.0936735  89.2085114  65.9089939  55.3518471  89.3567750  66.4954569
  55.7729479  89.4693380  65.0456688  72.3760349  94.8367019  53.5780452
  72.9011673  95.1754292  52.8529772  72.2882701  93.9014034  53.3943587
  64.0380397  98.7501093  65.7070329  64.3467524  98.5050239  66.5793028
  64.8355879  98.9547731  65.2189199  64.0601009 100.9039002  57.9375705
  63.6206000 100.4115381  58.6308562  64.8109126 100.3611970  57.6967780
  56.5393348  97.0950543  57.9400333  57.3651368  96.7954315  57.5598977
  56.1887400  96.3258165  58.3890122  61.5074882  96.4477011  60.0098007
  60.8854891  95.7847716  59.7100235  62.1779749  96.4738143  59.3271655
  54.7401954  95.0136869  58.8989267  53.9033862  94.5859044  58.7173268
  54.7125599  95.2069313  59.8360058  61.5799409  84.9258799  69.6030513
  61.6287565  85.8020922  69.2208282  62.1221923  84.3836192  69.0302156
  72.0654255  95.4699923  68.8831650  71.2749799  95.4524061  68.3436149
  71.8287609  96.0088216  69.6380687  72.1852130  92.3192389  66.1964378
  72.2350135  92.1542396  67.1379901  72.0766053  91.4519648  65.8062259
  61.0688389  94.9980935  53.4856467  61.2176509  95.6816399  52.8323140
  61.8754832  94.9786025  54.0005923  69.4755892  88.3023317  67.5123685
  70.3765755  88.1629782  67.2207683  69.5503867  88.4677772  68.4521863
  63.8098698  85.6790172  66.3576872  62.9402007  85.9723738  66.0859460
  64.0458178  86.2630617  67.0784135  73.6870327  94.7389330  66.4406400
  73.3955135  95.1019311  67.2769861  73.0742458  94.0256339  66.2619732
  74.8866009  92.3042210  58.9608970  75.7212900  92.7432014  59.1246531
  75.0225138  91.8280863  58.1417216  71.9357515  89.8621945  64.9086458
  72.4111637  90.0549591  64.1005309  71.0123080  89.9181131  64.6629842
  58.8241022  91.0246112  54.4917536  58.5787063  90.1208442  54.6897746
  58.9936936  91.0263263  53.5497014  66.5137731  81.8969789  63.8742292
  67.0319675  82.6330816  63.5488780  66.1592864  82.2033782  64.7089051
  64.5683794  97.4929065  50.9568215  63.9957761  98.1119252  50.5038687
  65.1416588  98.0428427  51.4908137  70.6359184  86.7387705  63.1414764
  71.5876607  86.8385803  63.1626988  70.4662634  85.9465974  63.6512848
  68.6573563  83.8243288  63.3274165  68.0623496  84.1048301  62.6320653
  68.3723260  84.3137189  64.0990906  67.7881054  97.7766215  52.0876797
  68.7211727  97.7111777  52.2909673  67.7004267  98.6122482  51.6291330
  70.4169071  97.0932086  49.0480745  70.3382702  96.7591949  49.9416503
  71.2378737  97.5853853  49.0472217  73.1147262  89.9593825  62.2557063
  73.0823582  89.0209826  62.4416747  73.7247885  90.0377862  61.5222888
  73.2641750  86.7504868  62.3015346  72.7480799  85.9663325  62.1145275
  74.1481699  86.4223585  62.4661866  78.9323812  91.0209832  61.3963100
  79.6627200  90.7595120  61.9570803  78.3230757  90.2838554  61.4365168
  77.0139109  89.1617694  61.9937551  76.2872272  89.0273659  61.3854043
  76.5986396  89.4694523  62.7994269  64.8369285  92.8807624  69.7584924
  65.7572295  93.0586223  69.9524971  64.8018868  91.9363669  69.6064624
  54.0551450  88.0746218  58.6838199  53.7354234  87.2211526  58.3912573
  53.5084878  88.2894796  59.4396166  57.8331358  90.7908659  62.4007705
  58.0517367  91.7225766  62.4195739  58.2457131  90.4316633  63.1862509
  62.7059223  86.3641864  71.7910454  62.6055950  87.3136221  71.7222545
  62.4880765  86.0360103  70.9186524  53.9239710  91.6949129  60.6531321
  53.2303182  91.2803082  60.1401275  54.6712701  91.7369666  60.0564739
  62.5690493  89.7939003  70.6075516  62.0857575  90.5939363  70.8139405
  62.6551432  89.8046948  69.6542960  55.8376453  91.6267383  58.5297335
  55.8147141  91.7255070  57.5779219  56.1477089  92.4732534  58.8514502
  58.4963831  93.6843538  62.6443950  59.4507084  93.6527480  62.5773881
  58.2976354  93.2234162  63.4594176  59.0863213  92.2544654  65.2114747
  59.9056102  92.7488733  65.2349585  59.3600020  91.3376622  65.1832315
  72.1944345  84.6701927  58.2897042  72.9704735  85.1598380  58.5621659
  71.4692479  85.0959981  58.7468912  74.6316904  85.3829546  59.3470983
  75.2261394  85.1425282  58.6364291  74.7043487  84.6636677  59.9744519
  56.8514059  99.2263157  59.6614148  56.7168527  98.4663558  59.0952146
  56.4346122  99.9504057  59.1942937  67.9873022  94.4100081  48.6690723
  68.6908872  94.6150083  49.2848379  67.2635671  94.9776843  48.9339807
  68.8170833  90.1609942  54.7892993  68.7606034  90.6178494  53.9500626
  69.3699175  89.4000627  54.6115836  76.9387976  88.6895747  58.1214404
  76.3787534  88.7588937  58.8945966  76.3331480  88.5136732  57.4013900
  60.0083185 100.1232474  59.8732590  59.8915569 101.0677907  59.7711281
  59.1875631  99.8206036  60.2618390  69.8959720  94.8482610  50.7189183
  70.7305324  94.4163809  50.5366658  69.7344063  94.6764624  51.6466078
  69.5505612  91.3514723  52.0845522  69.4954416  91.1858995  51.1433966
  68.9251667  92.0590756  52.2407712  54.3398127  86.5882788  65.9106945
  54.9856990  86.0781742  66.3994170  54.1315278  87.3251469  66.4850370
  66.8651519  93.6563635  71.4099085  67.7342679  93.8304288  71.0485720
  66.3858271  94.4758052  71.2874814  61.0337699 100.7760736  63.0888519
  61.9364946 100.8084347  63.4055014  60.8075069  99.8461187  63.1034855
  62.7891301  99.5291723  59.7498597  61.8386932  99.5293584  59.6362970
  63.0923787  98.7824457  59.2334632  58.6795618  83.7350405  70.0081959
  59.5427079  83.3787210  70.2185283  58.1061029  83.3964300  70.6957363
  78.5243995 105.3652261  60.8144360  79.1622405 105.2459009  60.1107700
  78.4064838 106.3133105  60.8732312  75.3333701 105.3179689  60.7505884
  74.9952213 105.2020754  59.8626419  76.2023469 104.9170854  60.7306891
  71.1920517 107.1715166  56.7402775  70.6285382 107.0805103  55.9719063
  71.0772912 106.3515070  57.2205268  75.8153484 106.4714541  66.7092090
  75.8042125 106.0767339  65.8372594  75.9774124 105.7380614  67.3025861
  68.7384949 108.6666357  59.5786996  69.5306241 108.3257182  59.1633295
  68.9781599 108.7761332  60.4989149  76.7720076 110.8386133  52.0517240
  76.1208055 111.4240214  51.6651254  77.5664438 111.3692328  52.1112278
  70.6975703 107.9275271  52.4504375  71.4706579 107.3804258  52.3117250
  71.0501102 108.7919520  52.6618836  72.5360745 109.2551653  65.6571274
  72.2450611 110.1597284  65.5417940  73.1717730 109.2968180  66.3715344
  73.4616952 106.6328501  62.2472634  74.0580524 106.4084524  61.5329597
  73.5191924 105.8913247  62.8498081  73.0341980 104.0867937  50.0822825
  73.2867501 103.5649458  49.3206288  72.0966540 103.9234082  50.1849508
  78.0785263 103.0903715  57.8897568  78.8648353 102.6723138  57.5387985
  78.3423968 103.9949807  58.0579216  78.2495341 108.5276565  52.5886225
  77.6141174 108.6011192  53.3007129  77.9192747 109.1170164  51.9105304
  83.4793690 103.0278948  58.7930546  84.2118862 102.4578165  59.0268376
  82.7233046 102.6400549  59.2337052  72.7538269 105.9896043  52.2847200
  72.6374527 105.3140946  52.9528284  72.8640529 105.5028417  51.4679353
  75.0969810 105.4506190  55.9893889  74.7328017 104.9236811  56.7006810
  75.9536926 105.0604659  55.8160374  81.0019111  96.7400522  63.2525155
  80.6702436  97.6095933  63.0286370  80.4064724  96.4236806  63.9319185
  74.7375297 100.4796089  50.9855237  74.9049699 101.3476326  51.3525708
  74.5472466 100.6423371  50.0616527  77.4950630 108.9413068  62.6521068
  77.1951353 109.8438107  62.5436875  77.1501690 108.6745252  63.5042221
  70.9463112 105.3926865  58.6857772  70.0213608 105.2603079  58.8935464
  71.1947525 106.1721084  59.1827715  80.8947774 101.4595609  60.3318505
  79.9864651 101.3911017  60.0377266  80.8435370 101.9367553  61.1600330
  74.7164518 102.9353747  51.9701904  74.5964143 103.3810798  52.8087384
  74.0217106 103.2839065  51.4115442  68.3071923 105.0360139  59.5201561
  68.4364304 105.2894618  60.4340973  67.6269374 105.6287847  59.2006216
  72.4771410 115.7057389  55.6192035  72.3995440 116.6565214  55.6980516
  71.8733054 115.3603261  56.2766962  74.9688640 102.8785254  68.2753402
  74.1921974 103.4379174  68.2656267  75.6079203 103.3642037  68.7968272
  82.7609421  99.6612047  62.1096379  82.1183801  99.9544580  61.4636173
  82.2564349  99.5464967  62.9149576  80.4149584 103.4075220  52.7982238
  81.3267440 103.6402607  52.6229936  79.9059231 103.9912264  52.2357317
  73.2235012 105.6870707  67.8371369  73.9649697 106.2255751  67.5606193
  72.5171998 106.3136996  67.9942921  78.6990352 107.8299848  66.4343531
  79.1073708 107.3882258  65.6898163  77.9767613 107.2552475  66.6877724
  75.0521422 102.7672455  63.8077088  75.8982617 103.1911868  63.9511737
  74.9920060 102.1106079  64.5015651  79.0219166 108.3901039  60.1895820
  78.3928029 108.5546753  59.4871887  78.6344829 108.8042648  60.9606784
  82.9008398 109.3255476  57.5440183  82.2159437 109.7054378  56.9937217
  82.9852248 109.9350803  58.2772131  78.2020867 100.4276823  65.4658261
  77.9581799 101.1818884  64.9292537  78.4780798 100.8062171  66.3005508
  80.1559330 106.9715435  64.1435527  80.3676225 107.6147195  63.4669908
  80.1089078 106.1377752  63.6757457  77.7585559  99.5833256  61.0472099
  76.8970038  99.8814510  61.3388837  77.7847994  99.8003655  60.1153132
  74.5747128 108.1275447  57.4545905  75.0385474 108.4063150  56.6650527
  74.3103926 107.2258891  57.2718995  71.4671209 107.6746928  60.3925668
  72.0372566 108.1034197  59.7543152  72.0579321 107.3929513  61.0909854
  73.5116014 104.2498599  54.2635470  74.2140058 104.7019643  54.7309396
  73.1796643 103.6082418  54.8915363  71.9596376 102.8410356  68.6386679
  71.3295037 103.5226637  68.8722076  71.8532464 102.7293437  67.6939818
  67.2541348 102.5082152  59.5652603  66.4640402 102.7639680  59.0892714
  67.7452596 103.3230490  59.6704644  81.2705158 109.8487391  62.3157884
  82.0922602 109.4467578  62.0340566  81.2667561 109.7455625  63.2674000
  69.2056094 102.8726731  56.5236080  68.4087257 102.9845425  57.0419576
  68.9781686 103.2113383  55.6576971  75.0361761 109.3971434  64.4718595
  75.1006194 109.8591841  65.3076767  74.3272685 108.7668799  64.6000905
  65.5379051 102.7612642  61.9967594  65.7887090 103.6459652  62.2625170
  66.0738600 102.5817244  61.2242686  89.3611151 106.1926139  58.6642856
  88.6074859 105.6233537  58.5086860  89.4958692 106.1588804  59.6113490
  74.7509779 111.0639542  54.3397575  74.6155454 111.9091077  54.7682423
  75.2919592 111.2658819  53.5763509  71.2377119  97.1431122  71.0011930
  70.8444064  96.5897320  71.6759575  72.0543259  97.4541700  71.3918448
  68.2039176 108.5814980  54.9125500  68.7163697 109.3758230  55.0631065
  68.8561889 107.8841270  54.8459102  70.0134061 111.6980736  56.9948253
  70.1900689 112.6198701  56.8069237  70.8090895 111.3839155  57.4242633
  74.1545080  98.5589001  68.5932187  74.8954793  99.1596154  68.5136649
  74.3863002  97.8166638  68.0350229  69.2986418 103.7445368  66.8710417
  69.1839933 102.8430625  67.1717515  68.4430935 103.9909065  66.5195233
  76.3778255 111.6863108  68.4697917  75.9342110 110.8999487  68.1518822
  77.0395469 111.8742259  67.8041808  71.1365377 113.2158910  62.9958596
  71.6872802 113.0875973  62.2235590  70.2976852 113.5153799  62.6453488
  78.4759493 111.9665908  66.4979318  78.4577969 112.7874789  66.0059588
  79.3979414 111.8419983  66.7229460  74.9332548 109.4810038  67.3402827
  75.4660884 108.7198326  67.1102135  74.4046629 109.1883689  68.0826981
  78.1002243  94.5870104  62.8696469  77.7566512  95.4771745  62.7935579
  78.4681205  94.3971761  62.0066054  66.1688093 106.9103634  55.6885071
  67.0063315 107.3200642  55.4718778  66.3466361 105.9703076  55.6585265
  78.0652525 104.5778715  51.3768904  77.5499149 105.3483319  51.6157291
  77.7929834 103.9043851  52.0001965  75.6499636  99.4228415  56.4354142
  74.7941233  99.0335266  56.2559781  76.0626588  99.5020376  55.5753928
  77.1798783  96.9574759  60.8345702  76.6763579  96.9204894  60.0213507
  77.4729390  97.8667501  60.8942358  73.4241669  97.0413488  59.8411884
  74.2894666  96.8456297  59.4817773  73.4919178  96.8123840  60.7681240
  83.0386799 107.3311069  53.3122077  82.2616242 106.9922229  52.8677239
  83.7178280 107.3363692  52.6377042  77.8538828 102.4505807  53.2028685
  77.5488964 102.7651956  54.0538828  78.8069271 102.5287227  53.2456018
  76.2985260 108.6096030  54.8521639  75.7706622 107.8748790  54.5394876
  75.7972763 109.3870706  54.6061607  81.2778106 106.8045051  59.9688685
  80.6201781 107.4944312  60.0568814  82.0818506 107.1941482  60.3122671
  71.0303988  99.2715696  57.2128250  71.6047740  99.0490878  56.4801443
  71.6174970  99.3404391  57.9656852  80.0883565 105.1589423  58.0192627
  80.6015447 105.7919415  58.5214337  80.7384789 104.5590619  57.6535987
  71.3573575 101.3020157  51.2324136  70.5210887 101.6394844  51.5533410
  71.2178345 101.1669137  50.2951273  73.3326656  96.1456945  55.9403320
  72.6791068  95.8305962  55.3159935  73.2907130  95.5232686  56.6663143
  74.4437861 106.4276240  47.8556612  73.5364922 106.1965494  48.0547761
  74.9408893 105.6313860  48.0430593  77.3505939 115.1373748  50.7753298
  76.6767638 115.4405444  51.3838256  77.7371761 115.9402828  50.4258755
  76.5664396 102.6338879  60.2650967  75.6486957 102.8553826  60.1072655
  76.9824540 102.7085189  59.4062675  77.3499444 104.0330294  55.3953648
  78.0971263 104.5451692  55.0860770  77.6191033 103.7114347  56.2558041
  75.6226094 106.5288835  52.3780602  74.7137313 106.2447868  52.4753072
  75.6521178 106.9487914  51.5183909  80.8545361 110.1395425  56.1471770
  80.4007688 109.2986335  56.2036960  80.2239328 110.7756823  56.4846550
  79.7978281 101.0687411  57.3772437  79.0601038 100.5564797  57.7082680
  80.0505054 100.6287792  56.5655714  79.2978301 111.9771921  57.0821588
  79.5901275 112.5376978  56.3633953  79.8076921 112.2700482  57.8374747
  79.8989908  93.8463663  57.9714206  80.2048785  92.9861026  57.6840121
  80.6242513  94.4381283  57.7713200  66.1914264 104.2494349  56.3595804
  65.9938664 103.6563710  55.6346871  65.6360928 103.9446560  57.0771743
  74.1710988 104.1417456  58.4790397  74.2259598 103.1891292  58.4032874
  73.3602190 104.2976895  58.9631696  75.3202182 108.0697579  49.7168681
  74.8821612 107.3533438  49.2574318  76.0612623 108.2973694  49.1553772
  72.1103348 102.7594516  56.2380776  71.2971213 103.0588686  56.6445968
  72.6062342 102.3650204  56.9555258  74.2611926 112.7552272  58.1715041
  74.2188105 112.9813119  57.2423573  75.1774625 112.5215647  58.3200842
  77.7077560 103.2236340  65.0695670  78.0626947 103.4507813  65.9290136
  78.3549691 103.5554717  64.4472925  83.4375297 106.3454776  55.7744999
  83.2993195 106.5356372  54.8466188  83.0811515 107.1074159  56.2313050
  71.6017423 100.3312871  61.8542011  72.2416802 100.1901630  61.1564974
  70.7694953 100.0447384  61.4780613  83.4644676 108.4131303  60.7856271
  83.8981183 108.3206592  61.6339325  84.1776257 108.3888803  60.1476287
  72.3777727 109.6315301  57.9677004  73.1718325 109.1365622  57.7659579
  71.6669419 109.1033165  57.6044709  77.1972571 112.0133397  62.3189371
  77.2509593 112.5824333  63.0867087  76.3287352 112.1835282  61.9543408
  68.6860490 103.7758383  54.0436756  67.7558078 103.7142839  54.2606718
  68.7817962 103.2534336  53.2473398  68.6046039 100.3013196  56.6314998
  68.8652856 101.2158529  56.5224158  69.4263211  99.8337639  56.7811611
  70.0770964 101.7150953  63.8013822  70.7494018 101.5068315  63.1526471
  69.2500751 101.5173039  63.3619055  84.3260226 108.4555004  63.3189156
  84.5196116 109.3600814  63.5648431  84.2260844 107.9962423  64.1527741
  75.9796536  98.3412894  65.8179483  75.3324451  99.0402844  65.7243960
  76.7497552  98.7749038  66.1855732  79.3875334 108.6061746  68.8930037
  79.2360841 108.3772298  67.9760120  79.3780014 109.5632348  68.9061382
  76.1560671 106.1793659  63.8776303  77.0852731 106.3304819  63.7045270
  75.7351701 106.2677680  63.0224950  74.9549003 110.2044323  61.6474841
  74.8160088 109.8363108  62.5200779  74.1663599 110.7191963  61.4758798
  75.5497155 115.3053420  52.9900377  75.7248910 114.8341463  53.8046000
  74.8629943 115.9319186  53.2181638  76.5054218 109.5825926  59.0363678
  76.1704050 109.5426696  59.9321328  76.0058163 108.9170642  58.5634089
  70.4798462 104.9893556  64.5616260  70.3418260 104.2573795  65.1627799
  71.3903385 104.9002456  64.2800447  79.4413409 106.9281961  49.3100738
  78.8242580 106.2028789  49.2133791  78.9729898 107.6891321  48.9667812
  73.1080762 104.7013516  64.0499939  73.8180381 104.0606708  64.0086558
  73.0650071 104.9526410  64.9726120  81.0967541 111.6380869  66.9706518
  81.0380087 110.9540089  66.3037102  81.4987059 112.3799859  66.5187144
  71.8209696 101.6878733  65.8695579  71.2847053 101.2369472  66.5217175
  71.2326405 101.8224642  65.1266043  70.1158240 118.4542783  59.7640237
  70.3554838 119.0861307  60.4419256  69.2727436 118.1030823  60.0505597
  71.2311955 101.1467385  48.4322042  70.3541422 101.0256186  48.0684289
  71.7069708 100.3553463  48.1800931  81.0984948 109.6020453  65.2020498
  80.2111727 109.2646375  65.3246897  81.6683499 108.8703484  65.4389264
  62.7514095 105.9344545  58.5263550  63.4385135 105.6206275  57.9384565
  62.5962224 106.8385909  58.2530801  67.5548818 100.8234741  62.9548573
  67.4707006 100.2160411  62.2198983  66.7331524 101.3143759  62.9558070
  74.6286102 114.2621905  62.1681741  74.5556273 115.0676877  62.6801046
  74.1863495 114.4613871  61.3429763  74.4175881 113.4993675  55.6784563
  73.6343403 114.0415355  55.7722787  75.1168626 114.0167655  56.0778804
  77.7272531  99.3088305  58.3218768  78.2241231  98.5558267  58.0019839
  76.9559513  99.3452621  57.7561978  85.5802289 105.0128670  59.9637060
  85.5692165 105.8953386  59.5930993  84.7119668 104.6600221  59.7691597
  77.0884785 114.1608739  64.3239900  77.8012757 114.7956204  64.2515801
  76.5974814 114.2572605  63.5079902  78.8102312 108.0659992  55.8957192
  77.8758591 108.1861454  55.7261896  78.9878981 107.1632459  55.6317202
  74.3107500 101.4505688  58.0490453  73.9405288 100.8976728  58.7371358
  74.8066593 100.8463821  57.4965453  82.1974863 103.9077311  56.4307226
  82.6635316 104.7405303  56.3567528  82.6482364 103.4422293  57.1352484
  72.1396699 111.9103183  65.1445471  72.8406158 112.5439666  65.2974865
  71.6691814 112.2517914  64.3841110  80.2651095 110.2521132  53.4293378
  80.5410938 110.1377727  54.3387252  79.3955593 109.8538617  53.3905551
  80.1691526  96.2757898  60.4698127  79.2554606  96.5062125  60.6380334
  80.5984628  96.3596342  61.3212160  79.9397985 104.4647790  62.9698021
  79.2869435 104.7123698  62.3150474  80.3178365 103.6511928  62.6360498
  76.9005159 114.5007483  57.0726191  77.0827553 113.6829139  57.5353944
  77.7238145 114.7175176  56.6351081  77.2347324 113.4275668  54.3341240
  77.7635091 112.9168123  53.7211402  77.4975544 113.1118199  55.1986773
  75.9885558 105.2067601  69.4564058  75.3126195 105.1061730  70.1266433
  76.8113192 105.0506815  69.9200055  67.7364417 111.4439538  62.0776574
  68.3217854 110.6983226  62.2104478  67.5389255 111.7543494  62.9613237
  70.5903072 114.4790785  57.0939016  69.9213447 114.9636913  56.6103056
  70.4515942 114.7260006  58.0082394  62.3282072 104.0145138  60.7981017
  62.3666171 103.4808729  61.5918135  61.8222364 103.4880343  60.1791994
  74.7308341 116.5134529  63.6921674  75.2826649 116.6766150  64.4570759
  75.0714534 117.1038966  63.0201699  69.7072834  98.8609678  64.2943559
  69.7714160  99.7224509  63.8820957  69.6439954  98.2483680  63.5615917
  69.1825106 100.9332811  67.9416593  69.8097145 100.5509888  68.5554118
  68.3253025 100.7147013  68.3072286  79.5819215 111.3395786  69.5470329
  80.1259119 111.9525744  69.0525283  79.0006060 111.8975365  70.0637342
  65.9590649 102.7409240  53.8734948  66.2544090 101.8319918  53.8202002
  65.0578685 102.7196980  53.5515950  77.8676728 114.4616504  60.6785356
  77.7427867 113.6606244  60.1696302  78.5255819 114.9562697  60.1899326
  69.4884896 100.8165237  59.8562497  68.7671482 101.4301204  59.7169970
  70.2778152 101.3523001  59.7779143  79.9311636 112.2625524  62.3064907
  78.9841972 112.1430875  62.2343233  80.2794409 111.3748022  62.3891168
  72.2911210  98.1519663  66.1303148  72.8145611  98.3981960  66.8929458
  72.0723543  98.9839698  65.7106286  67.6878491 100.4223338  53.9974273
  67.3591197  99.5420717  53.8149379  68.0417861 100.3671006  54.8850662
  76.9358070 112.0578240  58.5069259  76.7883032 111.1294948  58.6876829
  77.7611563 112.0798331  58.0226334  70.8020314 100.7096308  54.3649751
  71.1416386 101.2382229  53.6428359  71.2492434 101.0476714  55.1408317
  80.5392191 112.8806799  59.5934132  81.4638739 112.6749661  59.4558583
  80.3707495 112.6323200  60.5023473  73.4963755  99.0933358  63.8152819
  73.1560575  98.2941171  64.2173499  72.7902761  99.3935069  63.2429652
  74.1480227  96.1782671  62.2680142  74.9706296  95.7043149  62.1459032
  74.3918290  96.9573154  62.7678828  72.7888461  99.2070929  52.5643044
  73.5096824  99.5852182  52.0606761  72.1653765  99.9259806  52.6678022
  76.9319584  99.9116078  53.5001376  77.1483198 100.7940716  53.1990204
  76.4513651  99.5202291  52.7707018  71.6718805 102.8701791  60.0772121
  71.5263386 103.1842094  60.9696402  71.1944009 103.4886692  59.5243019
  73.5315188  99.8604339  60.1253010  73.5176757  98.9645433  59.7885308
  74.2487616  99.8675003  60.7591296  75.3841319 100.2941679  62.1706138
  75.1259097 101.2158750  62.1690468  74.8526359  99.8972114  62.8606602
  80.3287508 113.3992467  54.9496223  80.5024385 112.8338889  54.1970075
  80.8216399 114.1993362  54.7675713  66.1464467 105.4107136  63.0159782
  65.6017936 106.1866944  63.1480056  67.0243817 105.7577940  62.8578903
  72.9352084  98.7418720  55.3940580  73.0567995  97.8135366  55.5931468
  72.6454126  98.7557406  54.4818896  75.8043274  96.4273630  58.5307300
  75.8264971  96.4912963  57.5759280  76.2211333  95.5878139  58.7247806
  86.1826899 106.1628890  56.5686523  86.6258045 105.4136215  56.1705646
  85.3053409 106.1539026  56.1860255  81.3162680 112.7159231  52.0493121
  82.0113585 113.3365924  52.2680436  81.6585830 111.8654582  52.3245499
  66.9330489 104.5377032  65.9089939  66.1912225 104.6859667  66.4954569
  66.6123234 104.7985298  65.0456688  83.2154103 110.1658937  53.5780452
  83.7405427 110.5046209  52.8529772  83.1276456 109.2305952  53.3943587
  74.8774152 114.0793010  65.7070329  75.1861278 113.8342157  66.5793028
  75.6749634 114.2839649  65.2189199  74.8994764 116.2330920  57.9375705
  74.4599754 115.7407299  58.6308562  75.6502881 115.6903887  57.6967780
  67.3787103 112.4242461  57.9400333  68.2045123 112.1246233  57.5598977
  67.0281155 111.6550083  58.3890122  72.3468636 111.7768929  60.0098007
  71.7248645 111.1139634  59.7100235  73.0173503 111.8030061  59.3271655
  65.5795708 110.3428787  58.8989267  64.7427616 109.9150962  58.7173268
  65.5519353 110.5361230  59.8360058  72.4193164 100.2550717  69.6030513
  72.4681319 101.1312840  69.2208282  72.9615678  99.7128110  69.0302156
  82.9048009 110.7991840  68.8831650  82.1143553 110.7815979  68.3436149
  82.6681364 111.3380134  69.6380687  83.0245884 107.6484307  66.1964378
  83.0743889 107.4834314  67.1379901  82.9159808 106.7811566  65.8062259
  71.9082143 110.3272852  53.4856467  72.0570263 111.0108317  52.8323140
  72.7148587 110.3077942  54.0005923  80.3149647 103.6315235  67.5123685
  81.2159510 103.4921699  67.2207683  80.3897621 103.7969689  68.4521863
  74.6492452 101.0082089  66.3576872  73.7795761 101.3015655  66.0859460
  74.8851932 101.5922534  67.0784135  84.5264081 110.0681248  66.4406400
  84.2348889 110.4311229  67.2769861  83.9136212 109.3548256  66.2619732
  85.7259763 107.6334128  58.9608970  86.5606655 108.0723932  59.1246531
  85.8618892 107.1572781  58.1417216  82.7751269 105.1913863  64.9086458
  83.2505391 105.3841509  64.1005309  81.8516835 105.2473049  64.6629842
  69.6634776 106.3538030  54.4917536  69.4180818 105.4500360  54.6897746
  69.8330691 106.3555180  53.5497014  77.3531486  97.2261706  63.8742292
  77.8713430  97.9622733  63.5488780  76.9986619  97.5325700  64.7089051
  68.9330424 102.0866387  51.9903698  68.2399669 102.1610742  51.3343734
  68.6882175 101.3226731  52.5125215  77.6044080  93.6461989  59.3943189
  77.8845834  92.9785178  60.0203615  78.3894687  93.8391084  58.8817852
  75.4077549 112.8220983  50.9568215  74.8351516 113.4411170  50.5038687
  75.9810342 113.3720344  51.4908137  81.4752938 102.0679623  63.1414764
  82.4270361 102.1677720  63.1626988  81.3056389 101.2757891  63.6512848
  79.4967318  99.1535206  63.3274165  78.9017250  99.4340219  62.6320653
  79.2117015  99.6429107  64.0990906  78.6274808 113.1058133  52.0876797
  79.5605482 113.0403695  52.2909673  78.5398021 113.9414400  51.6291330
  81.2562825 112.4224003  49.0480745  81.1776457 112.0883867  49.9416503
  82.0772492 112.9145771  49.0472217  83.9541016 105.2885742  62.2557063
  83.9217336 104.3501743  62.4416747  84.5641640 105.3669779  61.5222888
  75.7924347 104.1581795  48.2984267  76.7383452 104.0288004  48.3672685
  75.4138592 103.4196457  48.7753695  84.1035505 102.0796786  62.3015346
  83.5874553 101.2955243  62.1145275  84.9875453 101.7515503  62.4661866
  81.7646232  95.8237801  58.2611159  81.5671053  95.5152890  59.1454491
  82.3745937  96.5499440  58.3909089  89.7717566 106.3501749  61.3963100
  90.5020955 106.0887037  61.9570803  89.1624512 105.6130471  61.4365168
  87.8532863 104.4909612  61.9937551  87.1266027 104.3565577  61.3854043
  87.4380150 104.7986441  62.7994269  75.6763040 108.2099542  69.7584924
  76.5966049 108.3878141  69.9524971  75.6412623 107.2655587  69.6064624
  73.9767264 102.0831772  48.2339153  73.0698720 101.7864885  48.3101866
  74.2543245 101.7861590  47.3673439  64.8945205 103.4038135  58.6838199
  64.5747989 102.5503443  58.3912573  64.3478633 103.6186713  59.4396166
  68.6725112 106.1200576  62.4007705  68.8911122 107.0517684  62.4195739
  69.0850886 105.7608551  63.1862509  75.5929330  96.6268662  54.3883394
  74.7830058  96.2815747  54.7638640  76.2813747  96.3176205  54.9771005
  77.5219878  95.7046708  56.0107690  78.0750917  96.1242162  56.6697714
  77.7589965  94.7782456  56.0530646  73.5452977 101.6933782  71.7910454
  73.4449704 102.6428139  71.7222545  73.3274520 101.3652021  70.9186524
  72.7466049  98.9418707  48.3751132  73.6085213  99.2673605  48.6346949
  72.9316393  98.1550203  47.8624198  64.7633465 107.0241047  60.6531321
  64.0696936 106.6095000  60.1401275  65.5106456 107.0661583  60.0564739
  80.8998685  97.8147234  55.5186355  80.3197354  98.4732038  55.1364407
  80.6334618  96.9924578  55.1073772  79.3502252  97.2152291  57.7207675
  79.8502030  97.3268826  56.9121994  79.9937860  96.9113344  58.3608484
  73.4084248 105.1230921  70.6075516  72.9251329 105.9231281  70.8139405
  73.4945187 105.1338866  69.6542960  66.6770207 106.9559301  58.5297335
  66.6540895 107.0546988  57.5779219  66.9870844 107.8024451  58.8514502
  69.3357585 109.0135456  62.6443950  70.2900839 108.9819398  62.5773881
  69.1370109 108.5526079  63.4594176  69.9256967 107.5836572  65.2114747
  70.7449856 108.0780650  65.2349585  70.1993775 106.6668540  65.1832315
  79.6823563  99.9747324  54.5742703  78.7949418 100.2596975  54.3562898
  80.0977552  99.8141087  53.7269980  83.0338099  99.9993845  58.2897042
  83.8098490 100.4890297  58.5621659  82.3086234 100.4251899  58.7468912
  85.4710658 100.7121464  59.3470983  86.0655149 100.4717200  58.6364291
  85.5437242  99.9928595  59.9744519  67.6907814 114.5555075  59.6614148
  67.5562282 113.7955476  59.0952146  67.2739876 115.2795975  59.1942937
  78.8266777 109.7391999  48.6690723  79.5302627 109.9442001  49.2848379
  78.1029426 110.3068760  48.9339807  79.6564587 105.4901860  54.7892993
  79.5999788 105.9470411  53.9500626  80.2092930 104.7292544  54.6115836
  83.4669393 101.2791592  55.6143113  83.2106327 100.8788227  56.4451320
  82.8422261 101.9935386  55.4893252  87.7781731 104.0187665  58.1214404
  87.2181289 104.0880854  58.8945966  87.1725234 103.8428650  57.4013900
  70.8476940 115.4524392  59.8732590  70.7309324 116.3969825  59.7711281
  70.0269386 115.1497954  60.2618390  80.7353474 110.1774528  50.7189183
  81.5699078 109.7455726  50.5366658  80.5737817 110.0056541  51.6466078
  80.3899366 106.6806641  52.0845522  80.3348170 106.5150913  51.1433966
  79.7645422 107.3882674  52.2407712  65.1791881 101.9174705  65.9106945
  65.8250745 101.4073659  66.3994170  64.9709033 102.6543387  66.4850370
  77.7045274 108.9855553  71.4099085  78.5736433 109.1596205  71.0485720
  77.2252025 109.8049970  71.2874814  73.6995492  96.1814750  51.6630841
  73.6874162  97.1256590  51.8199112  74.5918914  95.9984896  51.3690302
  71.8731454 116.1052654  63.0888519  72.7758701 116.1376264  63.4055014
  71.6468824 115.1753105  63.1034855  73.6285056 114.8583641  59.7498597
  72.6780687 114.8585502  59.6362970  73.9317542 114.1116375  59.2334632
  77.5147611  92.7757527  55.9176778  76.7480007  92.2216013  56.0633460
  77.9258316  92.8479395  56.7790929  69.5189372  99.0642323  70.0081959
  70.3820834  98.7079127  70.2185283  68.9454783  98.7256217  70.6957363
  89.3637749 120.6944179  60.8144360  90.0016159 120.5750926  60.1107700
  89.2458592 121.6425023  60.8732312  86.1727456 120.6471607  60.7505884
  85.8345967 120.5312672  59.8626419  87.0417224 120.2462772  60.7306891
  82.0314271 122.5007083  56.7402775  81.4679136 122.4097020  55.9719063
  81.9166666 121.6806988  57.2205268  86.6547239 121.8006459  66.7092090
  86.6435879 121.4059257  65.8372594  86.8167878 121.0672531  67.3025861
  79.5778703 123.9958275  59.5786996  80.3699995 123.6549100  59.1633295
  79.8175353 124.1053250  60.4989149  81.5369457 123.2567188  52.4504375
  82.3100333 122.7096175  52.3117250  81.8894856 124.1211438  52.6618836
  83.3754500 124.5843571  65.6571274  83.0844366 125.4889201  65.5417940
  84.0111484 124.6260098  66.3715344  84.3010707 121.9620419  62.2472634
  84.8974279 121.7376441  61.5329597  84.3585678 121.2205165  62.8498081
  83.8735735 119.4159854  50.0822825  84.1261256 118.8941376  49.3206288
  82.9360294 119.2526000  50.1849508  88.9179018 118.4195633  57.8897568
  89.7042107 118.0015056  57.5387985  89.1817722 119.3241725  58.0579216
  83.5932024 121.3187960  52.2847200  83.4768282 120.6432864  52.9528284
  83.7034284 120.8320334  51.4679353  85.9363565 120.7798107  55.9893889
  85.5721772 120.2528728  56.7006810  86.7930681 120.3896576  55.8160374
  91.8412865 112.0692440  63.2525155  91.5096190 112.9387851  63.0286370
  91.2458479 111.7528724  63.9319185  85.5769052 115.8088007  50.9855237
  85.7443454 116.6768244  51.3525708  85.3866221 115.9715289  50.0616527
  81.7856866 120.7218783  58.6857772  80.8607363 120.5894997  58.8935464
  82.0341279 121.5013002  59.1827715  91.7341529 116.7887526  60.3318505
  90.8258406 116.7202935  60.0377266  91.6829124 117.2659471  61.1600330
  85.5558273 118.2645665  51.9701904  85.4357898 118.7102715  52.8087384
  84.8610861 118.6130982  51.4115442  79.1465677 120.3652056  59.5201561
  79.2758058 120.6186535  60.4340973  78.4663129 120.9579764  59.2006216
  85.8082394 118.2077172  68.2753402  85.0315728 118.7671092  68.2656267
  86.4472957 118.6933955  68.7968272  93.6003175 114.9903965  62.1096379
  92.9577555 115.2836498  61.4636173  93.0958104 114.8756885  62.9149576
  91.2543339 118.7367138  52.7982238  92.1661195 118.9694525  52.6229936
  90.7452986 119.3204182  52.2357317  84.0628767 121.0162625  67.8371369
  84.8043451 121.5547669  67.5606193  83.3565752 121.6428914  67.9942921
  85.8915176 118.0964372  63.8077088  86.7376372 118.5203786  63.9511737
  85.8313814 117.4397997  64.5015651  89.0414622 115.7568741  65.4658261
  88.7975554 116.5110801  64.9292537  89.3174552 116.1354088  66.3005508
  88.5979313 114.9125174  61.0472099  87.7363792 115.2106427  61.3388837
  88.6241748 115.1295573  60.1153132  85.4140883 123.4567364  57.4545905
  85.8779228 123.7355067  56.6650527  85.1497681 122.5550809  57.2718995
  82.3064964 123.0038846  60.3925668  82.8766321 123.4326114  59.7543152
  82.8973076 122.7221431  61.0909854  84.3509769 119.5790517  54.2635470
  85.0533812 120.0311560  54.7309396  84.0190397 118.9374336  54.8915363
  82.7990130 118.1702273  68.6386679  82.1688791 118.8518554  68.8722076
  82.6926218 118.0585355  67.6939818  78.0935103 117.8374069  59.5652603
  77.3034157 118.0931598  59.0892714  78.5846350 118.6522407  59.6704644
  80.0449848 118.2018649  56.5236080  79.2481012 118.3137343  57.0419576
  79.8175440 118.5405301  55.6576971  76.3772806 118.0904560  61.9967594
  76.6280844 118.9751570  62.2625170  76.9132354 117.9109161  61.2242686
  82.0770873 112.4723039  71.0011930  81.6837819 111.9189238  71.6759575
  82.8937013 112.7833618  71.3918448  79.0432931 123.9106897  54.9125500
  79.5557451 124.7050148  55.0631065  79.6955644 123.2133188  54.8459102
  84.9938834 113.8880918  68.5932187  85.7348548 114.4888071  68.5136649
  85.2256757 113.1458556  68.0350229  80.1380172 119.0737286  66.8710417
  80.0233687 118.1722543  67.1717515  79.2824690 119.3200982  66.5195233
  88.9395997 109.9162021  62.8696469  88.5960266 110.8063663  62.7935579
  89.3074960 109.7263679  62.0066054  77.0081848 122.2395552  55.6885071
  77.8457070 122.6492560  55.4718778  77.1860115 121.2994994  55.6585265
  88.9046280 119.9070632  51.3768904  88.3892903 120.6775237  51.6157291
  88.6323588 119.2335768  52.0001965  86.4893391 114.7520333  56.4354142
  85.6334987 114.3627184  56.2559781  86.9020343 114.8312294  55.5753928
  88.0192537 112.2866676  60.8345702  87.5157333 112.2496812  60.0213507
  88.3123144 113.1959419  60.8942358  84.2635423 112.3705406  59.8411884
  85.1288420 112.1748215  59.4817773  84.3312932 112.1415758  60.7681240
  88.6932583 117.7797724  53.2028685  88.3882719 118.0943874  54.0538828
  89.6463025 117.8579144  53.2456018  81.8697742 114.6007614  57.2128250
  82.4441494 114.3782796  56.4801443  82.4568725 114.6696309  57.9656852
  82.1967330 116.6312075  51.2324136  81.3604642 116.9686762  51.5533410
  82.0572099 116.4961055  50.2951273  84.1720410 111.4748863  55.9403320
  83.5184822 111.1597880  55.3159935  84.1300884 110.8524603  56.6663143
  85.2831615 121.7568158  47.8556612  84.3758677 121.5257411  48.0547761
  85.7802647 120.9605777  48.0430593  87.4058151 117.9630796  60.2650967
  86.4880712 118.1845743  60.1072655  87.8218294 118.0377107  59.4062675
  88.1893198 119.3622212  55.3953648  88.9365017 119.8743609  55.0860770
  88.4584788 119.0406265  56.2558041  86.4619848 121.8580753  52.3780602
  85.5531068 121.5739786  52.4753072  86.4914932 122.2779831  51.5183909
  90.6372035 116.3979328  57.3772437  89.8994792 115.8856715  57.7082680
  90.8898809 115.9579710  56.5655714  90.7383663 109.1755580  57.9714206
  91.0442540 108.3152944  57.6840121  91.4636268 109.7673201  57.7713200
  77.0308019 119.5786267  56.3595804  76.8332419 118.9855628  55.6346871
  76.4754683 119.2738477  57.0771743  85.0104742 119.4709373  58.4790397
  85.0653352 118.5183210  58.4032874  84.1995945 119.6268813  58.9631696
  82.9497102 118.0886433  56.2380776  82.1364968 118.3880604  56.6445968
  83.4456097 117.6942122  56.9555258  88.5471314 118.5528258  65.0695670
  88.9020702 118.7799731  65.9290136  89.1943445 118.8846634  64.4472925
  82.4411177 115.6604789  61.8542011  83.0810556 115.5193548  61.1564974
  81.6088708 115.3739302  61.4780613  83.2171481 124.9607219  57.9677004
  84.0112080 124.4657539  57.7659579  82.5063173 124.4325082  57.6044709
  79.5254245 119.1050301  54.0436756  78.5951833 119.0434756  54.2606718
  79.6211717 118.5826254  53.2473398  79.4439794 115.6305114  56.6314998
  79.7046611 116.5450447  56.5224158  80.2656966 115.1629556  56.7811611
  80.9164719 117.0442871  63.8013822  81.5887772 116.8360233  63.1526471
  80.0894505 116.8464957  63.3619055  86.8190291 113.6704812  65.8179483
  86.1718206 114.3694761  65.7243960  87.5891306 114.1040956  66.1855732
  86.9954425 121.5085577  63.8776303  87.9246485 121.6596736  63.7045270
  86.5745455 121.5969598  63.0224950  81.3192216 120.3185474  64.5616260
  81.1812014 119.5865713  65.1627799  82.2297140 120.2294374  64.2800447
  83.9474517 120.0305433  64.0499939  84.6574135 119.3898625  64.0086558
  83.9043825 120.2818328  64.9726120  82.6603451 117.0170651  65.8695579
  82.1240808 116.5661390  66.5217175  82.0720159 117.1516560  65.1266043
  82.0705710 116.4759302  48.4322042  81.1935176 116.3548103  48.0684289
  82.5463463 115.6845381  48.1800931  73.5907850 121.2636462  58.5263550
  74.2778890 120.9498192  57.9384565  73.4355979 122.1677827  58.2530801
  78.3942572 116.1526659  62.9548573  78.3100761 115.5452328  62.2198983
  77.5725278 116.6435677  62.9558070  88.5666286 114.6380222  58.3218768
  89.0634985 113.8850185  58.0019839  87.7953267 114.6744539  57.7561978
  85.1501255 116.7797605  58.0490453  84.7799042 116.2268646  58.7371358
  85.6460347 116.1755739  57.4965453  91.0085281 111.6049816  60.4698127
  90.0948361 111.8354043  60.6380334  91.4378382 111.6888260  61.3212160
  90.7791739 119.7939708  62.9698021  90.1263189 120.0415615  62.3150474
  91.1572119 118.9803846  62.6360498  86.8279312 120.5359519  69.4564058
  86.1519949 120.4353648  70.1266433  87.6506946 120.3798733  69.9200055
  78.5758171 126.7731455  62.0776574  79.1611608 126.0275143  62.2104478
  78.3783010 127.0835412  62.9613237  73.1675826 119.3437056  60.7981017
  73.2059926 118.8100646  61.5918135  72.6616119 118.8172261  60.1791994
  80.5466588 114.1901596  64.2943559  80.6107915 115.0516427  63.8820957
  80.4833709 113.5775598  63.5615917  80.0218861 116.2624729  67.9416593
  80.6490900 115.8801806  68.5554118  79.1646780 116.0438931  68.3072286
  76.7984404 118.0701158  53.8734948  77.0937845 117.1611836  53.8202002
  75.8972439 118.0488897  53.5515950  80.3278651 116.1457154  59.8562497
  79.6065236 116.7593122  59.7169970  81.1171906 116.6814919  59.7779143
  83.1304964 113.4811581  66.1303148  83.6539366 113.7273877  66.8929458
  82.9117297 114.3131616  65.7106286  78.5272245 115.7515255  53.9974273
  78.1984951 114.8712634  53.8149379  78.8811616 115.6962924  54.8850662
  81.6414068 116.0388225  54.3649751  81.9810141 116.5674146  53.6428359
  82.0886189 116.3768631  55.1408317  84.3357509 114.4225276  63.8152819
  83.9954330 113.6233089  64.2173499  83.6296515 114.7226987  63.2429652
  84.9873981 111.5074588  62.2680142  85.8100050 111.0335067  62.1459032
  85.2312045 112.2865072  62.7678828  83.6282216 114.5362847  52.5643044
  84.3490578 114.9144100  52.0606761  83.0047520 115.2551724  52.6678022
  87.7713338 115.2407996  53.5001376  87.9876953 116.1232634  53.1990204
  87.2907406 114.8494209  52.7707018  82.5112560 118.1993709  60.0772121
  82.3657140 118.5134012  60.9696402  82.0337763 118.8178609  59.5243019
  84.3708943 115.1896257  60.1253010  84.3570511 114.2937350  59.7885308
  85.0881371 115.1966921  60.7591296  86.2235073 115.6233597  62.1706138
  85.9652851 116.5450668  62.1690468  85.6920114 115.2264032  62.8606602
  76.9858222 120.7399053  63.0159782  76.4411690 121.5158861  63.1480056
  77.8637572 121.0869858  62.8578903  83.7745839 114.0710637  55.3940580
  83.8961750 113.1427283  55.5931468  83.4847881 114.0849323  54.4818896
  86.6437029 111.7565548  58.5307300  86.6658726 111.8204881  57.5759280
  87.0605088 110.9170056  58.7247806  77.7724244 119.8668950  65.9089939
  77.0305980 120.0151585  66.4954569  77.4516988 120.1277215  65.0456688
  78.2180857 127.7534378  57.9400333  79.0438877 127.4538150  57.5598977
  77.8674909 126.9842001  58.3890122  76.4189463 125.6720705  58.8989267
  75.5821371 125.2442879  58.7173268  76.3913108 125.8653148  59.8360058
  83.2586918 115.5842635  69.6030513  83.3075074 116.4604757  69.2208282
  83.8009432 115.0420028  69.0302156  91.1543401 118.9607152  67.5123685
  92.0553264 118.8213617  67.2207683  91.2291376 119.1261607  68.4521863
  85.4886207 116.3374007  66.3576872  84.6189516 116.6307573  66.0859460
  85.7245687 116.9214452  67.0784135  80.5028531 121.6829948  54.4917536
  80.2574572 120.7792278  54.6897746  80.6724445 121.6847098  53.5497014
  88.1925240 112.5553624  63.8742292  88.7107184 113.2914651  63.5488780
  87.8380373 112.8617617  64.7089051  79.7724178 117.4158305  51.9903698
  79.0793423 117.4902660  51.3343734  79.5275930 116.6518649  52.5125215
  88.4437835 108.9753906  59.3943189  88.7239588 108.3077096  60.0203615
  89.2288441 109.1683002  58.8817852  92.3146693 117.3971540  63.1414764
  93.2664116 117.4969638  63.1626988  92.1450143 116.6049809  63.6512848
  90.3361072 114.4827124  63.3274165  89.7411004 114.7632136  62.6320653
  90.0510769 114.9721025  64.0990906  86.6318102 119.4873713  48.2984267
  87.5777206 119.3579921  48.3672685  86.2532347 118.7488375  48.7753695
  94.9429259 117.4088704  62.3015346  94.4268308 116.6247160  62.1145275
  95.8269208 117.0807420  62.4661866  92.6039986 111.1529719  58.2611159
  92.4064807 110.8444807  59.1454491  93.2139692 111.8791358  58.3909089
  84.8161019 117.4123690  48.2339153  83.9092474 117.1156802  48.3101866
  85.0937000 117.1153508  47.3673439  75.7338959 118.7330053  58.6838199
  75.4141743 117.8795361  58.3912573  75.1872387 118.9478631  59.4396166
  79.5118867 121.4492494  62.4007705  79.7304876 122.3809602  62.4195739
  79.9244640 121.0900468  63.1862509  86.4323084 111.9560579  54.3883394
  85.6223813 111.6107664  54.7638640  87.1207501 111.6468123  54.9771005
  88.3613633 111.0338626  56.0107690  88.9144671 111.4534079  56.6697714
  88.5983719 110.1074374  56.0530646  84.3846732 117.0225700  71.7910454
  84.2843459 117.9720057  71.7222545  84.1668274 116.6943939  70.9186524
  83.5859803 114.2710625  48.3751132  84.4478967 114.5965523  48.6346949
  83.7710147 113.4842121  47.8624198  75.6027219 122.3532964  60.6531321
  74.9090691 121.9386917  60.1401275  76.3500210 122.3953501  60.0564739
  91.7392440 113.1439151  55.5186355  91.1591109 113.8023955  55.1364407
  91.4728373 112.3216496  55.1073772  90.1896006 112.5444209  57.7207675
  90.6895785 112.6560743  56.9121994  90.8331614 112.2405262  58.3608484
  84.2478002 120.4522839  70.6075516  83.7645084 121.2523199  70.8139405
  84.3338941 120.4630783  69.6542960  77.5163962 122.2851218  58.5297335
  77.4934650 122.3838905  57.5779219  77.8264598 123.1316369  58.8514502
  80.1751340 124.3427373  62.6443950  81.1294593 124.3111316  62.5773881
  79.9763863 123.8817997  63.4594176  80.7650722 122.9128489  65.2114747
  81.5843611 123.4072568  65.2349585  81.0387529 121.9960457  65.1832315
  90.5217318 115.3039242  54.5742703  89.6343173 115.5888892  54.3562898
  90.9371307 115.1433005  53.7269980  93.8731854 115.3285763  58.2897042
  94.6492244 115.8182215  58.5621659  93.1479988 115.7543817  58.7468912
  96.3104413 116.0413382  59.3470983  96.9048903 115.8009118  58.6364291
  96.3830996 115.3220512  59.9744519  94.3063147 116.6083509  55.6143113
  94.0500082 116.2080145  56.4451320  93.6816016 117.3227303  55.4893252
  76.0185636 117.2466623  65.9106945  76.6644499 116.7365577  66.3994170
  75.8102787 117.9835305  66.4850370  84.5389246 111.5106668  51.6630841
  84.5267916 112.4548508  51.8199112  85.4312668 111.3276813  51.3690302
  88.3541366 108.1049444  55.9176778  87.5873762 107.5507931  56.0633460
  88.7652071 108.1771313  56.7790929  80.3583127 114.3934240  70.0081959
  81.2214588 114.0371045  70.2185283  79.7848538 114.0548135  70.6957363
  24.3275224   5.7254795  47.5389666  24.9653634   5.6061543  46.8353006
  24.2096067   6.6735639  47.5977619  21.1364930   5.6782224  47.4751191
  20.7983441   5.5623288  46.5871726  22.0054698   5.2773389  47.4552197
  16.9951746   7.5317700  43.4648082  16.4316611   7.4407637  42.6964370
  16.8804141   6.7117604  43.9450575  21.6184713   6.8317075  53.4337397
  21.6073354   6.4369874  52.5617900  21.7805352   6.0983148  54.0271168
  14.5416178   9.0268892  46.3032303  15.3337469   8.6859716  45.8878602
  14.7812828   9.1363867  47.2234456  22.5751304  11.1988668  38.7762547
  21.9239284  11.7842748  38.3896561  23.3695667  11.7294863  38.8357584
  16.5006931   8.2877805  39.1749681  17.2737807   7.7406792  39.0362557
  16.8532330   9.1522054  39.3864143  18.3391974   9.6154187  52.3816581
  18.0481840  10.5199818  52.2663247  18.9748958   9.6570715  53.0960650
  19.2648181   6.9931036  48.9717940  19.8611753   6.7687058  48.2574903
  19.3223152   6.2515781  49.5743388  23.8816492   3.4506249  44.6142874
  24.6679581   3.0325672  44.2633291  24.1455196   4.3552341  44.7824523
  24.0526569   8.8879100  39.3131531  23.4172402   8.9613726  40.0252436
  23.7223976   9.4772698  38.6350611  29.2824919   3.3881482  45.5175853
  30.0150091   2.8180699  45.7513682  28.5264275   3.0003083  45.9582359
  18.5569498   6.3498577  39.0092506  18.4405756   5.6743480  39.6773591
  18.6671758   5.8630951  38.1924659  20.9001039   5.8108724  42.7139195
  20.5359246   5.2839345  43.4252117  21.7568155   5.4207193  42.5405681
  23.2981859   9.3015603  49.3766374  22.9982582  10.2040641  49.2682182
  22.9532919   9.0347786  50.2287527  26.6979003   1.8198143  47.0563812
  25.7895880   1.7513551  46.7622573  26.6466599   2.2970088  47.8845637
  18.2802639  16.0659923  42.3437342  18.2026669  17.0167748  42.4225823
  17.6764283  15.7205795  43.0012268  28.5640649   0.0214581  48.8341686
  27.9215030   0.3147114  48.1881480  28.0595578  -0.0932499  49.6394882
  26.2180813   3.7677754  39.5227545  27.1298669   4.0005141  39.3475242
  25.7090460   4.3514799  38.9602623  19.0266241   6.0473242  54.5616676
  19.7680925   6.5858286  54.2851500  18.3203226   6.6739530  54.7188228
  24.5021581   8.1902382  53.1588837  24.9104937   7.7484793  52.4143470
  23.7798842   7.6155010  53.4123030  24.8250395   8.7503573  46.9141126
  24.1959258   8.9149287  46.2117194  24.4376057   9.1645182  47.6852090
  28.7039627   9.6858011  44.2685490  28.0190665  10.0656912  43.7182523
  28.7883476  10.2953337  45.0017438  25.9590559   7.3317970  50.8680834
  26.1707454   7.9749730  50.1915215  25.9120307   6.4980286  50.4002764
  20.3778357   8.4877981  44.1791211  20.8416703   8.7665684  43.3895834
  20.1135155   7.5861425  43.9964302  17.2702438   8.0349462  47.1170975
  17.8403795   8.4636731  46.4788459  17.8610550   7.7532047  47.8155160
  27.0736387  10.2089925  49.0403191  27.8953830   9.8070112  48.7585873
  27.0698790  10.1058159  49.9919307  20.8392990   9.7573968  51.1963901
  20.9037423  10.2194376  52.0322073  20.1303914   9.1271333  51.3246211
  35.1642380   6.5528674  45.3888162  34.4106088   5.9836072  45.2332167
  35.2989921   6.5191338  46.3358797  20.5541008  11.4242076  41.0642882
  20.4186683  12.2693612  41.4927730  21.0950820  11.6261354  40.3008816
  14.0070405   8.9417514  41.6370807  14.5194926   9.7360764  41.7876372
  14.6593118   8.2443804  41.5704408  15.8165290  12.0583270  43.7193560
  15.9931918  12.9801235  43.5314544  16.6122123  11.7441689  44.1487940
  22.1809484  12.0465642  55.1943224  21.7373338  11.2602021  54.8764128
  22.8426698  12.2344793  54.5287115  16.9396605  13.5761444  49.7203902
  17.4904031  13.4478507  48.9480896  16.1008081  13.8756333  49.3698795
  24.2790722  12.3268442  53.2224625  24.2609198  13.1477323  52.7304894
  25.2010642  12.2022518  53.4474766  20.7363776   9.8412572  54.0648133
  21.2692113   9.0800860  53.8347441  20.2077858   9.5486224  54.8072288
  23.8683754   4.9381249  38.1014210  23.3530378   5.7085854  38.3402598
  23.5961063   4.2646385  38.7247272  28.8418028   7.6913604  40.0367384
  28.0647471   7.3524763  39.5922546  29.5209509   7.6966227  39.3622349
  23.6570057   2.8108341  39.9273991  23.3520193   3.1254490  40.7784135
  24.6100499   2.8889761  39.9701324  22.1016489   8.9698564  41.5766945
  21.5737851   8.2351324  41.2640183  21.6003992   9.7473241  41.3306914
  27.0809335   7.1647585  46.6933992  26.4233010   7.8546846  46.7814120
  27.8849734   7.5544017  47.0367978  25.8914794   5.5191957  44.7437934
  26.4046676   6.1521949  45.2459643  26.5416018   4.9193153  44.3781294
  20.2469089   6.7878775  34.5801918  19.3396151   6.5568028  34.7793067
  20.7440121   5.9916394  34.7675900  23.1537168  15.4976282  37.4998605
  22.4798867  15.8007978  38.1083562  23.5402990  16.3005362  37.1504062
  22.3695625   2.9941413  46.9896274  21.4518186   3.2156360  46.8317962
  22.7855768   3.0687723  46.1307981  23.1530673   4.3932829  42.1198954
  23.9002492   4.9054226  41.8106076  23.4222262   4.0716881  42.9803348
  21.4257323   6.8891369  39.1025909  20.5168542   6.6050402  39.1998378
  21.4552407   7.3090448  38.2429215  26.6576590  10.4997959  42.8717076
  26.2038917   9.6588869  42.9282267  26.0270557  11.1359357  43.2091856
  25.6009510   1.4289945  44.1017744  24.8632267   0.9167331  44.4327986
  25.8536283   0.9890327  43.2901020  25.1009529  12.3374456  43.8066894
  25.3932504  12.8979513  43.0879260  25.6108150  12.6303017  44.5620053
  21.1233411   8.4300113  36.4413987  20.6852840   7.7135972  35.9819625
  21.8643851   8.6576228  35.8799079  20.0643155  13.1154807  44.8960347
  20.0219333  13.3415653  43.9668880  20.9805853  12.8818181  45.0446149
  23.5108788   3.5838874  51.7940977  23.8658176   3.8110347  52.6535442
  24.1580920   3.9157251  51.1718232  29.2406525   6.7057310  42.4990306
  29.1024424   6.8958906  41.5711495  28.8842744   7.4676693  42.9558357
  29.2675905   8.7733837  47.5101577  29.7012412   8.6809126  48.3584631
  29.9807486   8.7491338  46.8721593  18.1808955   9.9917836  44.6922310
  18.9749554   9.4968156  44.4904885  17.4700648   9.4635699  44.3290016
  23.0003800  12.3735931  49.0434678  23.0540822  12.9426868  49.8112394
  22.1318581  12.5437816  48.6788715  30.1291455   8.8157538  50.0434463
  30.3227345   9.7203348  50.2893738  30.0292073   8.3564957  50.8773048
  25.1906563   8.9664281  55.6175343  25.0392070   8.7374832  54.7005427
  25.1811243   9.9234882  55.6306688  21.9591900   6.5396193  50.6021610
  22.8883960   6.6907353  50.4290577  21.5382930   6.6280214  49.7470256
  20.7580231  10.5646858  48.3720147  20.6191317  10.1965642  49.2446085
  19.9694828  11.0794497  48.2004105  21.3528383  15.6655954  39.7145684
  21.5280139  15.1943997  40.5291307  20.6661171  16.2921720  39.9426945
  22.3085447   9.9428460  45.7608985  21.9735279   9.9029230  46.6566635
  21.8089392   9.2773176  45.2879395  25.2444638   7.2884495  36.0346045
  24.6273809   6.5631323  35.9379097  24.7761127   8.0493855  35.6913119
  18.9111991   5.0616050  50.7745246  19.6211610   4.4209242  50.7331864
  18.8681299   5.3128945  51.6971427  26.8998770  11.9983403  53.6951825
  26.8411316  11.3142623  53.0282408  27.3018288  12.7402393  53.2432451
  15.9189469  18.8145317  46.4885544  16.1586067  19.4463841  47.1664563
  15.0758665  18.4633357  46.7750903  26.9016177   9.9622987  51.9265805
  26.0142956   9.6248909  52.0492204  27.4714728   9.2306018  52.1634570
  20.4317331  14.6224439  48.8927048  20.3587502  15.4279411  49.4046353
  19.9894724  14.8216405  48.0675069  20.2207110  13.8596209  42.4029870
  19.4374632  14.4017890  42.4968094  20.9199855  14.3770189  42.8024111
  31.3833518   5.3731204  46.6882366  31.3723394   6.2555920  46.3176300
  30.5150897   5.0202755  46.4936903  22.8916014  14.5211273  51.0485207
  23.6043986  15.1558738  50.9761108  22.4006043  14.6175139  50.2325208
  24.6133541   8.4262526  42.6202498  23.6789820   8.5463989  42.4507203
  24.7910209   7.5234993  42.3562508  28.0006092   4.2679845  43.1552532
  28.4666544   5.1007837  43.0812835  28.4513593   3.8024827  43.8597791
  17.9427928  12.2705717  51.8690777  18.6437387  12.9042200  52.0220172
  17.4723043  12.6120448  51.1086417  26.0682323  10.6123667  40.1538685
  26.3442167  10.4980261  41.0632559  25.1986822  10.2141152  40.1150858
  25.7429214   4.8250324  49.6943328  25.0900664   5.0726232  49.0395781
  26.1209593   4.0114463  49.3605805  22.7036387  14.8610017  43.7971498
  22.8858782  14.0431673  44.2599250  23.5269373  15.0777710  43.3596388
  23.0378553  13.7878203  41.0586547  23.5666319  13.2770657  40.4456709
  23.3006772  13.4720733  41.9232080  21.7916787   5.5670135  56.1809365
  21.1157424   5.4664265  56.8511740  22.6144420   5.4109349  56.6445362
  13.5395646  11.8042072  48.8021880  14.1249082  11.0585760  48.9349784
  13.3420484  12.1146029  49.6858544  16.3934301  14.8393319  43.8184323
  15.7244676  15.3239447  43.3348363  16.2547171  15.0862540  44.7327701
  20.5339569  16.8737063  50.4166981  21.0857877  17.0368684  51.1816066
  20.8745763  17.4641501  49.7447006  25.3850444  11.6998320  56.2715635
  25.9290348  12.3128279  55.7770590  24.8037289  12.2577899  56.7882648
  23.6707957  14.8219038  47.4030663  23.5459096  14.0208778  46.8941609
  24.3287048  15.3165232  46.9144633  25.7342865  12.6228058  49.0310213
  24.7873201  12.5033410  48.9588540  26.0825638  11.7350556  49.1136475
  22.7389298  12.4180775  45.2314565  22.5914261  11.4897482  45.4122135
  23.5642792  12.4400865  44.7471641  26.3423420  13.2409333  46.3179438
  27.2669968  13.0352195  46.1803889  26.1738724  12.9925735  47.2268780
  26.1318736  13.7595001  41.6741530  26.3055614  13.1941423  40.9215382
  26.6247628  14.5595896  41.4921020  31.9858128   6.5231424  43.2931829
  32.4289274   5.7738749  42.8950953  31.1084638   6.5141560  42.9105561
  27.1193909  13.0761765  38.7738428  27.8144814  13.6968458  38.9925743
  27.4617059  12.2257116  39.0490806  29.0185332  10.5261471  40.3025759
  29.5436656  10.8648744  39.5775079  28.9307685   9.5908486  40.1188893
  20.6805381  14.4395544  52.4315635  20.9892507  14.1944691  53.3038335
  21.4780863  14.6442183  51.9434506  20.7025993  16.5933454  44.6621012
  20.2630983  16.1009833  45.3553869  21.4534110  16.0506422  44.4213087
  13.1818332  12.7844995  44.6645640  14.0076352  12.4848767  44.2844283
  12.8312384  12.0152617  45.1135429  18.1499865  12.1371463  46.7343313
  17.5279874  11.4742168  46.4345541  18.8204732  12.1632595  46.0516961
  28.7079238  11.1594374  55.6076957  27.9174782  11.1418513  55.0681456
  28.4712593  11.6982668  56.3625993  28.8277113   8.0086841  52.9209685
  28.8775118   7.8436848  53.8625208  28.7191037   7.1414100  52.5307566
  17.7113372  10.6875386  40.2101774  17.8601492  11.3710851  39.5568447
  18.5179815  10.6680477  40.7251230  26.1180876   3.9917769  54.2368992
  27.0190738   3.8524234  53.9452990  26.1928850   4.1572224  55.1767169
  30.3295310  10.4283782  53.1651707  30.0380118  10.7913763  54.0015168
  29.7167441   9.7150791  52.9865039  31.5290992   7.9936662  45.6854277
  32.3637884   8.4326466  45.8491837  31.6650121   7.5175315  44.8662523
  28.5782498   5.5516397  51.6331765  29.0536620   5.7444043  50.8250616
  27.6548064   5.6075583  51.3875148  21.2108777  13.1823517  37.6813521
  20.6382744  13.8013704  37.2283993  21.7841571  13.7322879  38.2153443
  27.2784167   2.4282157  49.8660070  28.2301590   2.5280255  49.8872294
  27.1087618   1.6360426  50.3758155  24.4306037  13.4660667  38.8122104
  25.3636710  13.4006229  39.0154979  24.3429250  14.3016934  38.3536636
  27.0594054  12.7826537  35.7726051  26.9807685  12.4486401  36.6661809
  27.8803721  13.2748305  35.7717524  29.7572245   5.6488277  48.9802370
  29.7248565   4.7104277  49.1662054  30.3672869   5.7272313  48.2468195
  21.5955576   4.5184330  35.0229574  22.5414681   4.3890538  35.0917992
  21.2169821   3.7798992  35.4999002  29.9066734   2.4399320  49.0260653
  29.3905782   1.6557777  48.8390582  30.7906682   2.1118037  49.1907173
  35.5748795   6.7104284  48.1208407  36.3052183   6.4489572  48.6816110
  34.9655740   5.9733005  48.1610475  33.6564092   4.8512146  48.7182858
  32.9297256   4.7168111  48.1099350  33.2411379   5.1588975  49.5239576
  21.4794268   8.5702076  56.4830231  22.3997278   8.7480675  56.6770277
  21.4443851   7.6258121  56.3309930  19.2115476   5.4833455  57.3320823
  18.7282558   6.2833815  57.5384712  19.2976415   5.4941400  56.3788267
  15.1388814   9.3737990  49.3689256  16.0932067   9.3421932  49.3019188
  14.9401337   8.9128614  50.1839482  15.7288196   7.9439106  51.9360054
  16.5481085   8.4383184  51.9594891  16.0025004   7.0271074  51.9077622
  25.4854792   0.3349858  41.2988010  24.5980647   0.6199509  41.0808204
  25.9008781   0.1743621  40.4515287  28.8369328   0.3596379  45.0142349
  29.6129718   0.8492832  45.2866966  28.1117462   0.7854433  45.4714218
  31.2741887   1.0723998  46.0716290  31.8686378   0.8319734  45.3609598
  31.3468471   0.3531129  46.6989826  13.4939043  14.9157609  46.3859454
  13.3593511  14.1558010  45.8197452  13.0771105  15.6398509  45.9188243
  24.6298006  10.0994533  35.3936030  25.3333856  10.3044535  36.0093685
  23.9060654  10.6671295  35.6585113  25.4595816   5.8504394  41.5138300
  25.4031017   6.3072945  40.6745932  26.0124158   5.0895079  41.3361143
  29.2700622   1.6394126  42.3388419  29.0137556   1.2390762  43.1696627
  28.6453490   2.3537920  42.2138558  33.5812960   4.3790199  44.8459711
  33.0212518   4.4483388  45.6191273  32.9756463   4.2031184  44.1259207
  16.6508168  15.8126926  46.5977897  16.5340553  16.7572359  46.4956587
  15.8300615  15.5100488  46.9863696  26.5384703  10.5377062  37.4434490
  27.3730307  10.1058260  37.2611964  26.3769046  10.3659076  38.3711384
  26.1930595   7.0409175  38.8090829  26.1379399   6.8753447  37.8679273
  25.5676650   7.7485208  38.9653019  23.5076502   9.3458087  58.1344392
  24.3767662   9.5198739  57.7731027  23.0283254  10.1652504  58.0120121
  17.6762683  16.4655188  49.8133825  18.5789929  16.4978798  50.1300320
  17.4500053  15.5355639  49.8280161  19.4316285  15.2186175  46.4743904
  18.4811916  15.2188036  46.3608276  19.7348771  14.4718909  45.9579939
  35.1668978  21.0546713  47.5389666  35.8047388  20.9353460  46.8353006
  35.0489821  22.0027557  47.5977619  31.9758684  21.0074141  47.4751191
  31.6377196  20.8915206  46.5871726  32.8448453  20.6065306  47.4552197
  27.8345500  22.8609618  43.4648082  27.2710365  22.7699555  42.6964370
  27.7197895  22.0409522  43.9450575  32.4578467  22.1608993  53.4337397
  32.4467108  21.7661791  52.5617900  32.6199107  21.4275066  54.0271168
  25.3809932  24.3560809  46.3032303  26.1731224  24.0151634  45.8878602
  25.6206582  24.4655784  47.2234456  33.4145059  26.5280585  38.7762547
  32.7633039  27.1134666  38.3896561  34.2089422  27.0586780  38.8357584
  27.3400686  23.6169722  39.1749681  28.1131562  23.0698710  39.0362557
  27.6926085  24.4813972  39.3864143  29.1785729  24.9446105  52.3816581
  28.8875595  25.8491736  52.2663247  29.8142713  24.9862632  53.0960650
  30.1041935  22.3222953  48.9717940  30.7005508  22.0978976  48.2574903
  30.1616907  21.5807699  49.5743388  29.6766964  19.7762389  36.8068131
  29.9292484  19.2543910  36.0451594  28.7391523  19.6128534  36.9094815
  34.7210247  18.7798167  44.6142874  35.5073336  18.3617590  44.2633291
  34.9848951  19.6844259  44.7824523  34.8920324  24.2171017  39.3131531
  34.2566157  24.2905644  40.0252436  34.5617730  24.8064616  38.6350611
  40.1218674  18.7173400  45.5175853  40.8543846  18.1472617  45.7513682
  39.3658029  18.3295001  45.9582359  29.3963253  21.6790495  39.0092506
  29.2799511  21.0035398  39.6773591  29.5065512  21.1922868  38.1924659
  31.7394793  21.1400642  42.7139195  31.3753001  20.6131263  43.4252117
  32.5961909  20.7499111  42.5405681  37.6444094  12.4294974  49.9770462
  37.3127419  13.2990385  49.7531677  37.0489707  12.1131258  50.6564492
  31.3800280  16.1690541  37.7100544  31.5474683  17.0370778  38.0771015
  31.1897450  16.3317823  36.7861833  34.1375614  24.6307520  49.3766374
  33.8376337  25.5332559  49.2682182  33.7926673  24.3639703  50.2287527
  27.5888095  21.0821317  45.4103079  26.6638592  20.9497531  45.6180771
  27.8372508  21.8615536  45.9073021  37.5372757  17.1490060  47.0563812
  36.6289635  17.0805469  46.7622573  37.4860353  17.6262005  47.8845637
  31.3589501  18.6248199  38.6947211  31.2389127  19.0705250  39.5332691
  30.6642090  18.9733517  38.1360749  24.9496906  20.7254591  46.2446868
  25.0789287  20.9789070  47.1586280  24.2694357  21.3182299  45.9251523
  29.1196393  31.3951841  42.3437342  29.0420423  32.3459666  42.4225823
  28.5158037  31.0497713  43.0012268  31.6113623  18.5679706  54.9998709
  30.8346957  19.1273626  54.9901574  32.2504186  19.0536489  55.5213579
  39.4034404  15.3506499  48.8341686  38.7608784  15.6439032  48.1881480
  38.8989332  15.2359419  49.6394882  37.0574567  19.0969672  39.5227545
  37.9692424  19.3297059  39.3475242  36.5484215  19.6806716  38.9602623
  29.8659995  21.3765159  54.5616676  30.6074680  21.9150203  54.2851500
  29.1596981  22.0031448  54.7188228  35.3415335  23.5194300  53.1588837
  35.7498691  23.0776710  52.4143470  34.6192597  22.9446927  53.4123030
  31.6946405  18.4566907  50.5322394  32.5407600  18.8806320  50.6757043
  31.6345043  17.8000531  51.2260957  35.6644150  24.0795490  46.9141126
  35.0353012  24.2441205  46.2117194  35.2769812  24.4937100  47.6852090
  39.5433382  25.0149928  44.2685490  38.8584420  25.3948830  43.7182523
  39.6277231  25.6245255  45.0017438  34.8445851  16.1171275  52.1903568
  34.6006782  16.8713336  51.6537844  35.1205781  16.4956623  53.0250815
  36.7984313  22.6609887  50.8680834  37.0101209  23.3041647  50.1915215
  36.7514062  21.8272204  50.4002764  34.4010542  15.2727708  47.7717406
  33.5395021  15.5708962  48.0634143  34.4272977  15.4898107  46.8398438
  31.2172112  23.8169899  44.1791211  31.6810457  24.0957602  43.3895834
  30.9528910  22.9153343  43.9964302  28.1096193  23.3641380  47.1170975
  28.6797550  23.7928648  46.4788459  28.7004305  23.0823965  47.8155160
  30.1540998  19.9393051  40.9880777  30.8565041  20.3914095  41.4554703
  29.8221626  19.2976870  41.6160670  28.6021359  18.5304808  55.3631986
  27.9720020  19.2121088  55.5967383  28.4957447  18.4187889  54.4185124
  23.8966332  18.1976604  46.2897910  23.1065386  18.4534132  45.8138021
  24.3877579  19.0124941  46.3949951  37.9130141  25.5381843  49.0403191
  38.7347585  25.1362030  48.7585873  37.9092544  25.4350077  49.9919307
  25.8481077  18.5621183  43.2481387  25.0512240  18.6739877  43.7664882
  25.6206669  18.9007835  42.3822277  31.6786745  25.0865886  51.1963901
  31.7431177  25.5486293  52.0322073  30.9697669  24.4563251  51.3246211
  22.1804035  18.4507094  48.7212901  22.4312073  19.3354104  48.9870477
  22.7163583  18.2711696  47.9487993  46.0036134  21.8820591  45.3888162
  45.2499843  21.3127989  45.2332167  46.1383675  21.8483256  46.3358797
  31.3934762  26.7533994  41.0642882  31.2580437  27.5985529  41.4927730
  31.9344575  26.9553271  40.3008816  27.8802102  12.8325573  57.7257237
  27.4869048  12.2791772  58.4004881  28.6968242  13.1436152  58.1163754
  24.8464160  24.2709432  41.6370807  25.3588680  25.0652682  41.7876372
  25.4986873  23.5735722  41.5704408  26.6559044  27.3875188  43.7193560
  26.8325673  28.3093153  43.5314544  27.4515878  27.0733607  44.1487940
  30.7970063  14.2483452  55.3177494  31.5379776  14.8490606  55.2381956
  31.0287986  13.5061090  54.7595536  25.9411401  19.4339820  53.5955723
  25.8264916  18.5325077  53.8962822  25.0855919  19.6803517  53.2440540
  33.0203239  27.3757560  55.1943224  32.5767093  26.5893939  54.8764128
  33.6820452  27.5636711  54.5287115  27.7790360  28.9053362  49.7203902
  28.3297785  28.7770425  48.9480896  26.9401836  29.2048251  49.3698795
  35.1184477  27.6560360  53.2224625  35.1002952  28.4769241  52.7304894
  36.0404397  27.5314435  53.4474766  31.5757531  25.1704489  54.0648133
  32.1085868  24.4092778  53.8347441  31.0471612  24.8778141  54.8072288
  34.7427226  10.2764555  49.5941775  34.3991495  11.1666197  49.5180886
  35.1106189  10.0866213  48.7311360  22.8113077  22.5998086  42.4130377
  23.6488299  23.0095094  42.1964085  22.9891344  21.6597528  42.3830571
  34.7077509  20.2673167  38.1014210  34.1924132  21.0377771  38.3402598
  34.4354817  19.5938303  38.7247272  32.2924620  15.1122867  43.1599449
  31.4366216  14.7229718  42.9805087  32.7051571  15.1914828  42.2999234
  33.8223766  12.6469211  47.5591008  33.3188562  12.6099346  46.7458814
  34.1154373  13.5561953  47.6187665  30.0666652  12.7307940  46.5657190
  30.9319649  12.5350749  46.2063080  30.1344161  12.5018292  47.4926547
  39.6811783  23.0205521  40.0367384  38.9041226  22.6816681  39.5922546
  40.3603264  23.0258144  39.3622349  34.4963812  18.1400259  39.9273991
  34.1913947  18.4546408  40.7784135  35.4494254  18.2181679  39.9701324
  32.9410244  24.2990482  41.5766945  32.4131605  23.5643242  41.2640183
  32.4397746  25.0765158  41.3306914  37.9203090  22.4939502  46.6933992
  37.2626764  23.1838764  46.7814120  38.7243489  22.8835934  47.0367978
  27.6728971  14.9610148  43.9373557  28.2472723  14.7385330  43.2046750
  28.2599954  15.0298843  44.6902158  36.7308548  20.8483875  44.7437934
  37.2440430  21.4813867  45.2459643  37.3809772  20.2485071  44.3781294
  27.9998558  16.9914609  37.9569442  27.1635871  17.3289296  38.2778717
  27.8603328  16.8563589  37.0196579  29.9751639  11.8351397  42.6648626
  29.3216051  11.5200414  42.0405241  29.9332113  11.2127138  43.3908449
  31.0862844  22.1170692  34.5801918  30.1789906  21.8859946  34.7793067
  31.5833876  21.3208311  34.7675900  33.9930923  30.8268199  37.4998605
  33.3192621  31.1299896  38.1083562  34.3796745  31.6297280  37.1504062
  33.2089379  18.3233331  46.9896274  32.2911941  18.5448278  46.8317962
  33.6249523  18.3979641  46.1307981  33.9924427  19.7224746  42.1198954
  34.7396246  20.2346144  41.8106076  34.2616017  19.4008799  42.9803348
  32.2651077  22.2183287  39.1025909  31.3562297  21.9342320  39.1998378
  32.2946161  22.6382366  38.2429215  37.4970345  25.8289877  42.8717076
  37.0432672  24.9880786  42.9282267  36.8664311  26.4651275  43.2091856
  36.4403264  16.7581863  44.1017744  35.7026021  16.2459249  44.4327986
  36.6930038  16.3182244  43.2901020  35.9403284  27.6666373  43.8066894
  36.2326258  28.2271430  43.0879260  36.4501904  27.9594934  44.5620053
  36.5414892   9.5358115  44.6959513  36.8473768   8.6755478  44.4085428
  37.2667496  10.1275735  44.4958507  22.8339248  19.9388801  43.0841111
  22.6363647  19.3458162  42.3592177  22.2785912  19.6341011  43.8017050
  30.8135971  19.8311908  45.2035704  30.8684581  18.8785744  45.1278181
  30.0027173  19.9871347  45.6877002  31.9627165  23.7592031  36.4413987
  31.5246595  23.0427890  35.9819625  32.7037606  23.9868146  35.8799079
  28.7528331  18.4488967  42.9626083  27.9396197  18.7483138  43.3691275
  29.2487325  18.0544656  43.6800565  30.9036909  28.4446724  44.8960347
  30.8613088  28.6707571  43.9668880  31.8199608  28.2110099  45.0446149
  34.3502543  18.9130792  51.7940977  34.7051931  19.1402265  52.6535442
  34.9974674  19.2449169  51.1718232  40.0800280  22.0349228  42.4990306
  39.9418178  22.2250824  41.5711495  39.7236499  22.7968611  42.9558357
  28.2442406  16.0207323  48.5787318  28.8841785  15.8796082  47.8810281
  27.4119937  15.7341836  48.2025920  40.1069659  24.1025755  47.5101577
  40.5406166  24.0101044  48.3584631  40.8201240  24.0783255  46.8721593
  29.0202710  25.3209753  44.6922310  29.8143308  24.8260074  44.4904885
  28.3094402  24.7927617  44.3290016  33.8397554  27.7027849  49.0434678
  33.8934577  28.2718785  49.8112394  32.9712336  27.8729734  48.6788715
  25.3285473  19.4652835  40.7682063  24.3983061  19.4037291  40.9852025
  25.4242945  18.9428788  39.9718704  25.2471022  15.9907648  43.3560305
  25.5077840  16.9052981  43.2469465  26.0688195  15.5232091  43.5056917
  26.7195948  17.4045405  50.5259129  27.3919001  17.1962767  49.8771778
  25.8925734  17.2067491  50.0864361  40.9685209  24.1449455  50.0434463
  41.1621099  25.0495266  50.2893738  40.8685827  23.6856875  50.8773048
  32.6221520  14.0307346  52.5424790  31.9749435  14.7297296  52.4489266
  33.3922535  14.4643490  52.9101038  36.0300318  24.2956198  55.6175343
  35.8785824  24.0666750  54.7005427  36.0204997  25.2526800  55.6306688
  32.7985654  21.8688111  50.6021610  33.7277714  22.0199271  50.4290577
  32.3776684  21.9572132  49.7470256  31.5973986  25.8938775  48.3720147
  31.4585072  25.5257560  49.2446085  30.8088582  26.4086415  48.2004105
  32.1922138  30.9947872  39.7145684  32.3673894  30.5235915  40.5291307
  31.5054926  31.6213638  39.9426945  33.1479201  25.2720378  45.7608985
  32.8129034  25.2321148  46.6566635  32.6483147  24.6065094  45.2879395
  27.1223445  20.6788008  51.2861566  26.9843243  19.9468247  51.8873105
  28.0328368  20.5896908  51.0045754  36.0838393  22.6176412  36.0346045
  35.4667563  21.8923241  35.9379097  35.6154881  23.3785773  35.6913119
  29.7505746  20.3907967  50.7745246  30.4605364  19.7501160  50.7331864
  29.7075054  20.6420862  51.6971427  37.7392524  27.3275321  53.6951825
  37.6805070  26.6434541  53.0282408  38.1412043  28.0694311  53.2432451
  28.4634680  17.3773185  52.5940885  27.9272037  16.9263924  53.2462482
  27.8751388  17.5119094  51.8511350  26.7583223  34.1437235  46.4885544
  26.9979821  34.7755759  47.1664563  25.9152420  33.7925275  46.7750903
  27.8736939  16.8361837  35.1567349  26.9966405  16.7150637  34.7929596
  28.3494692  16.0447915  34.9046238  37.7409932  25.2914905  51.9265805
  36.8536710  24.9540826  52.0492204  38.3108483  24.5597936  52.1634570
  19.3939079  21.6238996  45.2508856  20.0810119  21.3100726  44.6629871
  19.2387207  22.5280361  44.9776108  24.1973801  16.5129193  49.6793880
  24.1131990  15.9054863  48.9444290  23.3756507  17.0038211  49.6803376
  31.2711085  29.9516357  48.8927048  31.1981256  30.7571329  49.4046353
  30.8288478  30.1508323  48.0675069  31.0600865  29.1888127  42.4029870
  30.2768387  29.7309807  42.4968094  31.7593610  29.7062107  42.8024111
  34.3697515  14.9982757  45.0464075  34.8666214  14.2452719  44.7265145
  33.5984496  15.0347073  44.4807284  42.2227272  20.7023122  46.6882366
  42.2117148  21.5847837  46.3176300  41.3544652  20.3494673  46.4936903
  33.7309769  29.8503191  51.0485207  34.4437741  30.4850656  50.9761108
  33.2399797  29.9467057  50.2325208  35.4527295  23.7554444  42.6202498
  34.5183574  23.8755906  42.4507203  35.6303964  22.8526911  42.3562508
  30.9532483  17.1400140  44.7735760  30.5830271  16.5871180  45.4616665
  31.4491576  16.5358273  44.2210760  38.8399847  19.5971763  43.1552532
  39.3060299  20.4299755  43.0812835  39.2907347  19.1316745  43.8597791
  28.7821682  27.5997635  51.8690777  29.4831142  28.2334118  52.0220172
  28.3116797  27.9412366  51.1086417  36.9076078  25.9415584  40.1538685
  37.1835922  25.8272179  41.0632559  36.0380577  25.5433069  40.1150858
  36.8116510  11.9652350  47.1943434  35.8979589  12.1956577  47.3625641
  37.2409611  12.0490794  48.0457466  36.5822968  20.1542242  49.6943328
  35.9294418  20.4018149  49.0395781  36.9603348  19.3406380  49.3605805
  33.5430142  30.1901935  43.7971498  33.7252536  29.3723591  44.2599250
  34.3663128  30.4069627  43.3596388  33.8772307  29.1170120  41.0586547
  34.4060074  28.6062575  40.4456709  34.1400527  28.8012651  41.9232080
  32.6310541  20.8962053  56.1809365  31.9551178  20.7956182  56.8511740
  33.4538175  20.7401267  56.6445362  24.3789400  27.1333990  48.8021880
  24.9642837  26.3877677  48.9349784  24.1814239  27.4437946  49.6858544
  27.2328055  30.1685237  43.8184323  26.5638431  30.6531365  43.3348363
  27.0940925  30.4154457  44.7327701  18.9707055  19.7039590  47.5226323
  19.0091154  19.1703180  48.3163441  18.4647348  19.1774795  46.9037300
  31.3733324  32.2028980  50.4166981  31.9251632  32.3660602  51.1816066
  31.7139517  32.7933418  49.7447006  26.3497817  14.5504130  51.0188866
  26.4139144  15.4118961  50.6066263  26.2864937  13.9378132  50.2861224
  25.8250090  16.6227263  54.6661900  26.4522128  16.2404340  55.2799424
  24.9678009  16.4041465  55.0317592  36.2244198  27.0290238  56.2715635
  36.7684102  27.6420196  55.7770590  35.6431043  27.5869816  56.7882648
  22.6015632  18.4303692  40.5980255  22.8969074  17.5214370  40.5447308
  21.7003668  18.4091431  40.2761257  34.5101711  30.1510956  47.4030663
  34.3852851  29.3500696  46.8941609  35.1680802  30.6457149  46.9144633
  26.1309879  16.5059689  46.5807803  25.4096465  17.1195656  46.4415277
  26.9203135  17.0417453  46.5024449  36.5736620  27.9519976  49.0310213
  35.6266955  27.8325327  48.9588540  36.9219393  27.0642474  49.1136475
  28.9336193  13.8414115  52.8548455  29.4570595  14.0876412  53.6174764
  28.7148526  14.6734150  52.4351592  24.3303474  16.1117790  40.7219580
  24.0016180  15.2315169  40.5394686  24.6842845  16.0565458  41.6095969
  33.5783053  27.7472692  45.2314565  33.4308015  26.8189400  45.4122135
  34.4036546  27.7692783  44.7471641  27.4445297  16.3990759  41.0895058
  27.7841370  16.9276681  40.3673666  27.8917418  16.7371166  41.8653624
  37.1817175  28.5701251  46.3179438  38.1063722  28.3644112  46.1803889
  37.0132478  28.3217652  47.2268780  30.1388738  14.7827810  50.5398126
  29.7985558  13.9835623  50.9418805  29.4327744  15.0829521  49.9674959
  30.7905210  11.8677123  48.9925449  31.6131279  11.3937601  48.8704339
  31.0343273  12.6467606  49.4924135  29.4313444  14.8965381  39.2888350
  30.1521807  15.2746634  38.7852067  28.8078748  15.6154258  39.3923328
  33.5744567  15.6010530  40.2246683  33.7908182  16.4835168  39.9235511
  33.0938634  15.2096743  39.4952325  28.3143789  18.5596243  46.8017427
  28.1688369  18.8736546  47.6941709  27.8368992  19.1781144  46.2488326
  30.1740171  15.5498791  46.8498317  30.1601740  14.6539884  46.5130615
  30.8912600  15.5569455  47.4836603  32.0266302  15.9836131  48.8951444
  31.7684080  16.9053202  48.8935775  31.4951343  15.5866566  49.5851908
  36.9712491  29.0886918  41.6741530  37.1449368  28.5233341  40.9215382
  37.4641382  29.8887813  41.4921020  22.7889451  21.1001588  49.7405088
  22.2442919  21.8761396  49.8725363  23.6668801  21.4472392  49.5824210
  29.5777067  14.4313171  42.1185887  29.6992979  13.5029818  42.3176774
  29.2879110  14.4451857  41.2064202  32.4468258  12.1168082  45.2552607
  32.4689955  12.1807415  44.3004586  32.8636317  11.2772591  45.4493113
  42.8251882  21.8523341  43.2931829  43.2683028  21.1030667  42.8950953
  41.9478392  21.8433478  42.9105561  37.9587663  28.4053683  38.7738428
  38.6538568  29.0260376  38.9925743  38.3010814  27.5549034  39.0490806
  23.5755473  20.2271484  52.6335245  22.8337209  20.3754119  53.2199876
  23.2548217  20.4879749  51.7701995  39.8579087  25.8553388  40.3025759
  40.3830411  26.1940661  39.5775079  39.7701439  24.9200404  40.1188893
  31.5199135  29.7687462  52.4315635  31.8286262  29.5236609  53.3038335
  32.3174617  29.9734101  51.9434506  31.5419747  31.9225372  44.6621012
  31.1024738  31.4301750  45.3553869  32.2927864  31.3798339  44.4213087
  24.0212086  28.1136913  44.6645640  24.8470106  27.8140684  44.2844283
  23.6706138  27.3444535  45.1135429  28.9893619  27.4663381  46.7343313
  28.3673629  26.8034086  46.4345541  29.6598486  27.4924513  46.0516961
  22.2220691  26.0323239  45.6234573  21.3852600  25.6045413  45.4418575
  22.1944337  26.2255682  46.5605365  29.0618147  15.9445169  56.3275820
  29.1106302  16.8207292  55.9453589  29.6040661  15.4022562  55.7547463
  39.5472993  26.4886292  55.6076957  38.7568536  26.4710431  55.0681456
  39.3106347  27.0274586  56.3625993  39.6670868  23.3378758  52.9209685
  39.7168873  23.1728766  53.8625208  39.5584791  22.4706017  52.5307566
  28.5507126  26.0167304  40.2101774  28.6995247  26.7002769  39.5568447
  29.3573570  25.9972394  40.7251230  36.9574630  19.3209686  54.2368992
  37.8584493  19.1816151  53.9452990  37.0322605  19.4864141  55.1767169
  31.2917435  16.6976541  53.0822178  30.4220745  16.9910107  52.8104767
  31.5276916  17.2816986  53.8029442  41.1689064  25.7575700  53.1651707
  40.8773873  26.1205681  54.0015168  40.5561196  25.0442708  52.9865039
  42.3684747  23.3228580  45.6854277  43.2031638  23.7618384  45.8491837
  42.5043876  22.8467233  44.8662523  39.4176253  20.8808315  51.6331765
  39.8930374  21.0735961  50.8250616  38.4941818  20.9367500  51.3875148
  26.3059759  22.0432482  41.2162843  26.0605801  21.1394812  41.4143053
  26.4755674  22.0449632  40.2742321  33.9956469  12.9156158  50.5987599
  34.5138413  13.6517185  50.2734087  33.6411602  13.2220151  51.4334358
  25.5755407  17.7760839  38.7149004  24.8824652  17.8505194  38.0589040
  25.3307159  17.0121183  39.2370521  34.2469063   9.3356441  46.1188495
  34.5270817   8.6679630  46.7448922  35.0319670   9.5285536  45.6063159
  32.0502532  28.5115435  37.6813521  31.4776499  29.1305622  37.2283993
  32.6235326  29.0614796  38.2153443  38.1177922  17.7574075  49.8660070
  39.0695345  17.8572172  49.8872294  37.9481372  16.9652343  50.3758155
  36.1392301  14.8429658  50.0519471  35.5442233  15.1234671  49.3565960
  35.8541998  15.3323559  50.8236212  35.2699792  28.7952585  38.8122104
  36.2030465  28.7298146  39.0154979  35.1823004  29.6308852  38.3536636
  37.8987808  28.1118455  35.7726051  37.8201440  27.7778319  36.6661809
  38.7197475  28.6040223  35.7717524  40.5966000  20.9780194  48.9802370
  40.5642320  20.0396195  49.1662054  41.2066623  21.0564231  48.2468195
  32.4349330  19.8476247  35.0229574  33.3808435  19.7182455  35.0917992
  32.0563575  19.1090909  35.4999002  40.7460488  17.7691238  49.0260653
  40.2299537  16.9849694  48.8390582  41.6300437  17.4409954  49.1907173
  38.4071215  11.5132253  44.9856466  38.2096036  11.2047342  45.8699798
  39.0170920  12.2393892  45.1154396  46.4142549  22.0396201  48.1208407
  47.1445938  21.7781489  48.6816110  45.8049495  21.3024923  48.1610475
  44.4957846  20.1804064  48.7182858  43.7691010  20.0460029  48.1099350
  44.0805133  20.4880892  49.5239576  32.3188023  23.8993993  56.4830231
  33.2391032  24.0772592  56.6770277  32.2837606  22.9550039  56.3309930
  30.6192248  17.7726224  34.9584459  29.7123703  17.4759336  35.0347173
  30.8968229  17.4756042  34.0918745  21.5370188  19.0932587  45.4083506
  21.2172972  18.2397895  45.1157880  20.9903616  19.3081165  46.1641473
  25.3150095  21.8095028  49.1253012  25.5336105  22.7412136  49.1441046
  25.7275869  21.4503003  49.9107816  32.2354313  12.3163113  41.1128700
  31.4255042  11.9710198  41.4883947  32.9238730  12.0070657  41.7016312
  34.1644862  11.3941160  42.7352997  34.7175900  11.8136614  43.3943020
  34.4014948  10.4676908  42.7775953  30.1877961  17.3828234  58.5155761
  30.0874688  18.3322591  58.4467852  29.9699503  17.0546473  57.6431831
  29.3891032  14.6313159  35.0996438  30.2510196  14.9568057  35.3592256
  29.5741376  13.8444655  34.5869504  21.4058448  22.7135499  47.3776627
  20.7121919  22.2989451  46.8646582  22.1531439  22.7556035  46.7810046
  37.5423669  13.5041685  42.2431661  36.9622338  14.1626489  41.8609714
  37.2759601  12.6819030  41.8319079  35.9927235  12.9046743  44.4452982
  36.4927013  13.0163278  43.6367301  36.6362843  12.6007796  45.0853790
  30.0509231  20.8125373  57.3320823  29.5676313  21.6125733  57.5384712
  30.1370170  20.8233318  56.3788267  23.3195190  22.6453752  45.2542642
  23.2965879  22.7441440  44.3024525  23.6295827  23.4918903  45.5759808
  25.9782568  24.7029907  49.3689256  26.9325822  24.6713850  49.3019188
  25.7795092  24.2420531  50.1839482  26.5681950  23.2731023  51.9360054
  27.3874839  23.7675102  51.9594891  26.8418758  22.3562992  51.9077622
  36.3248547  15.6641776  41.2988010  35.4374402  15.9491426  41.0808204
  36.7402536  15.5035539  40.4515287  39.6763083  15.6888297  45.0142349
  40.4523473  16.1784749  45.2866966  38.9511217  16.1146351  45.4714218
  42.1135641  16.4015916  46.0716290  42.7080132  16.1611652  45.3609598
  42.1862225  15.6823047  46.6989826  24.3332797  30.2449527  46.3859454
  24.1987265  29.4849928  45.8197452  23.9164859  30.9690427  45.9188243
  35.4691760  25.4286450  35.3936030  36.1727610  25.6336453  36.0093685
  34.7454409  25.9963212  35.6585113  36.2989570  21.1796312  41.5138300
  36.2424772  21.6364863  40.6745932  36.8517913  20.4186996  41.3361143
  40.1094376  16.9686044  42.3388419  39.8531311  16.5682679  43.1696627
  39.4847244  17.6829838  42.2138558  44.4206714  19.7082117  44.8459711
  43.8606272  19.7775306  45.6191273  43.8150218  19.5323101  44.1259207
  27.4901923  31.1418844  46.5977897  27.3734307  32.0864276  46.4956587
  26.6694369  30.8392406  46.9863696  37.3778458  25.8668980  37.4434490
  38.2124061  25.4350178  37.2611964  37.2162800  25.6950993  38.3711384
  37.0324350  22.3701093  38.8090829  36.9773153  22.2045364  37.8679273
  36.4070405  23.0777126  38.9653019  21.8216865  17.6069157  52.6352251
  22.4675728  17.0968111  53.1239476  21.6134016  18.3437839  53.2095676
  34.3470257  24.6750005  58.1344392  35.2161417  24.8490657  57.7731027
  33.8677008  25.4944422  58.0120121  30.3420475  11.8709202  38.3876147
  30.3299145  12.8151042  38.5444418  31.2343897  11.6879347  38.0935609
  28.5156437  31.7947106  49.8133825  29.4183684  31.8270716  50.1300320
  28.2893807  30.8647557  49.8280161  30.2710039  30.5478092  46.4743904
  29.3205670  30.5479954  46.3608276  30.5742525  29.8010827  45.9579939
  34.1572595   8.4651979  42.6422084  33.3904990   7.9110465  42.7878767
  34.5683300   8.5373847  43.5036236  26.1614356  14.7536774  56.7327265
  27.0245817  14.3973579  56.9430590  25.5879766  14.4150669  57.4202670
  38.6739255  38.1901535  43.4648082  38.1104120  38.0991472  42.6964370
  38.5591650  37.3701440  43.9450575  38.1794440  38.9461640  39.1749681
  38.9525316  38.3990627  39.0362557  38.5319839  39.8105889  39.3864143
  40.5160718  35.1054306  36.8068131  40.7686239  34.5835828  36.0451594
  39.5785277  34.9420452  36.9094815  45.5604001  34.1090085  44.6142874
  46.3467090  33.6909508  44.2633291  45.8242705  35.0136177  44.7824523
  50.9612428  34.0465318  45.5175853  51.6937600  33.4764535  45.7513682
  50.2051784  33.6586918  45.9582359  40.2357007  37.0082412  39.0092506
  40.1193265  36.3327316  39.6773591  40.3459267  36.5214786  38.1924659
  42.5788548  36.4692559  42.7139195  42.2146755  35.9423180  43.4252117
  43.4355664  36.0791028  42.5405681  48.4837849  27.7586892  49.9770462
  48.1521173  28.6282303  49.7531677  47.8883462  27.4423176  50.6564492
  42.2194035  31.4982459  37.7100544  42.3868437  32.3662695  38.0771015
  42.0291204  31.6609741  36.7861833  38.4281850  36.4113235  45.4103079
  37.5032346  36.2789449  45.6180771  38.6766263  37.1907454  45.9073021
  42.1983256  33.9540117  38.6947211  42.0782881  34.3997167  39.5332691
  41.5035844  34.3025434  38.1360749  35.7890661  36.0546508  46.2446868
  35.9183042  36.3080987  47.1586280  35.1088112  36.6474216  45.9251523
  50.2428158  30.6798417  48.8341686  49.6002539  30.9730950  48.1881480
  49.7383087  30.5651337  49.6394882  40.9934752  35.2684969  40.9880777
  41.6958796  35.7206012  41.4554703  40.6615381  34.6268787  41.6160670
  39.4415114  33.8596725  55.3631986  38.8113774  34.5413006  55.5967383
  39.3351202  33.7479807  54.4185124  34.7360086  33.5268521  46.2897910
  33.9459140  33.7826050  45.8138021  35.2271334  34.3416859  46.3949951
  36.6874832  33.8913101  43.2481387  35.8905995  34.0031795  43.7664882
  36.4600424  34.2299753  42.3822277  33.0197789  33.7799012  48.7212901
  33.2705828  34.6646022  48.9870477  33.5557338  33.6003613  47.9487993
  38.7195856  28.1617491  57.7257237  38.3262802  27.6083690  58.4004881
  39.5361997  28.4728070  58.1163754  35.6857914  39.6001349  41.6370807
  36.1982435  40.3944600  41.7876372  36.3380627  38.9027640  41.5704408
  41.6363817  29.5775370  55.3177494  42.3773531  30.1782523  55.2381956
  41.8681740  28.8353008  54.7595536  36.7805155  34.7631737  53.5955723
  36.6658671  33.8616995  53.8962822  35.9249673  35.0095434  53.2440540
  45.5820980  25.6056473  49.5941775  45.2385250  26.4958115  49.5180886
  45.9499943  25.4158131  48.7311360  33.6506831  37.9290004  42.4130377
  34.4882053  38.3387012  42.1964085  33.8285099  36.9889446  42.3830571
  45.5471263  35.5965084  38.1014210  45.0317887  36.3669689  38.3402598
  45.2748572  34.9230220  38.7247272  43.1318374  30.4414785  43.1599449
  42.2759970  30.0521635  42.9805087  43.5445326  30.5206746  42.2999234
  44.6617521  27.9761128  47.5591008  44.1582316  27.9391263  46.7458814
  44.9548128  28.8853871  47.6187665  40.9060407  28.0599858  46.5657190
  41.7713403  27.8642667  46.2063080  40.9737916  27.8310210  47.4926547
  45.3357566  33.4692176  39.9273991  45.0307702  33.7838325  40.7784135
  46.2888008  33.5473596  39.9701324  38.5122726  30.2902066  43.9373557
  39.0866478  30.0677247  43.2046750  39.0993708  30.3590760  44.6902158
  47.5702303  36.1775793  44.7437934  48.0834185  36.8105785  45.2459643
  48.2203527  35.5776988  44.3781294  38.8392313  32.3206527  37.9569442
  38.0029625  32.6581213  38.2778717  38.6997082  32.1855507  37.0196579
  40.8145393  27.1643315  42.6648626  40.1609806  26.8492332  42.0405241
  40.7725868  26.5419055  43.3908449  41.9256598  37.4462610  34.5801918
  41.0183660  37.2151863  34.7793067  42.4227630  36.6500229  34.7675900
  44.8318182  35.0516664  42.1198954  45.5790001  35.5638061  41.8106076
  45.1009771  34.7300717  42.9803348  43.1044832  37.5475205  39.1025909
  42.1956051  37.2634238  39.1998378  43.1339916  37.9674283  38.2429215
  47.2797019  32.0873780  44.1017744  46.5419776  31.5751167  44.4327986
  47.5323792  31.6474162  43.2901020  47.3808646  24.8650032  44.6959513
  47.6867523  24.0047396  44.4085428  48.1061251  25.4567652  44.4958507
  33.6733002  35.2680719  43.0841111  33.4757402  34.6750080  42.3592177
  33.1179666  34.9632929  43.8017050  41.6529726  35.1603825  45.2035704
  41.7078336  34.2077662  45.1278181  40.8420928  35.3163264  45.6877002
  39.5922086  33.7780885  42.9626083  38.7789951  34.0775056  43.3691275
  40.0881080  33.3836574  43.6800565  39.0836160  31.3499241  48.5787318
  39.7235540  31.2088000  47.8810281  38.2513691  31.0633754  48.2025920
  36.1679228  34.7944753  40.7682063  35.2376816  34.7329208  40.9852025
  36.2636700  34.2720706  39.9718704  36.0864777  31.3199566  43.3560305
  36.3471594  32.2344899  43.2469465  36.9081949  30.8524008  43.5056917
  37.5589702  32.7337323  50.5259129  38.2312756  32.5254685  49.8771778
  36.7319489  32.5359409  50.0864361  43.4615274  29.3599264  52.5424790
  42.8143189  30.0589213  52.4489266  44.2316290  29.7935408  52.9101038
  37.9617199  36.0079926  51.2861566  37.8236997  35.2760165  51.8873105
  38.8722123  35.9188826  51.0045754  39.3028434  32.7065103  52.5940885
  38.7665791  32.2555841  53.2462482  38.7145143  32.8411012  51.8511350
  38.7130693  32.1653754  35.1567349  37.8360159  32.0442555  34.7929596
  39.1888446  31.3739833  34.9046238  30.2332833  36.9530914  45.2508856
  30.9203873  36.6392644  44.6629871  30.0780962  37.8572279  44.9776108
  35.0367555  31.8421111  49.6793880  34.9525744  31.2346780  48.9444290
  34.2150262  32.3330129  49.6803376  45.2091269  30.3274674  45.0464075
  45.7059969  29.5744637  44.7265145  44.4378251  30.3638991  44.4807284
  41.7926238  32.4692057  44.7735760  41.4224025  31.9163098  45.4616665
  42.2885330  31.8650191  44.2210760  47.6510264  27.2944268  47.1943434
  46.7373344  27.5248495  47.3625641  48.0803365  27.3782712  48.0457466
  29.8100809  35.0331507  47.5226323  29.8484909  34.4995098  48.3163441
  29.3041102  34.5066713  46.9037300  37.1891572  29.8796048  51.0188866
  37.2532898  30.7410879  50.6066263  37.1258692  29.2670050  50.2861224
  36.6643844  31.9519181  54.6661900  37.2915883  31.5696258  55.2799424
  35.8071763  31.7333382  55.0317592  33.4409387  33.7595610  40.5980255
  33.7362828  32.8506288  40.5447308  32.5397423  33.7383349  40.2761257
  36.9703634  31.8351606  46.5807803  36.2490220  32.4487574  46.4415277
  37.7596890  32.3709371  46.5024449  39.7729947  29.1706033  52.8548455
  40.2964349  29.4168329  53.6174764  39.5542281  30.0026068  52.4351592
  35.1697229  31.4409707  40.7219580  34.8409935  30.5607086  40.5394686
  35.5236599  31.3857376  41.6095969  38.2839052  31.7282677  41.0895058
  38.6235124  32.2568598  40.3673666  38.7311172  32.0663083  41.8653624
  40.9782492  30.1119728  50.5398126  40.6379313  29.3127541  50.9418805
  40.2721499  30.4121439  49.9674959  41.6298964  27.1969040  48.9925449
  42.4525034  26.7229518  48.8704339  41.8737028  27.9759524  49.4924135
  40.2707199  30.2257299  39.2888350  40.9915561  30.6038551  38.7852067
  39.6472503  30.9446175  39.3923328  44.4138322  30.9302448  40.2246683
  44.6301936  31.8127086  39.9235511  43.9332389  30.5388661  39.4952325
  39.1537543  33.8888161  46.8017427  39.0082124  34.2028464  47.6941709
  38.6762747  34.5073061  46.2488326  41.0133926  30.8790709  46.8498317
  40.9995495  29.9831802  46.5130615  41.7306354  30.8861373  47.4836603
  40.4170822  29.7605089  42.1185887  40.5386733  28.8321735  42.3176774
  40.1272864  29.7743775  41.2064202  43.2862012  27.4460000  45.2552607
  43.3083709  27.5099333  44.3004586  43.7030071  26.6064508  45.4493113
  33.0614446  41.3615157  45.6234573  32.2246354  40.9337331  45.4418575
  33.0338091  41.5547600  46.5605365  39.9011901  31.2737087  56.3275820
  39.9500057  32.1499209  55.9453589  40.4434416  30.7314480  55.7547463
  39.3900881  41.3459222  40.2101774  39.5389001  42.0294686  39.5568447
  40.1967324  41.3264312  40.7251230  42.1311190  32.0268459  53.0822178
  41.2614499  32.3202025  52.8104767  42.3670670  32.6108904  53.8029442
  37.1453514  37.3724399  41.2162843  36.8999556  36.4686729  41.4143053
  37.3149428  37.3741550  40.2742321  44.8350224  28.2448076  50.5987599
  45.3532168  28.9809103  50.2734087  44.4805356  28.5512069  51.4334358
  36.4149161  33.1052757  38.7149004  35.7218406  33.1797112  38.0589040
  36.1700913  32.3413101  39.2370521  45.0862818  24.6648358  46.1188495
  45.3664572  23.9971547  46.7448922  45.8713425  24.8577454  45.6063159
  46.9786056  30.1721576  50.0519471  46.3835988  30.4526588  49.3565960
  46.6935752  30.6615477  50.8236212  43.2743085  35.1768165  35.0229574
  44.2202190  35.0474373  35.0917992  42.8957330  34.4382827  35.4999002
  49.2464969  26.8424171  44.9856466  49.0489791  26.5339259  45.8699798
  49.8564675  27.5685810  45.1154396  41.4586002  33.1018141  34.9584459
  40.5517457  32.8051254  35.0347173  41.7361983  32.8047959  34.0918745
  32.3763942  34.4224505  45.4083506  32.0566727  33.5689813  45.1157880
  31.8297371  34.6373083  46.1641473  43.0748068  27.6455031  41.1128700
  42.2648796  27.3002116  41.4883947  43.7632485  27.3362575  41.7016312
  45.0038616  26.7233078  42.7352997  45.5569655  27.1428531  43.3943020
  45.2408702  25.7968826  42.7775953  41.0271715  32.7120152  58.5155761
  40.9268442  33.6614509  58.4467852  40.8093257  32.3838390  57.6431831
  40.2284787  29.9605077  35.0996438  41.0903951  30.2859975  35.3592256
  40.4135131  29.1736573  34.5869504  32.2452202  38.0427416  47.3776627
  31.5515674  37.6281369  46.8646582  32.9925193  38.0847953  46.7810046
  48.3817423  28.8333603  42.2431661  47.8016092  29.4918407  41.8609714
  48.1153356  28.0110948  41.8319079  46.8320989  28.2338661  44.4452982
  47.3320768  28.3455195  43.6367301  47.4756597  27.9299714  45.0853790
  34.1588945  37.9745670  45.2542642  34.1359633  38.0733357  44.3024525
  34.4689581  38.8210821  45.5759808  47.1642301  30.9933693  41.2988010
  46.2768156  31.2783344  41.0808204  47.5796290  30.8327457  40.4515287
  50.5156837  31.0180214  45.0142349  51.2917227  31.5076667  45.2866966
  49.7904971  31.4438269  45.4714218  52.9529396  31.7307834  46.0716290
  53.5473887  31.4903570  45.3609598  53.0255980  31.0114964  46.6989826
  32.6610619  32.9361075  52.6352251  33.3069483  32.4260029  53.1239476
  32.4527770  33.6729757  53.2095676  41.1814230  27.2001120  38.3876147
  41.1692899  28.1442960  38.5444418  42.0737652  27.0171265  38.0935609
  44.9966349  23.7943896  42.6422084  44.2298745  23.2402383  42.7878767
  45.4077054  23.8665765  43.5036236  37.0008110  30.0828692  56.7327265
  37.8639572  29.7265497  56.9430590  36.4273521  29.7442587  57.4202670
  68.0930058  52.6980037  48.1208407  68.8233447  52.4365325  48.6816110
  67.4837004  51.9608759  48.1610475  61.9072296  60.6188912  35.0996438
  62.7691460  60.9443810  35.3592256  62.0922640  59.8320408  34.5869504
  78.5243996  82.3714384  47.5389666  79.1622406  82.2521131  46.8353006
  78.4064839  83.3195228  47.5977619  76.7720077  87.8448256  38.7762547
  76.1208057  88.4302336  38.3896561  77.5664440  88.3754451  38.8357584
  72.5360746  86.2613775  52.3816581  72.2450612  87.1659406  52.2663247
  73.1717731  86.3030303  53.0960650  78.2495342  85.5338688  39.3131531
  77.6141175  85.6073314  40.0252436  77.9192748  86.1232287  38.6350611
  83.4793692  80.0341071  45.5175853  84.2118864  79.4640288  45.7513682
  82.7233047  79.6462671  45.9582359  77.4950632  85.9475191  49.3766374
  77.1951355  86.8500230  49.2682182  77.1501691  85.6807374  50.2287527
  80.8947775  78.4657731  47.0563812  79.9864653  78.3973140  46.7622573
  80.8435371  78.9429676  47.8845637  72.4771411  92.7119511  42.3437342
  72.3995441  93.6627336  42.4225823  71.8733055  92.3665384  43.0012268
  82.7609422  76.6674170  48.8341686  82.1183802  76.9606703  48.1881480
  82.2564350  76.5527090  49.6394882  80.4149585  80.4137343  39.5227545
  81.3267442  80.6464729  39.3475242  79.9059232  80.9974387  38.9602623
  79.0219168  85.3963161  46.9141126  78.3928030  85.5608875  46.2117194
  78.6344830  85.8104771  47.6852090  82.9008400  86.3317599  44.2685490
  82.2159438  86.7116500  43.7182523  82.9852249  86.9412926  45.0017438
  80.1559331  83.9777558  50.8680834  80.3676226  84.6209318  50.1915215
  80.1089079  83.1439875  50.4002764  74.5747130  85.1337569  44.1791211
  75.0385475  85.4125272  43.3895834  74.3103928  84.2321014  43.9964302
  81.2705159  86.8549513  49.0403191  82.0922603  86.4529701  48.7585873
  81.2667562  86.7517748  49.9919307  75.0361763  86.4033557  51.1963901
  75.1006195  86.8653964  52.0322073  74.3272687  85.7730922  51.3246211
  89.3611152  83.1988262  45.3888162  88.6074861  82.6295660  45.2332167
  89.4958693  83.1650926  46.3358797  74.7509780  88.0701664  41.0642882
  74.6155455  88.9153200  41.4927730  75.2919593  88.2720942  40.3008816
  70.0134062  88.7042859  43.7193560  70.1900691  89.6260823  43.5314544
  70.8090896  88.3901278  44.1487940  76.3778257  88.6925231  55.1943224
  75.9342111  87.9061609  54.8764128  77.0395470  88.8804381  54.5287115
  71.1365378  90.2221032  49.7203902  71.6872803  90.0938096  48.9480896
  70.2976854  90.5215921  49.3698795  78.4759495  88.9728031  53.2224625
  78.4577970  89.7936912  52.7304894  79.3979415  88.8482106  53.4474766
  78.0652527  81.5840837  38.1014210  77.5499150  82.3545442  38.3402598
  77.7929835  80.9105973  38.7247272  83.0386801  84.3373192  40.0367384
  82.2616243  83.9984351  39.5922546  83.7178282  84.3425815  39.3622349
  77.8538830  79.4567929  39.9273991  77.5488965  79.7714079  40.7784135
  78.8069272  79.5349349  39.9701324  76.2985262  85.6158153  41.5766945
  75.7706623  84.8810912  41.2640183  75.7972764  86.3932829  41.3306914
  81.2778108  83.8107173  46.6933992  80.6201782  84.5006435  46.7814120
  82.0818507  84.2003605  47.0367978  80.0883566  82.1651546  44.7437934
  80.6015448  82.7981538  45.2459643  80.7384790  81.5652741  44.3781294
  74.4437862  83.4338363  34.5801918  73.5364924  83.2027616  34.7793067
  74.9408894  82.6375982  34.7675900  77.3505941  92.1435870  37.4998605
  76.6767639  92.4467567  38.1083562  77.7371763  92.9464950  37.1504062
  75.6226095  83.5350958  39.1025909  74.7137314  83.2509991  39.1998378
  75.6521179  83.9550036  38.2429215  80.8545363  87.1457547  42.8717076
  80.4007690  86.3048457  42.9282267  80.2239329  87.7818946  43.2091856
  79.2978302  88.9834044  43.8066894  79.5901276  89.5439101  43.0879260
  79.8076922  89.2762605  44.5620053  75.3202183  85.0759701  36.4413987
  74.8821613  84.3595560  35.9819625  76.0612624  85.3035816  35.8799079
  74.2611927  89.7614395  44.8960347  74.2188106  89.9875241  43.9668880
  75.1774626  89.5277770  45.0446149  83.4375298  83.3516898  42.4990306
  83.2993196  83.5418494  41.5711495  83.0811517  84.1136281  42.9558357
  83.4644677  85.4193426  47.5101577  83.8981184  85.3268715  48.3584631
  84.1776258  85.3950926  46.8721593  72.3777728  86.6377424  44.6922310
  73.1718326  86.1427744  44.4904885  71.6669420  86.1095287  44.3290016
  77.1972572  89.0195520  49.0434678  77.2509595  89.5886456  49.8112394
  76.3287354  89.1897405  48.6788715  84.3260227  85.4617126  50.0434463
  84.5196117  86.3662937  50.2893738  84.2260845  85.0024545  50.8773048
  79.3875336  85.6123869  55.6175343  79.2360842  85.3834421  54.7005427
  79.3780015  86.5694470  55.6306688  74.9549004  87.2106446  48.3720147
  74.8160090  86.8425230  49.2446085  74.1663600  87.7254085  48.2004105
  75.5497156  92.3115543  39.7145684  75.7248911  91.8403586  40.5291307
  74.8629944  92.9381309  39.9426945  76.5054219  86.5888049  45.7608985
  76.1704052  86.5488819  46.6566635  76.0058165  85.9232765  45.2879395
  79.4413411  83.9344083  36.0346045  78.8242581  83.2090911  35.9379097
  78.9729899  84.6953443  35.6913119  81.0967542  88.6442991  53.6951825
  81.0380088  87.9602212  53.0282408  81.4987061  89.3861981  53.2432451
  70.1158241  95.4604905  46.4885544  70.3554839  96.0923429  47.1664563
  69.2727438  95.1092945  46.7750903  81.0984950  86.6082575  51.9265805
  80.2111728  86.2708497  52.0492204  81.6683501  85.8765607  52.1634570
  74.6286103  91.2684028  48.8927048  74.5556274  92.0738999  49.4046353
  74.1863496  91.4675994  48.0675069  74.4175883  90.5055798  42.4029870
  73.6343404  91.0477478  42.4968094  75.1168628  91.0229777  42.8024111
  85.5802290  82.0190793  46.6882366  85.5692166  82.9015508  46.3176300
  84.7119670  81.6662344  46.4936903  77.0884786  91.1670862  51.0485207
  77.8012759  91.8018327  50.9761108  76.5974815  91.2634728  50.2325208
  78.8102313  85.0722114  42.6202498  77.8758592  85.1923577  42.4507203
  78.9878982  84.1694581  42.3562508  82.1974865  80.9139434  43.1552532
  82.6635317  81.7467425  43.0812835  82.6482365  80.4484415  43.8597791
  72.1396700  88.9165305  51.8690777  72.8406160  89.5501788  52.0220172
  71.6691815  89.2580037  51.1086417  80.2651096  87.2583255  40.1538685
  80.5410940  87.1439850  41.0632559  79.3955595  86.8600740  40.1150858
  79.9397986  81.4709913  49.6943328  79.2869436  81.7185820  49.0395781
  80.3178366  80.6574051  49.3605805  76.9005160  91.5069606  43.7971498
  77.0827554  90.6891262  44.2599250  77.7238146  91.7237298  43.3596388
  77.2347325  90.4337791  41.0586547  77.7635092  89.9230246  40.4456709
  77.4975545  90.1180321  41.9232080  70.5903073  91.4852908  43.8184323
  69.9213449  91.9699035  43.3348363  70.4515943  91.7322128  44.7327701
  74.7308342  93.5196651  50.4166981  75.2826650  93.6828273  51.1816066
  75.0714535  94.1101089  49.7447006  79.5819216  88.3457909  56.2715635
  80.1259120  88.9587867  55.7770590  79.0006061  88.9037487  56.7882648
  77.8676729  91.4678627  47.4030663  77.7427869  90.6668367  46.8941609
  78.5255820  91.9624820  46.9144633  79.9311638  89.2687647  49.0310213
  78.9841973  89.1492998  48.9588540  80.2794411  88.3810145  49.1136475
  76.9358071  89.0640363  45.2314565  76.7883033  88.1357070  45.4122135
  77.7611564  89.0860454  44.7471641  80.5392193  89.8868922  46.3179438
  81.4638740  89.6811783  46.1803889  80.3707496  89.6385323  47.2268780
  76.9319585  76.9178201  40.2246683  77.1483200  77.8002839  39.9235511
  76.4513652  76.5264414  39.4952325  80.3287509  90.4054589  41.6741530
  80.5024386  89.8401012  40.9215382  80.8216400  91.2055484  41.4921020
  86.1826900  83.1691012  43.2931829  86.6258046  82.4198337  42.8950953
  85.3053410  83.1601149  42.9105561  81.3162681  89.7221354  38.7738428
  82.0113586  90.3428046  38.9925743  81.6585832  88.8716705  39.0490806
  83.2154105  87.1721059  40.3025759  83.7405429  87.5108332  39.5775079
  83.1276457  86.2368074  40.1188893  74.8774153  91.0855133  52.4315635
  75.1861280  90.8404280  53.3038335  75.6749635  91.2901771  51.9434506
  74.8994765  93.2393042  44.6621012  74.4599756  92.7469421  45.3553869
  75.6502882  92.6966010  44.4213087  72.3468637  88.7831052  46.7343313
  71.7248647  88.1201757  46.4345541  73.0173504  88.8092183  46.0516961
  82.9048011  87.8053963  55.6076957  82.1143554  87.7878102  55.0681456
  82.6681365  88.3442256  56.3625993  83.0245886  84.6546429  52.9209685
  83.0743891  84.4896437  53.8625208  82.9159809  83.7873688  52.5307566
  71.9082144  87.3334975  40.2101774  72.0570265  88.0170439  39.5568447
  72.7148588  87.3140065  40.7251230  80.3149648  80.6377357  54.2368992
  81.2159511  80.4983822  53.9452990  80.3897623  80.8031812  55.1767169
  84.5264082  87.0743371  53.1651707  84.2348891  87.4373351  54.0015168
  83.9136214  86.3610379  52.9865039  85.7259765  84.6396250  45.6854277
  86.5606656  85.0786055  45.8491837  85.8618894  84.1634904  44.8662523
  82.7751271  82.1975985  51.6331765  83.2505392  82.3903632  50.8250616
  81.8516836  82.2535171  51.3875148  75.4077550  89.8283105  37.6813521
  74.8351517  90.4473292  37.2283993  75.9810344  90.3782467  38.2153443
  81.4752940  79.0741745  49.8660070  82.4270363  79.1739843  49.8872294
  81.3056390  78.2820014  50.3758155  78.6274810  90.1120255  38.8122104
  79.5605483  90.0465817  39.0154979  78.5398022  90.9476522  38.3536636
  81.2562826  89.4286126  35.7726051  81.1776458  89.0945989  36.6661809
  82.0772493  89.9207894  35.7717524  83.9541017  82.2947865  48.9802370
  83.9217338  81.3563866  49.1662054  84.5641641  82.3731902  48.2468195
  75.7924348  81.1643918  35.0229574  76.7383453  81.0350126  35.0917992
  75.4138593  80.4258580  35.4999002  84.1035506  79.0858909  49.0260653
  83.5874555  78.3017365  48.8390582  84.9875454  78.7577625  49.1907173
  89.7717567  83.3563872  48.1208407  90.5020956  83.0949160  48.6816110
  89.1624513  82.6192594  48.1610475  87.8532864  81.4971735  48.7182858
  87.1266028  81.3627699  48.1099350  87.4380151  81.8048563  49.5239576
  85.4710659  77.7183587  46.0716290  86.0655150  77.4779323  45.3609598
  85.5437243  76.9990717  46.6989826  67.6907815  91.5617198  46.3859454
  67.5562283  90.8017599  45.8197452  67.2739877  92.2858097  45.9188243
  78.8266778  86.7454121  35.3936030  79.5302628  86.9504124  36.0093685
  78.1029427  87.3130883  35.6585113  79.6564588  82.4963982  41.5138300
  79.5999790  82.9532534  40.6745932  80.2092931  81.7354667  41.3361143
  83.4669394  78.2853714  42.3388419  83.2106328  77.8850350  43.1696627
  82.8422262  78.9997508  42.2138558  87.7781732  81.0249788  44.8459711
  87.2181290  81.0942977  45.6191273  87.1725235  80.8490772  44.1259207
  70.8476941  92.4586515  46.5977897  70.7309325  93.4031947  46.4956587
  70.0269387  92.1560076  46.9863696  80.7353475  87.1836650  37.4434490
  81.5699079  86.7517849  37.2611964  80.5737818  87.0118664  38.3711384
  80.3899368  83.6868764  38.8090829  80.3348171  83.5213035  37.8679273
  79.7645423  84.3944797  38.9653019  77.7045275  85.9917676  58.1344392
  78.5736434  86.1658328  57.7731027  77.2252026  86.8112092  58.0120121
  71.8731455  93.1114777  49.8133825  72.7758702  93.1438387  50.1300320
  71.6468825  92.1815228  49.8280161  73.6285057  91.8645763  46.4743904
  72.6780688  91.8647625  46.3608276  73.9317543  91.1178498  45.9579939
  89.3637751  97.7006301  47.5389666  90.0016161  97.5813049  46.8353006
  89.2458593  98.6487145  47.5977619  86.1727457  97.6533730  47.4751191
  85.8345968  97.5374794  46.5871726  87.0417225  97.2524895  47.4552197
  82.0314273  99.5069206  43.4648082  81.4679138  99.4159143  42.6964370
  81.9166668  98.6869110  43.9450575  86.6547240  98.8068581  53.4337397
  86.6435881  98.4121380  52.5617900  86.8167879  98.0734654  54.0271168
  79.5778704 101.0020398  46.3032303  80.3699996 100.6611222  45.8878602
  79.8175355 101.1115373  47.2234456  87.6113831 103.1740174  38.7762547
  86.9601811 103.7594254  38.3896561  88.4058194 103.7046369  38.8357584
  81.5369458 100.2629311  39.1749681  82.3100334  99.7158298  39.0362557
  81.8894857 101.1273560  39.3864143  83.3754501 101.5905693  52.3816581
  83.0844367 102.4951324  52.2663247  84.0111485 101.6322221  53.0960650
  84.3010708  98.9682542  48.9717940  84.8974280  98.7438564  48.2574903
  84.3585679  98.2267287  49.5743388  83.8735736  96.4221977  36.8068131
  84.1261257  95.9003498  36.0451594  82.9360295  96.2588122  36.9094815
  88.9179019  95.4257755  44.6142874  89.7042108  95.0077179  44.2633291
  89.1817723  96.3303848  44.7824523  89.0889096 100.8630606  39.3131531
  88.4534929 100.9365232  40.0252436  88.7586503 101.4524204  38.6350611
  94.3187446  95.3632989  45.5175853  95.0512618  94.7932205  45.7513682
  93.5626802  94.9754589  45.9582359  83.5932025  98.3250083  39.0092506
  83.4768283  97.6494986  39.6773591  83.7034285  97.8382457  38.1924659
  85.9363566  97.7860230  42.7139195  85.5721773  97.2590851  43.4252117
  86.7930682  97.3958699  42.5405681  91.8412867  89.0754563  49.9770462
  91.5096191  89.9449974  49.7531677  91.2458480  88.7590847  50.6564492
  85.5769053  92.8150130  37.7100544  85.7443455  93.6830366  38.0771015
  85.3866222  92.9777411  36.7861833  88.3344386 101.2767109  49.3766374
  88.0345109 102.1792147  49.2682182  87.9895446 101.0099292  50.2287527
  81.7856868  97.7280905  45.4103079  80.8607364  97.5957120  45.6180771
  82.0341281  98.5075125  45.9073021  91.7341530  93.7949649  47.0563812
  90.8258407  93.7265057  46.7622573  91.6829126  94.2721594  47.8845637
  85.5558274  95.2707787  38.6947211  85.4357899  95.7164838  39.5332691
  84.8610862  95.6193105  38.1360749  79.1465679  97.3714179  46.2446868
  79.2758060  97.6248658  47.1586280  78.4663130  97.9641887  45.9251523
  83.3165166 108.0411429  42.3437342  83.2389196 108.9919254  42.4225823
  82.7126809 107.6957301  43.0012268  85.8082396  95.2139294  54.9998709
  85.0315730  95.7733215  54.9901574  86.4472959  95.6996077  55.5213579
  93.6003176  91.9966087  48.8341686  92.9577556  92.2898620  48.1881480
  93.0958105  91.8819008  49.6394882  91.2543340  95.7429260  39.5227545
  92.1661196  95.9756647  39.3475242  90.7452987  96.3266305  38.9602623
  84.0628768  98.0224748  54.5616676  84.8043452  98.5609792  54.2851500
  83.3565753  98.6491037  54.7188228  89.5384108 100.1653888  53.1588837
  89.9467464  99.7236299  52.4143470  88.8161369  99.5906516  53.4123030
  85.8915178  95.1026495  50.5322394  86.7376373  95.5265909  50.6757043
  85.8313815  94.4460119  51.2260957  89.8612922 100.7255079  46.9141126
  89.2321785 100.8900793  46.2117194  89.4738584 101.1396688  47.6852090
  93.7402154 101.6609517  44.2685490  93.0553192 102.0408418  43.7182523
  93.8246003 102.2704843  45.0017438  89.0414623  92.7630863  52.1903568
  88.7975555  93.5172924  51.6537844  89.3174553  93.1416211  53.0250815
  90.9953086  99.3069476  50.8680834  91.2069981  99.9501236  50.1915215
  90.9482834  98.4731792  50.4002764  88.5979315  91.9187296  47.7717406
  87.7363794  92.2168550  48.0634143  88.6241749  92.1357695  46.8398438
  85.4140884 100.4629487  44.1791211  85.8779230 100.7417190  43.3895834
  85.1497682  99.5612932  43.9964302  82.3064965 100.0100968  47.1170975
  82.8766322 100.4388237  46.4788459  82.8973077  99.7283553  47.8155160
  84.3509770  96.5852639  40.9880777  85.0533813  97.0373683  41.4554703
  84.0190399  95.9436458  41.6160670  82.7990132  95.1764396  55.3631986
  82.1688792  95.8580677  55.5967383  82.6926220  95.0647478  54.4185124
  78.0935104  94.8436192  46.2897910  77.3034158  95.0993721  45.8138021
  78.5846351  95.6584530  46.3949951  92.1098914 102.1841431  49.0403191
  92.9316357 101.7821618  48.7585873  92.1061317 102.0809665  49.9919307
  80.0449849  95.2080771  43.2481387  79.2481013  95.3199465  43.7664882
  79.8175442  95.5467423  42.3822277  85.8755517 101.7325474  51.1963901
  85.9399950 102.1945882  52.0322073  85.1666441 101.1022839  51.3246211
  76.3772807  95.0966682  48.7212901  76.6280846  95.9813692  48.9870477
  76.9132355  94.9171284  47.9487993 100.2004907  98.5280180  45.3888162
  99.4468615  97.9587578  45.2332167 100.3352448  98.4942844  46.3358797
  85.5903535 103.3993582  41.0642882  85.4549210 104.2445118  41.4927730
  86.1313347 103.6012860  40.3008816  82.0770874  89.4785162  57.7257237
  81.6837820  88.9251360  58.4004881  82.8937015  89.7895740  58.1163754
  79.0432932 100.9169020  41.6370807  79.5557453 101.7112270  41.7876372
  79.6955645 100.2195310  41.5704408  80.8527817 104.0334776  43.7193560
  81.0294445 104.9552741  43.5314544  81.6484650 103.7193195  44.1487940
  84.9938835  90.8943041  55.3177494  85.7348549  91.4950194  55.2381956
  85.2256758  90.1520679  54.7595536  80.1380173  96.0799408  53.5955723
  80.0233689  95.1784665  53.8962822  79.2824691  96.3263105  53.2440540
  87.2172011 104.0217148  55.1943224  86.7735865 103.2353527  54.8764128
  87.8789225 104.2096299  54.5287115  81.9759132 105.5512950  49.7203902
  82.5266557 105.4230013  48.9480896  81.1370608 105.8507839  49.3698795
  89.3153249 104.3019948  53.2224625  89.2971725 105.1228829  52.7304894
  90.2373169 104.1774024  53.4474766  85.7726303 101.8164078  54.0648133
  86.3054640 101.0552366  53.8347441  85.2440384 101.5237730  54.8072288
  88.9395998  86.9224144  49.5941775  88.5960268  87.8125786  49.5180886
  89.3074961  86.7325801  48.7311360  77.0081849  99.2457674  42.4130377
  77.8457071  99.6554683  42.1964085  77.1860117  98.3057116  42.3830571
  88.9046281  96.9132755  38.1014210  88.3892905  97.6837360  38.3402598
  88.6323590  96.2397891  38.7247272  86.4893392  91.7582456  43.1599449
  85.6334988  91.3689306  42.9805087  86.9020344  91.8374417  42.2999234
  88.0192539  89.2928799  47.5591008  87.5157334  89.2558934  46.7458814
  88.3123146  90.2021542  47.6187665  84.2635425  89.3767529  46.5657190
  85.1288421  89.1810337  46.2063080  84.3312934  89.1477880  47.4926547
  93.8780555  99.6665110  40.0367384  93.1009998  99.3276269  39.5922546
  94.5572036  99.6717733  39.3622349  88.6932584  94.7859847  39.9273991
  88.3882720  95.1005996  40.7784135  89.6463026  94.8641267  39.9701324
  87.1379016 100.9450070  41.5766945  86.6100378 100.2102830  41.2640183
  86.6366519 101.7224747  41.3306914  92.1171862  99.1399091  46.6933992
  91.4595537  99.8298352  46.7814120  92.9212261  99.5295523  47.0367978
  81.8697744  91.6069737  43.9373557  82.4441496  91.3844918  43.2046750
  82.4568726  91.6758431  44.6902158  90.9277321  97.4943464  44.7437934
  91.4409203  98.1273455  45.2459643  91.5778545  96.8944659  44.3781294
  82.1967331  93.6374198  37.9569442  81.3604643  93.9748884  38.2778717
  82.0572100  93.5023177  37.0196579  84.1720411  88.4810986  42.6648626
  83.5184824  88.1660003  42.0405241  84.1300886  87.8586726  43.3908449
  85.2831616  98.7630281  34.5801918  84.3758678  98.5319534  34.7793067
  85.7802648  97.9667900  34.7675900  88.1899695 107.4727788  37.4998605
  87.5161394 107.7759485  38.1083562  88.5765517 108.2756868  37.1504062
  87.4058152  94.9692919  46.9896274  86.4880713  95.1907866  46.8317962
  87.8218295  95.0439230  46.1307981  88.1893200  96.3684335  42.1198954
  88.9365018  96.8805732  41.8106076  88.4584789  96.0468387  42.9803348
  86.4619850  98.8642875  39.1025909  85.5531069  98.5801908  39.1998378
  86.4914934  99.2841954  38.2429215  91.6939117 102.4749465  42.8717076
  91.2401444 101.6340375  42.9282267  91.0633084 103.1110863  43.2091856
  90.6372037  93.4041451  44.1017744  89.8994793  92.8918837  44.4327986
  90.8898810  92.9641833  43.2901020  90.1372056 104.3125962  43.8066894
  90.4295031 104.8731019  43.0879260  90.6470677 104.6054523  44.5620053
  90.7383664  86.1817703  44.6959513  91.0442541  85.3215066  44.4085428
  91.4636269  86.7735323  44.4958507  77.0308020  96.5848390  43.0841111
  76.8332420  95.9917750  42.3592177  76.4754684  96.2800600  43.8017050
  85.0104744  96.4771496  45.2035704  85.0653354  95.5245332  45.1278181
  84.1995946  96.6330935  45.6877002  86.1595938 100.4051619  36.4413987
  85.7215367  99.6887478  35.9819625  86.9006378 100.6327734  35.8799079
  82.9497104  95.0948556  42.9626083  82.1364969  95.3942726  43.3691275
  83.4456098  94.7004245  43.6800565  85.1005682 105.0906313  44.8960347
  85.0581860 105.3167159  43.9668880  86.0168380 104.8569687  45.0446149
  88.5471315  95.5590380  51.7940977  88.9020703  95.7861853  52.6535442
  89.1943447  95.8908757  51.1718232  94.2769052  98.6808816  42.4990306
  94.1386951  98.8710412  41.5711495  93.9205271  99.4428199  42.9558357
  82.4411178  92.6666911  48.5787318  83.0810558  92.5255670  47.8810281
  81.6088709  92.3801425  48.2025920  94.3038432 100.7485343  47.5101577
  94.7374939 100.6560632  48.3584631  95.0170013 100.7242844  46.8721593
  83.2171482 101.9669342  44.6922310  84.0112081 101.4719662  44.4904885
  82.5063175 101.4387205  44.3290016  88.0366327 104.3487437  49.0434678
  88.0903349 104.9178374  49.8112394  87.1681108 104.5189322  48.6788715
  79.5254246  96.1112423  40.7682063  78.5951834  96.0496879  40.9852025
  79.6211718  95.5888376  39.9718704  79.4439795  92.6367236  43.3560305
  79.7046612  93.5512570  43.2469465  80.2656967  92.1691679  43.5056917
  80.9164720  94.0504994  50.5259129  81.5887774  93.8422356  49.8771778
  80.0894507  93.8527079  50.0864361  95.1653981 100.7909044  50.0434463
  95.3589872 101.6954854  50.2893738  95.0654600 100.3316463  50.8773048
  86.8190292  90.6766934  52.5424790  86.1718207  91.3756884  52.4489266
  87.5891308  91.1103078  52.9101038  90.2269090 100.9415787  55.6175343
  90.0754597 100.7126338  54.7005427  90.2173770 101.8986388  55.6306688
  86.9954427  98.5147699  50.6021610  87.9246487  98.6658859  50.4290577
  86.5745457  98.6031720  49.7470256  85.7942758 102.5398364  48.3720147
  85.6553844 102.1717148  49.2446085  85.0057355 103.0546003  48.2004105
  86.3890910 107.6407460  39.7145684  86.5642666 107.1695503  40.5291307
  85.7023698 108.2673226  39.9426945  87.3447973 101.9179966  45.7608985
  87.0097806 101.8780736  46.6566635  86.8451919 101.2524682  45.2879395
  81.3192217  97.3247596  51.2861566  81.1812015  96.5927835  51.8873105
  82.2297141  97.2356497  51.0045754  90.2807165  99.2636001  36.0346045
  89.6636336  98.5382829  35.9379097  89.8123654 100.0245361  35.6913119
  83.9474518  97.0367556  50.7745246  84.6574137  96.3960748  50.7331864
  83.9043826  97.2880451  51.6971427  91.9361297 103.9734909  53.6951825
  91.8773843 103.2894129  53.0282408  92.3380815 104.7153899  53.2432451
  82.6603452  94.0232774  52.5940885  82.1240809  93.5723512  53.2462482
  82.0720161  94.1578683  51.8511350  80.9551996 110.7896823  46.4885544
  81.1948594 111.4215347  47.1664563  80.1121192 110.4384863  46.7750903
  82.0705711  93.4821425  35.1567349  81.1935177  93.3610226  34.7929596
  82.5463464  92.6907503  34.9046238  91.9378704 101.9374493  51.9265805
  91.0505483 101.6000415  52.0492204  92.5077255 101.2057524  52.1634570
  73.5907851  98.2698585  45.2508856  74.2778891  97.9560315  44.6629871
  73.4355980  99.1739949  44.9776108  78.3942573  93.1588781  49.6793880
  78.3100762  92.5514451  48.9444290  77.5725280  93.6497800  49.6803376
  85.4679857 106.5975945  48.8927048  85.3950029 107.4030917  49.4046353
  85.0257251 106.7967911  48.0675069  85.2569637 105.8347715  42.4029870
  84.4737159 106.3769396  42.4968094  85.9562382 106.3521695  42.8024111
  88.5666287  91.6442345  45.0464075  89.0634987  90.8912307  44.7265145
  87.7953269  91.6806662  44.4807284  96.4196045  97.3482710  46.6882366
  96.4085921  98.2307426  46.3176300  95.5513424  96.9954261  46.4936903
  87.9278541 106.4962779  51.0485207  88.6406513 107.1310244  50.9761108
  87.4368570 106.5926645  50.2325208  89.6496068 100.4014032  42.6202498
  88.7152347 100.5215495  42.4507203  89.8272736  99.4986499  42.3562508
  85.1501256  93.7859728  44.7735760  84.7799043  93.2330768  45.4616665
  85.6460348  93.1817861  44.2210760  93.0368619  96.2431351  43.1552532
  93.5029071  97.0759343  43.0812835  93.4876120  95.7776333  43.8597791
  82.9790454 104.2457223  51.8690777  83.6799914 104.8793706  52.0220172
  82.5085569 104.5871954  51.1086417  91.1044850 102.5875173  40.1538685
  91.3804694 102.4731767  41.0632559  90.2349349 102.1892658  40.1150858
  91.0085282  88.6111938  47.1943434  90.0948362  88.8416165  47.3625641
  91.4378383  88.6950382  48.0457466  90.7791740  96.8001830  49.6943328
  90.1263191  97.0477738  49.0395781  91.1572120  95.9865969  49.3605805
  87.7398914 106.8361524  43.7971498  87.9221309 106.0183179  44.2599250
  88.5631900 107.0529216  43.3596388  88.0741080 105.7629709  41.0586547
  88.6028846 105.2522163  40.4456709  88.3369299 105.4472239  41.9232080
  86.8279313  97.5421641  56.1809365  86.1519951  97.4415771  56.8511740
  87.6506947  97.3860855  56.6445362  78.5758173 103.7793578  48.8021880
  79.1611609 103.0337266  48.9349784  78.3783011 104.0897535  49.6858544
  81.4296828 106.8144825  43.8184323  80.7607203 107.2990953  43.3348363
  81.2909697 107.0614046  44.7327701  73.1675827  96.3499178  47.5226323
  73.2059927  95.8162769  48.3163441  72.6616120  95.8234384  46.9037300
  85.5702096 108.8488569  50.4166981  86.1220404 109.0120190  51.1816066
  85.9108290 109.4393007  49.7447006  80.5466590  91.1963719  51.0188866
  80.6107916  92.0578550  50.6066263  80.4833710  90.5837720  50.2861224
  80.0218862  93.2686851  54.6661900  80.6490901  92.8863929  55.2799424
  79.1646781  93.0501053  55.0317592  90.4212971 103.6749826  56.2715635
  90.9652875 104.2879785  55.7770590  89.8399816 104.2329405  56.7882648
  76.7984405  95.0763280  40.5980255  77.0937846  94.1673959  40.5447308
  75.8972441  95.0551020  40.2761257  88.7070484 106.7970544  47.4030663
  88.5821623 105.9960284  46.8941609  89.3649575 107.2916738  46.9144633
  80.3278652  93.1519277  46.5807803  79.6065238  93.7655245  46.4415277
  81.1171908  93.6877042  46.5024449  90.7705392 104.5979564  49.0310213
  89.8235728 104.4784916  48.9588540  91.1188165 103.7102063  49.1136475
  83.1304965  90.4873703  52.8548455  83.6539367  90.7336000  53.6174764
  82.9117299  91.3193738  52.4351592  78.5272246  92.7577378  40.7219580
  78.1984953  91.8774757  40.5394686  78.8811617  92.7025047  41.6095969
  87.7751825 104.3932281  45.2314565  87.6276788 103.4648988  45.4122135
  88.6005319 104.4152371  44.7471641  81.6414070  93.0450348  41.0895058
  81.9810142  93.5736269  40.3673666  82.0886190  93.3830754  41.8653624
  91.3785947 105.2160839  46.3179438  92.3032495 105.0103701  46.1803889
  91.2101251 104.9677241  47.2268780  84.3357510  91.4287399  50.5398126
  83.9954331  90.6295212  50.9418805  83.6296517  91.7289109  49.9674959
  84.9873982  88.5136711  48.9925449  85.8100052  88.0397189  48.8704339
  85.2312046  89.2927195  49.4924135  83.6282217  91.5424969  39.2888350
  84.3490579  91.9206222  38.7852067  83.0047521  92.2613846  39.3923328
  87.7713340  92.2470118  40.2246683  87.9876954  93.1294756  39.9235511
  87.2907407  91.8556332  39.4952325  82.5112561  95.2055832  46.8017427
  82.3657142  95.5196135  47.6941709  82.0337765  95.8240732  46.2488326
  84.3708944  92.1958380  46.8498317  84.3570513  91.2999473  46.5130615
  85.0881372  92.2029043  47.4836603  86.2235075  92.6295720  48.8951444
  85.9652852  93.5512790  48.8935775  85.6920115  92.2326154  49.5851908
  91.1681263 105.7346507  41.6741530  91.3418141 105.1692929  40.9215382
  91.6610155 106.5347402  41.4921020  76.9858223  97.7461176  49.7405088
  76.4411691  98.5220984  49.8725363  77.8637573  98.0931980  49.5824210
  83.7745840  91.0772760  42.1185887  83.8961751  90.1489406  42.3176774
  83.4847882  91.0911446  41.2064202  86.6437030  88.7627670  45.2552607
  86.6658727  88.8267003  44.3004586  87.0605089  87.9232179  45.4493113
  97.0220655  98.4982930  43.2931829  97.4651801  97.7490255  42.8950953
  96.1447165  98.4893066  42.9105561  92.1556436 105.0513271  38.7738428
  92.8507340 105.6719964  38.9925743  92.4979586 104.2008623  39.0490806
  77.7724245  96.8731072  52.6335245  77.0305981  97.0213708  53.2199876
  77.4516989  97.1339338  51.7701995  94.0547859 102.5012977  40.3025759
  94.5799183 102.8400250  39.5775079  93.9670212 101.5659992  40.1188893
  85.7167908 106.4147050  52.4315635  86.0255034 106.1696197  53.3038335
  86.5143390 106.6193689  51.9434506  85.7388520 108.5684960  44.6621012
  85.2993510 108.0761339  45.3553869  86.4896637 108.0257928  44.4213087
  78.2180859 104.7596501  44.6645640  79.0438879 104.4600273  44.2844283
  77.8674911 103.9904123  45.1135429  83.1862392 104.1122969  46.7343313
  82.5642401 103.4493674  46.4345541  83.8567259 104.1384101  46.0516961
  76.4189464 102.6782827  45.6234573  75.5821372 102.2505002  45.4418575
  76.3913109 102.8715271  46.5605365  83.2586919  92.5904757  56.3275820
  83.3075075  93.4666880  55.9453589  83.8009434  92.0482150  55.7547463
  93.7441765 103.1345880  55.6076957  92.9537309 103.1170019  55.0681456
  93.5075120 103.6734174  56.3625993  93.8639640  99.9838347  52.9209685
  93.9137645  99.8188354  53.8625208  93.7553563  99.1165606  52.5307566
  82.7475899 102.6626893  40.2101774  82.8964019 103.3462357  39.5568447
  83.5542342 102.6431983  40.7251230  91.1543403  95.9669275  54.2368992
  92.0553265  95.8275740  53.9452990  91.2291377  96.1323730  55.1767169
  85.4886208  93.3436130  53.0822178  84.6189517  93.6369696  52.8104767
  85.7245688  93.9276575  53.8029442  95.3657837 102.4035288  53.1651707
  95.0742645 102.7665269  54.0015168  94.7529968 101.6902297  52.9865039
  96.5653519  99.9688168  45.6854277  97.4000411 100.4077972  45.8491837
  96.7012648  99.4926821  44.8662523  93.6145025  97.5267903  51.6331765
  94.0899147  97.7195549  50.8250616  92.6910591  97.5827089  51.3875148
  80.5028532  98.6892070  41.2162843  80.2574574  97.7854400  41.4143053
  80.6724446  98.6909221  40.2742321  88.1925242  89.5615747  50.5987599
  88.7107186  90.2976773  50.2734087  87.8380374  89.8679740  51.4334358
  79.7724179  94.4220428  38.7149004  79.0793424  94.4964783  38.0589040
  79.5275931  93.6580771  39.2370521  88.4437836  85.9816029  46.1188495
  88.7239590  85.3139218  46.7448922  89.2288443  86.1745125  45.6063159
  86.2471304 105.1575023  37.6813521  85.6745271 105.7765210  37.2283993
  86.8204098 105.7074385  38.2153443  92.3146694  94.4033663  49.8660070
  93.2664117  94.5031761  49.8872294  92.1450145  93.6111932  50.3758155
  90.3361074  91.4889246  50.0519471  89.7411006  91.7694259  49.3565960
  90.0510770  91.9783147  50.8236212  89.4668564 105.4412173  38.8122104
  90.3999237 105.3757735  39.0154979  89.3791777 106.2768440  38.3536636
  92.0956581 104.7578043  35.7726051  92.0170212 104.4237907  36.6661809
  92.9166248 105.2499811  35.7717524  94.7934772  97.6239783  48.9802370
  94.7611092  96.6855783  49.1662054  95.4035396  97.7023819  48.2468195
  86.6318103  96.4935836  35.0229574  87.5777208  96.3642044  35.0917992
  86.2532348  95.7550498  35.4999002  94.9429260  94.4150826  49.0260653
  94.4268309  93.6309283  48.8390582  95.8269209  94.0869543  49.1907173
  92.6039987  88.1591842  44.9856466  92.4064809  87.8506930  45.8699798
  93.2139693  88.8853481  45.1154396 100.6111322  98.6855790  48.1208407
 101.3414710  98.4241078  48.6816110 100.0018267  97.9484512  48.1610475
  98.6926619  96.8263652  48.7182858  97.9659783  96.6919617  48.1099350
  98.2773906  97.1340481  49.5239576  86.5156795 100.5453582  56.4830231
  87.4359805 100.7232181  56.6770277  86.4806378  99.6009627  56.3309930
  84.8161020  94.4185812  34.9584459  83.9092475  94.1218925  35.0347173
  85.0937001  94.1215630  34.0918745  75.7338960  95.7392176  45.4083506
  75.4141745  94.8857484  45.1157880  75.1872389  95.9540754  46.1641473
  79.5118868  98.4554617  49.1253012  79.7304878  99.3871724  49.1441046
  79.9244642  98.0962591  49.9107816  86.4323086  88.9622702  41.1128700
  85.6223814  88.6169787  41.4883947  87.1207503  88.6530246  41.7016312
  88.3613634  88.0400749  42.7352997  88.9144673  88.4596202  43.3943020
  88.5983720  87.1136497  42.7775953  84.3846733  94.0287822  58.5155761
  84.2843460  94.9782179  58.4467852  84.1668275  93.7006061  57.6431831
  83.5859805  91.2772747  35.0996438  84.4478969  91.6027646  35.3592256
  83.7710149  90.4904243  34.5869504  75.6027220  99.3595087  47.3776627
  74.9090692  98.9449040  46.8646582  76.3500211  99.4015624  46.7810046
  91.7392441  90.1501274  42.2431661  91.1591110  90.8086078  41.8609714
  91.4728374  89.3278618  41.8319079  90.1896007  89.5506332  44.4452982
  90.6895786  89.6622866  43.6367301  90.8331615  89.2467384  45.0853790
  84.2478003  97.4584961  57.3320823  83.7645085  98.2585321  57.5384712
  84.3338942  97.4692906  56.3788267  77.5163963  99.2913341  45.2542642
  77.4934651  99.3901028  44.3024525  77.8264599 100.1378492  45.5759808
  80.1751341 101.3489496  49.3689256  81.1294594 101.3173438  49.3019188
  79.9763864 100.8880120  50.1839482  80.7650723  99.9190612  51.9360054
  81.5843612 100.4134691  51.9594891  81.0387531  99.0022580  51.9077622
  90.5217319  92.3101364  41.2988010  89.6343174  92.5951015  41.0808204
  90.9371308  92.1495128  40.4515287  93.8731855  92.3347885  45.0142349
  94.6492245  92.8244338  45.2866966  93.1479989  92.7605939  45.4714218
  96.3104414  93.0475504  46.0716290  96.9048905  92.8071240  45.3609598
  96.3830998  92.3282635  46.6989826  78.5301570 106.8909115  46.3859454
  78.3956037 106.1309516  45.8197452  78.1133632 107.6150015  45.9188243
  89.6660533 102.0746039  35.3936030  90.3696383 102.2796041  36.0093685
  88.9423181 102.6422801  35.6585113  90.4958343  97.8255900  41.5138300
  90.4393544  98.2824452  40.6745932  91.0486685  97.0646585  41.3361143
  94.3063149  93.6145632  42.3388419  94.0500083  93.2142268  43.1696627
  93.6816017  94.3289426  42.2138558  98.6175487  96.3541705  44.8459711
  98.0575045  96.4234895  45.6191273  98.0118990  96.1782690  44.1259207
  81.6870695 107.7878432  46.5977897  81.5703080 108.7323865  46.4956587
  80.8663142 107.4851994  46.9863696  91.5747230 102.5128568  37.4434490
  92.4092834 102.0809767  37.2611964  91.4131573 102.3410582  38.3711384
  91.2293122  99.0160681  38.8090829  91.1741926  98.8504953  37.8679273
  90.6039177  99.7236714  38.9653019  76.0185637  94.2528746  52.6352251
  76.6644501  93.7427700  53.1239476  75.8102788  94.9897427  53.2095676
  88.5439029 101.3209593  58.1344392  89.4130189 101.4950246  57.7731027
  88.0645781 102.1404010  58.0120121  84.5389248  88.5168790  38.3876147
  84.5267917  89.4610630  38.5444418  85.4312669  88.3338936  38.0935609
  82.7125210 108.4406694  49.8133825  83.6152456 108.4730305  50.1300320
  82.4862580 107.5107145  49.8280161  84.4678812 107.1937681  46.4743904
  83.5174443 107.1939542  46.3608276  84.7711298 106.4470415  45.9579939
  88.3541367  85.1111567  42.6422084  87.5873763  84.5570054  42.7878767
  88.7652072  85.1833436  43.5036236  80.3583128  91.3996363  56.7327265
  81.2214590  91.0433168  56.9430590  79.7848539  91.0610258  57.4202670
 100.2031505 113.0298219  47.5389666 100.8409915 112.9104967  46.8353006
 100.0852348 113.9779063  47.5977619  97.0121211 112.9825647  47.4751191
  96.6739723 112.8666712  46.5871726  97.8810980 112.5816812  47.4552197
  92.8708027 114.8361124  43.4648082  92.3072892 114.7451061  42.6964370
  92.7560422 114.0161028  43.9450575  97.4940994 114.1360499  53.4337397
  97.4829635 113.7413297  52.5617900  97.6561634 113.4026572  54.0271168
  90.4172459 116.3312315  46.3032303  91.2093751 115.9903140  45.8878602
  90.6569109 116.4407290  47.2234456  92.3763213 115.5921229  39.1749681
  93.1494089 115.0450216  39.0362557  92.7288612 116.4565478  39.3864143
  94.2148255 116.9197611  52.3816581  93.9238121 117.8243242  52.2663247
  94.8505240 116.9614138  53.0960650  95.1404462 114.2974459  48.9717940
  95.7368035 114.0730482  48.2574903  95.1979434 113.5559205  49.5743388
  94.7129491 111.7513895  36.8068131  94.9655011 111.2295416  36.0451594
  93.7754050 111.5880040  36.9094815  99.7572774 110.7549673  44.6142874
 100.5435863 110.3369096  44.2633291 100.0211478 111.6595765  44.7824523
  94.4325779 113.6542001  39.0092506  94.3162038 112.9786904  39.6773591
  94.5428039 113.1674375  38.1924659  96.7757320 113.1152148  42.7139195
  96.4115528 112.5882769  43.4252117  97.6324436 112.7250617  42.5405681
 102.6806621 104.4046480  49.9770462 102.3489946 105.2741891  49.7531677
 102.0852234 104.0882764  50.6564492  96.4162807 108.1442047  37.7100544
  96.5837210 109.0122284  38.0771015  96.2259976 108.3069329  36.7861833
  92.6250622 113.0572823  45.4103079  91.7001119 112.9249037  45.6180771
  92.8735035 113.8367042  45.9073021 102.5735284 109.1241567  47.0563812
 101.6652162 109.0556975  46.7622573 102.5222880 109.6013511  47.8845637
  96.3952028 110.5999705  38.6947211  96.2751653 111.0456756  39.5332691
  95.7004617 110.9485023  38.1360749  89.9859433 112.7006097  46.2446868
  90.1151814 112.9540576  47.1586280  89.3056884 113.2933805  45.9251523
  96.6476150 110.5431212  54.9998709  95.8709484 111.1025132  54.9901574
  97.2866713 111.0287995  55.5213579 104.4396931 107.3258005  48.8341686
 103.7971311 107.6190538  48.1881480 103.9351859 107.2110925  49.6394882
 102.0937094 111.0721178  39.5227545 103.0054951 111.3048565  39.3475242
 101.5846741 111.6558222  38.9602623  94.9022522 113.3516665  54.5616676
  95.6437207 113.8901709  54.2851500  94.1959508 113.9782954  54.7188228
  96.7308932 110.4318413  50.5322394  97.5770127 110.8557826  50.6757043
  96.6707570 109.7752037  51.2260957  99.8808377 108.0922781  52.1903568
  99.6369309 108.8464842  51.6537844 100.1568308 108.4708129  53.0250815
  99.4373069 107.2479214  47.7717406  98.5757548 107.5460468  48.0634143
  99.4635504 107.4649613  46.8398438  96.2534639 115.7921405  44.1791211
  96.7172984 116.0709108  43.3895834  95.9891437 114.8904849  43.9964302
  93.1458720 115.3392886  47.1170975  93.7160077 115.7680155  46.4788459
  93.7366832 115.0575471  47.8155160  95.1903525 111.9144557  40.9880777
  95.8927568 112.3665601  41.4554703  94.8584153 111.2728376  41.6160670
  93.6383886 110.5056314  55.3631986  93.0082547 111.1872594  55.5967383
  93.5319974 110.3939395  54.4185124  88.9328859 110.1728110  46.2897910
  88.1427913 110.4285638  45.8138021  89.4240106 110.9876448  46.3949951
  90.8843604 110.5372689  43.2481387  90.0874767 110.6491383  43.7664882
  90.6569196 110.8759341  42.3822277  87.2166562 110.4258600  48.7212901
  87.4674600 111.3105610  48.9870477  87.7526110 110.2463202  47.9487993
  92.9164629 104.8077079  57.7257237  92.5231574 104.2543278  58.4004881
  93.7330769 105.1187658  58.1163754  89.8826687 116.2460938  41.6370807
  90.3951207 117.0404188  41.7876372  90.5349399 115.5487228  41.5704408
  95.8332590 106.2234959  55.3177494  96.5742303 106.8242112  55.2381956
  96.0650513 105.4812596  54.7595536  90.9773928 111.4091326  53.5955723
  90.8627443 110.5076583  53.8962822  90.1218446 111.6555023  53.2440540
  99.7789753 102.2516061  49.5941775  99.4354022 103.1417703  49.5180886
 100.1468715 102.0617719  48.7311360  87.8475603 114.5749592  42.4130377
  88.6850825 114.9846600  42.1964085  88.0253871 113.6349034  42.3830571
  99.7440036 112.2424673  38.1014210  99.2286659 113.0129277  38.3402598
  99.4717344 111.5689809  38.7247272  97.3287147 107.0874373  43.1599449
  96.4728743 106.6981224  42.9805087  97.7414098 107.1666334  42.2999234
  98.8586293 104.6220717  47.5591008  98.3551089 104.5850852  46.7458814
  99.1516900 105.5313459  47.6187665  95.1029179 104.7059446  46.5657190
  95.9682176 104.5102255  46.2063080  95.1706688 104.4769798  47.4926547
  99.5326339 110.1151765  39.9273991  99.2276474 110.4297914  40.7784135
 100.4856781 110.1933185  39.9701324  92.7091498 106.9361654  43.9373557
  93.2835250 106.7136836  43.2046750  93.2962481 107.0050349  44.6902158
  93.0361085 108.9666115  37.9569442  92.1998398 109.3040802  38.2778717
  92.8965855 108.8315095  37.0196579  95.0114166 103.8102903  42.6648626
  94.3578578 103.4951920  42.0405241  94.9694640 103.1878644  43.3908449
  96.1225371 114.0922198  34.5801918  95.2152432 113.8611452  34.7793067
  96.6196403 113.2959818  34.7675900  98.2451906 110.2984837  46.9896274
  97.3274468 110.5199784  46.8317962  98.6612050 110.3731147  46.1307981
  99.0286954 111.6976252  42.1198954  99.7758773 112.2097650  41.8106076
  99.2978544 111.3760305  42.9803348  97.3013604 114.1934793  39.1025909
  96.3924823 113.9093826  39.1998378  97.3308688 114.6133872  38.2429215
 101.4765791 108.7333369  44.1017744 100.7388548 108.2210755  44.4327986
 101.7292565 108.2933750  43.2901020 101.5777418 101.5109621  44.6959513
 101.8836295 100.6506984  44.4085428 102.3030023 102.1027241  44.4958507
  87.8701775 111.9140307  43.0841111  87.6726174 111.3209668  42.3592177
  87.3148439 111.6092517  43.8017050  95.8498498 111.8063414  45.2035704
  95.9047108 110.8537250  45.1278181  95.0389700 111.9622853  45.6877002
  93.7890858 110.4240473  42.9626083  92.9758724 110.7234644  43.3691275
  94.2849852 110.0296162  43.6800565  99.3865070 110.8882298  51.7940977
  99.7414458 111.1153771  52.6535442 100.0337201 111.2200675  51.1718232
  93.2804933 107.9958829  48.5787318  93.9204312 107.8547588  47.8810281
  92.4482463 107.7093342  48.2025920  94.0565237 117.2961259  44.6922310
  94.8505835 116.8011580  44.4904885  93.3456929 116.7679123  44.3290016
  90.3648000 111.4404341  40.7682063  89.4345588 111.3788797  40.9852025
  90.4605472 110.9180294  39.9718704  90.2833549 107.9659154  43.3560305
  90.5440367 108.8804487  43.2469465  91.1050722 107.4983597  43.5056917
  91.7558475 109.3796911  50.5259129  92.4281528 109.1714273  49.8771778
  90.9288261 109.1818997  50.0864361  97.6584047 106.0058852  52.5424790
  97.0111962 106.7048802  52.4489266  98.4285062 106.4394996  52.9101038
  97.8348181 113.8439617  50.6021610  98.7640241 113.9950777  50.4290577
  97.4139211 113.9323638  49.7470256  92.1585972 112.6539514  51.2861566
  92.0205770 111.9219753  51.8873105  93.0690895 112.5648414  51.0045754
  94.7868273 112.3659473  50.7745246  95.4967891 111.7252666  50.7331864
  94.7437581 112.6172368  51.6971427  93.4997207 109.3524691  52.5940885
  92.9634564 108.9015430  53.2462482  92.9113915 109.4870600  51.8511350
  92.9099466 108.8113343  35.1567349  92.0328932 108.6902144  34.7929596
  93.3857219 108.0199421  34.9046238  84.4301606 113.5990502  45.2508856
  85.1172645 113.2852233  44.6629871  84.2749734 114.5031867  44.9776108
  89.2336328 108.4880699  49.6793880  89.1494517 107.8806369  48.9444290
  88.4119034 108.9789717  49.6803376  99.4060042 106.9734263  45.0464075
  99.9028741 106.2204225  44.7265145  98.6347023 107.0098579  44.4807284
  95.9895010 109.1151646  44.7735760  95.6192798 108.5622686  45.4616665
  96.4854103 108.5109779  44.2210760 101.8479036 103.9403856  47.1943434
 100.9342116 104.1708083  47.3625641 102.2772138 104.0242300  48.0457466
 101.6185495 112.1293748  49.6943328 100.9656945 112.3769655  49.0395781
 101.9965875 111.3157886  49.3605805  97.6673068 112.8713559  56.1809365
  96.9913705 112.7707688  56.8511740  98.4900702 112.7152773  56.6445362
  89.4151927 119.1085496  48.8021880  90.0005364 118.3629184  48.9349784
  89.2176766 119.4189452  49.6858544  84.0069582 111.6791096  47.5226323
  84.0453681 111.1454687  48.3163441  83.5009875 111.1526301  46.9037300
  91.3860344 106.5255636  51.0188866  91.4501671 107.3870467  50.6066263
  91.3227464 105.9129638  50.2861224  90.8612617 108.5978769  54.6661900
  91.4884655 108.2155846  55.2799424  90.0040535 108.3792971  55.0317592
  87.6378159 110.4055198  40.5980255  87.9331600 109.4965876  40.5447308
  86.7366195 110.3842937  40.2761257  91.1672406 108.4811195  46.5807803
  90.4458992 109.0947162  46.4415277  91.9565662 109.0168959  46.5024449
  93.9698720 105.8165621  52.8548455  94.4933122 106.0627918  53.6174764
  93.7511053 106.6485656  52.4351592  89.3666001 108.0869296  40.7219580
  89.0378707 107.2066675  40.5394686  89.7205372 108.0316964  41.6095969
  92.4807824 108.3742265  41.0895058  92.8203897 108.9028187  40.3673666
  92.9279945 108.7122672  41.8653624  95.1751265 106.7579316  50.5398126
  94.8348085 105.9587129  50.9418805  94.4690271 107.0581027  49.9674959
  95.8267737 103.8428629  48.9925449  96.6493806 103.3689107  48.8704339
  96.0705800 104.6219112  49.4924135  94.4675971 106.8716887  39.2888350
  95.1884334 107.2498140  38.7852067  93.8441275 107.5905764  39.3923328
  98.6107094 107.5762036  40.2246683  98.8270709 108.4586674  39.9235511
  98.1301161 107.1848249  39.4952325  93.3506316 110.5347749  46.8017427
  93.2050896 110.8488052  47.6941709  92.8731519 111.1532650  46.2488326
  95.2102698 107.5250297  46.8498317  95.1964267 106.6291391  46.5130615
  95.9275127 107.5320961  47.4836603  97.0628829 107.9587637  48.8951444
  96.8046607 108.8804708  48.8935775  96.5313869 107.5618072  49.5851908
  87.8251978 113.0753094  49.7405088  87.2805446 113.8512902  49.8725363
  88.7031328 113.4223898  49.5824210  94.6139594 106.4064678  42.1185887
  94.7355506 105.4781324  42.3176774  94.3241637 106.4203363  41.2064202
  97.4830785 104.0919588  45.2552607  97.5052482 104.1558921  44.3004586
  97.8998844 103.2524097  45.4493113  88.6118000 112.2022990  52.6335245
  87.8699736 112.3505625  53.2199876  88.2910744 112.4631256  51.7701995
  89.0574613 120.0888419  44.6645640  89.8832633 119.7892191  44.2844283
  88.7068665 119.3196041  45.1135429  87.2583218 118.0074745  45.6234573
  86.4215127 117.5796919  45.4418575  87.2306864 118.2007188  46.5605365
  94.0980674 107.9196675  56.3275820  94.1468829 108.7958798  55.9453589
  94.6403188 107.3774068  55.7547463 101.9937157 111.2961193  54.2368992
 102.8947020 111.1567657  53.9452990 102.0685131 111.4615647  55.1767169
  96.3279962 108.6728047  53.0822178  95.4583272 108.9661613  52.8104767
  96.5639443 109.2568492  53.8029442  91.3422286 114.0183988  41.2162843
  91.0968328 113.1146318  41.4143053  91.5118201 114.0201138  40.2742321
  99.0318996 104.8907664  50.5987599  99.5500940 105.6268691  50.2734087
  98.6774129 105.1971658  51.4334358  90.6117934 109.7512345  38.7149004
  89.9187179 109.8256700  38.0589040  90.3669686 108.9872689  39.2370521
  99.2831590 101.3107947  46.1188495  99.5633344 100.6431136  46.7448922
 100.0682197 101.5037042  45.6063159 103.1540449 109.7325581  49.8660070
 104.1057872 109.8323678  49.8872294 102.9843899 108.9403849  50.3758155
 101.1754828 106.8181164  50.0519471 100.5804760 107.0986177  49.3565960
 100.8904525 107.3075065  50.8236212  97.4711857 111.8227753  35.0229574
  98.4170962 111.6933962  35.0917992  97.0926102 111.0842415  35.4999002
 105.7823015 109.7442744  49.0260653 105.2662064 108.9601200  48.8390582
 106.6662963 109.4161460  49.1907173 103.4433742 103.4883759  44.9856466
 103.2458563 103.1798848  45.8699798 104.0533447 104.2145398  45.1154396
  95.6554774 109.7477730  34.9584459  94.7486230 109.4510843  35.0347173
  95.9330755 109.4507548  34.0918745  86.5732715 111.0684093  45.4083506
  86.2535499 110.2149401  45.1157880  86.0266143 111.2832671  46.1641473
  90.3512622 113.7846534  49.1253012  90.5698632 114.7163642  49.1441046
  90.7638396 113.4254509  49.9107816  97.2716840 104.2914620  41.1128700
  96.4617569 103.9461704  41.4883947  97.9601257 103.9822163  41.7016312
  99.2007388 103.3692666  42.7352997  99.7538427 103.7888120  43.3943020
  99.4377475 102.4428414  42.7775953  95.2240488 109.3579740  58.5155761
  95.1237215 110.3074097  58.4467852  95.0062030 109.0297979  57.6431831
  94.4253559 106.6064665  35.0996438  95.2872723 106.9319563  35.3592256
  94.6103903 105.8196161  34.5869504  86.4420975 114.6887005  47.3776627
  85.7484446 114.2740957  46.8646582  87.1893966 114.7307541  46.7810046
 102.5786196 105.4793191  42.2431661 101.9984865 106.1377996  41.8609714
 102.3122128 104.6570536  41.8319079 101.0289762 104.8798249  44.4452982
 101.5289540 104.9914784  43.6367301 101.6725370 104.5759302  45.0853790
  95.0871758 112.7876879  57.3320823  94.6038839 113.5877239  57.5384712
  95.1732697 112.7984824  56.3788267  88.3557717 114.6205258  45.2542642
  88.3328405 114.7192946  44.3024525  88.6658354 115.4670409  45.5759808
  91.0145095 116.6781413  49.3689256  91.9688349 116.6465356  49.3019188
  90.8157619 116.2172037  50.1839482  91.6044477 115.2482530  51.9360054
  92.4237366 115.7426608  51.9594891  91.8781285 114.3314498  51.9077622
 101.3611074 107.6393282  41.2988010 100.4736929 107.9242932  41.0808204
 101.7765063 107.4787045  40.4515287 104.7125610 107.6639803  45.0142349
 105.4886000 108.1536255  45.2866966 103.9873744 108.0897857  45.4714218
 107.1498168 108.3767422  46.0716290 107.7442659 108.1363158  45.3609598
 107.2224752 107.6574553  46.6989826 105.1456903 108.9437550  42.3388419
 104.8893837 108.5434185  43.1696627 104.5209771 109.6581344  42.2138558
  86.8579392 109.5820663  52.6352251  87.5038255 109.0719617  53.1239476
  86.6496543 110.3189345  53.2095676  95.3783002 103.8460708  38.3876147
  95.3661672 104.7902548  38.5444418  96.2706424 103.6630853  38.0935609
  99.1935122 100.4403485  42.6422084  98.4267517  99.8861971  42.7878767
  99.6045827 100.5125353  43.5036236  91.1976883 106.7288280  56.7327265
  92.0608344 106.3725085  56.9430590  90.6242293 106.3902175  57.4202670
  35.1668979  -1.9391164  34.2634973  35.8047389  -2.0584417  33.5598313
  35.0489822  -0.9910320  34.3222925  32.4578469  -0.8328884  40.1582703
  32.4467109  -1.2276086  39.2863207  32.6199108  -1.5662812  40.7516475
  29.1785730   1.9508227  39.1061887  28.8875596   2.8553858  38.9908554
  29.8142714   1.9924755  39.8205957  30.1041937  -0.6714924  35.6963247
  30.7005509  -0.8958902  34.9820210  30.1616908  -1.4130179  36.2988695
  40.1218675  -4.2764477  32.2421160  40.8543847  -4.8465260  32.4758989
  39.3658031  -4.6642877  32.6827665  34.1375615   1.6369643  36.1011681
  33.8376338   2.5394682  35.9927488  33.7926674   1.3701826  36.9532834
  29.1196395   8.4013963  29.0682649  29.0420424   9.3521788  29.1471129
  28.5158038   8.0559836  29.7257575  39.4034405  -7.6431379  35.5586992
  38.7608785  -7.3498845  34.9126787  38.8989334  -7.7578458  36.3640189
  29.8659997  -1.6172718  41.2861983  30.6074681  -1.0787674  41.0096806
  29.1596982  -0.9906429  41.4433534  35.3415336   0.5256422  39.8834144
  35.7498692   0.0838833  39.1388776  34.6192598  -0.0490950  40.1368337
  35.6644151   1.0857613  33.6386433  35.0353013   1.2503327  32.9362501
  35.2769813   1.4999223  34.4097397  39.5433383   2.0212051  30.9930797
  38.8584421   2.4010952  30.4427830  39.6277232   2.6307378  31.7262744
  36.7984315  -0.3327990  37.5926140  37.0101210   0.3103770  36.9160521
  36.7514063  -1.1665673  37.1248070  37.9130142   2.5443965  35.7648498
  38.7347586   2.1424153  35.4831179  37.9092545   2.4412200  36.7164613
  31.6786746   2.0928009  37.9209208  31.7431178   2.5548416  38.7567380
  30.9697670   1.4625374  38.0491518  46.0036136  -1.1117286  32.1133469
  45.2499844  -1.6809888  31.9577473  46.1383677  -1.1454622  33.0604104
  33.0203240   4.3819683  41.9188530  32.5767094   3.5956061  41.6009435
  33.6820454   4.5698833  41.2532421  27.7790361   5.9115484  36.4449209
  28.3297786   5.7832548  35.6726203  26.9401837   6.2110373  36.0944102
  35.1184478   4.6622483  39.9469932  35.1002953   5.4831364  39.4550201
  36.0404398   4.5376558  40.1720073  31.5757532   2.1766612  40.7893440
  32.1085869   1.4154900  40.5592748  31.0471613   1.8840264  41.5317595
  37.9203091  -0.4998375  33.4179298  37.2626765   0.1900886  33.5059427
  38.7243490  -0.1101943  33.7613285  37.4970346   2.8351999  29.5962383
  37.0432673   1.9942909  29.6527573  36.8664313   3.4713398  29.9337163
  35.9403285   4.6728496  30.5312201  36.2326260   5.2333553  29.8124567
  36.4501906   4.9657057  31.2865360  30.9036910   5.4508847  31.6205654
  30.8613089   5.6769693  30.6914186  31.8199609   5.2172222  31.7691455
  34.3502544  -4.0807085  38.5186283  34.7051932  -3.8535612  39.3780749
  34.9974675  -3.7488709  37.8963539  40.1069661   1.1087877  34.2346884
  40.5406167   1.0163166  35.0829938  40.8201241   1.0845378  33.5966900
  33.8397556   4.7089972  35.7679984  33.8934578   5.2780908  36.5357700
  32.9712337   4.8791857  35.4034022  40.9685210   1.1511578  36.7679769
  41.1621100   2.0557389  37.0139044  40.8685828   0.6918997  37.6018354
  36.0300319   1.3018321  42.3420650  35.8785825   1.0728872  41.4250734
  36.0204998   2.2588922  42.3551995  32.7985655  -1.1249766  37.3266916
  33.7277715  -0.9738607  37.1535884  32.3776685  -1.0365746  36.4715563
  31.5973987   2.9000898  35.0965454  31.4585073   2.5319682  35.9691392
  30.8088583   3.4148537  34.9249412  33.1479202   2.2782501  32.4854292
  32.8129035   2.2383271  33.3811942  32.6483148   1.6127217  32.0124702
  29.7505747  -2.6029910  37.4990553  30.4605365  -3.2436718  37.4577171
  29.7075055  -2.3517015  38.4216733  37.7392526   4.3337443  40.4197132
  37.6805072   3.6496663  39.7527715  38.1412044   5.0756433  39.9677758
  26.7583224  11.1499357  33.2130851  26.9979823  11.7817881  33.8909869
  25.9152421  10.7987397  33.4996210  37.7409933   2.2977027  38.6511111
  36.8536712   1.9602949  38.7737510  38.3108484   1.5660059  38.8879877
  31.2711086   6.9578480  35.6172355  31.1981258   7.7633451  36.1291659
  30.8288479   7.1570445  34.7920376  42.2227273  -2.2914755  33.4127673
  42.2117150  -1.4090040  33.0421606  41.3544653  -2.6443205  33.2182210
  33.7309770   6.8565314  37.7730513  34.4437742   7.4912778  37.7006415
  33.2399798   6.9529180  36.9570515  28.7821683   4.6059757  38.5936084
  29.4831143   5.2396240  38.7465478  28.3116798   4.9474489  37.8331723
  36.5822969  -2.8395635  36.4188634  35.9294420  -2.5919728  35.7641087
  36.9603349  -3.6531497  36.0851112  33.5430143   7.1964058  30.5216805
  33.7252538   6.3785714  30.9844557  34.3663129   7.4131750  30.0841695
  32.6310542  -2.0975824  42.9054672  31.9551179  -2.1981695  43.5757047
  33.4538176  -2.2536611  43.3690669  24.3789401   4.1396112  35.5267187
  24.9642838   3.3939800  35.6595091  24.1814240   4.4500069  36.4103851
  31.3733325   9.2091103  37.1412288  31.9251633   9.3722725  37.9061373
  31.7139519   9.7995541  36.4692312  36.2244200   4.0352361  42.9960942
  36.7684103   4.6482319  42.5015897  35.6431044   4.5931939  43.5127955
  34.5101712   7.1573079  34.1275970  34.3852852   6.3562818  33.6186915
  35.1680804   7.6519272  33.6389940  36.5736621   4.9582099  35.7555520
  35.6266956   4.8387450  35.6833847  36.9219394   4.0704597  35.8381781
  33.5783054   4.7534815  31.9559872  33.4308017   3.8251522  32.1367442
  34.4036548   4.7754906  31.4716947  37.1817176   5.5763374  33.0424745
  38.1063723   5.3706235  32.9049196  37.0132479   5.3279775  33.9514086
  36.9712492   6.0949041  28.3986836  37.1449370   5.5295464  27.6460689
  37.4641383   6.8949936  28.2166326  42.8251883  -1.1414536  30.0177136
  43.2683029  -1.8907211  29.6196259  41.9478394  -1.1504400  29.6350868
  31.5199136   6.7749585  39.1560942  31.8286263   6.5298731  40.0283641
  32.3174619   6.9796223  38.6679812  31.5419749   8.9287494  31.3866318
  31.1024739   8.4363873  32.0799175  32.2927866   8.3860462  31.1458394
  28.9893621   4.4725503  33.4588620  28.3673630   3.8096208  33.1590848
  29.6598488   4.4986635  32.7762268  39.5472994   3.4948415  42.3322263
  38.7568538   3.4772554  41.7926763  39.3106348   4.0336708  43.0871300
  39.6670869   0.3440881  39.6454992  39.7168874   0.1790888  40.5870515
  39.5584792  -0.5231860  39.2552873  36.9574631  -3.6728191  40.9614298
  37.8584494  -3.8121726  40.6698296  37.0322606  -3.5073736  41.9012476
  41.1689066   2.7637823  39.8897013  40.8773874   3.1267803  40.7260474
  40.5561197   2.0504831  39.7110345  42.3684748   0.3290702  32.4099584
  43.2031639   0.7680506  32.5737144  42.5043877  -0.1470644  31.5907829
  39.4176254  -2.1129563  38.3577071  39.8930376  -1.9201916  37.5495923
  38.4941819  -2.0570377  38.1120455  38.1177923  -5.2363803  36.5905377
  39.0695346  -5.1365705  36.6117601  37.9481373  -6.0285534  37.1003461
  40.5966001  -2.0157683  35.7047677  40.5642321  -2.9541682  35.8907360
  41.2066624  -1.9373646  34.9713501  40.7460489  -5.2246640  35.7505960
  40.2299538  -6.0088183  35.5635889  41.6300438  -5.5527923  35.9152479
  46.4142551  -0.9541676  34.8453713  47.1445939  -1.2156388  35.4061417
  45.8049496  -1.6912954  34.8855781  44.4957848  -2.8133814  35.4428165
  43.7691011  -2.9477849  34.8344656  44.0805135  -2.5056985  36.2484883
  32.3188024   0.9056116  43.2075538  33.2391034   1.0834715  43.4015584
  32.2837607  -0.0387839  43.0555237  30.0509232  -2.1812505  44.0566129
  29.5676314  -1.3812145  44.2630018  30.1370171  -2.1704560  43.1033573
  25.9782570   1.7092030  36.0934563  26.9325823   1.6775972  36.0264495
  25.7795093   1.2482654  36.9084789  26.5681952   0.2793146  38.6605361
  27.3874841   0.7737225  38.6840198  26.8418759  -0.6374886  38.6322928
  24.3332798   7.2511650  33.1104761  24.1987266   6.4912050  32.5442759
  23.9164861   7.9752549  32.6433550  44.4206715  -3.2855761  31.5705017
  43.8606273  -3.2162571  32.3436579  43.8150219  -3.4614776  30.8504514
  27.4901924   8.1480967  33.3223204  27.3734308   9.0926399  33.2201894
  26.6694371   7.8454528  33.7109003  34.3470258   1.6812127  44.8589698
  35.2161418   1.8552780  44.4976333  33.8677010   2.5006544  44.7365428
  28.5156438   8.8009228  36.5379132  29.4183685   8.8332839  36.8545627
  28.2893808   7.8709679  36.5525468  30.2710040   7.5540215  33.1989211
  29.3205671   7.5542077  33.0853583  30.5742527   6.8072950  32.6825245
  46.0062734  13.3900753  34.2634973  46.6441144  13.2707501  33.5598313
  45.8883577  14.3381597  34.3222925  42.8152440  13.3428181  34.1996498
  42.4770952  13.2269246  33.3117033  43.6842208  12.9419347  34.1797504
  38.6739256  15.1963658  30.1893389  38.1104121  15.1053595  29.4209676
  38.5591651  14.3763562  30.6695881  43.2972223  14.4963033  40.1582703
  43.2860864  14.1015831  39.2863207  43.4592863  13.7629106  40.7516475
  36.2203688  16.6914849  33.0277609  37.0124980  16.3505674  32.6123908
  36.4600338  16.8009825  33.9479762  44.2538815  18.8634626  25.5007854
  43.6026794  19.4488706  25.1141867  45.0483177  19.3940821  25.5602891
  38.1794442  15.9523763  25.8994988  38.9525318  15.4052750  25.7607864
  38.5319841  16.8168012  26.1109449  40.0179484  17.2800145  39.1061887
  39.7269350  18.1845776  38.9908554  40.6536469  17.3216673  39.8205957
  40.9435691  14.6576994  35.6963247  41.5399263  14.4333016  34.9820210
  41.0010663  13.9161739  36.2988695  40.5160720  12.1116429  23.5313438
  40.7686240  11.5897950  22.7696901  39.5785279  11.9482574  23.6340121
  45.5604002  11.1152207  31.3388181  46.3467092  10.6971630  30.9878598
  45.8242707  12.0198299  31.5069829  45.7314080  16.5525058  26.0376838
  45.0959913  16.6259684  26.7497743  45.4011486  17.1418656  25.3595917
  50.9612429  11.0527440  32.2421160  51.6937601  10.4826657  32.4758989
  50.2051785  10.6649041  32.6827665  40.2357008  14.0144535  25.7337813
  40.1193266  13.3389438  26.4018897  40.3459268  13.5276909  24.9169966
  42.5788549  13.4754682  29.4384502  42.2146756  12.9485303  30.1497424
  43.4355665  13.0853151  29.2650987  48.4837850   4.7649015  36.7015768
  48.1521175   5.6344425  36.4776983  47.8883463   4.4485299  37.3809799
  44.9769369  16.9661561  36.1011681  44.6770092  17.8686599  35.9927488
  44.6320429  16.6993744  36.9532834  38.4281851  13.4175357  32.1348385
  37.5032347  13.2851571  32.3426077  38.6766264  14.1969577  32.6318328
  48.3766513   9.4844101  33.7809118  47.4683390   9.4159509  33.4867879
  48.3254109   9.9616046  34.6090944  42.1983257  10.9602239  25.4192517
  42.0782882  11.4059290  26.2577998  41.5035845  11.3087557  24.8606056
  35.7890662  13.0608631  32.9692174  35.9183043  13.3143110  33.8831586
  35.1088113  13.6536339  32.6496830  39.9590149  23.7305881  29.0682649
  39.8814179  24.6813706  29.1471129  39.3551793  23.3851753  29.7257575
  42.4507379  10.9033746  41.7244016  41.6740713  11.4627666  41.7146880
  43.0897942  11.3890529  42.2458886  50.2428160   7.6860539  35.5586992
  49.6002540   7.9793072  34.9126787  49.7383088   7.5713459  36.3640189
  47.8968323  11.4323712  26.2472851  48.8086179  11.6651099  26.0720549
  47.3877970  12.0160757  25.6847930  40.7053751  13.7119200  41.2861983
  41.4468436  14.2504244  41.0096806  39.9990737  14.3385488  41.4433534
  46.1809091  15.8548340  39.8834144  46.5892447  15.4130751  39.1388776
  45.4586352  15.2800968  40.1368337  42.5340161  10.7920947  37.2567701
  43.3801356  11.2160360  37.4002350  42.4738799  10.1354571  37.9506264
  46.5037906  16.4149531  33.6386433  45.8746768  16.5795245  32.9362501
  46.1163568  16.8291140  34.4097397  50.3827137  17.3503969  30.9930797
  49.6978176  17.7302870  30.4427830  50.4670987  17.9599295  31.7262744
  45.6839606   8.4525315  38.9148875  45.4400538   9.2067376  38.3783150
  45.9599537   8.8310663  39.7496122  47.6378069  14.9963928  37.5926140
  47.8494964  15.6395688  36.9160521  47.5907817  14.1626244  37.1248070
  45.2404298   7.6081748  34.4962712  44.3788777   7.9063002  34.7879450
  45.2666733   7.8252147  33.5643745  42.0565867  16.1523939  30.9036518
  42.5204213  16.4311642  30.1141141  41.7922666  15.2507383  30.7209609
  38.9489948  15.6995420  33.8416281  39.5191306  16.1282689  33.2033766
  39.5398060  15.4178005  34.5400467  40.9934753  12.2747091  27.7126083
  41.6958797  12.7268135  28.1800010  40.6615382  11.6330910  28.3405976
  39.4415115  10.8658848  42.0877293  38.8113776  11.5475129  42.3212689
  39.3351203  10.7541929  41.1430431  34.7360087  10.5330644  33.0143217
  33.9459141  10.7888172  32.5383327  35.2271335  11.3478982  33.1195257
  48.7523897  17.8735883  35.7648498  49.5741341  17.4716070  35.4831179
  48.7486300  17.7704117  36.7164613  36.6874833  10.8975223  29.9726693
  35.8905996  11.0093917  30.4910189  36.4600425  11.2361875  29.1067584
  42.5180500  17.4219926  37.9209208  42.5824933  17.8840334  38.7567380
  41.8091424  16.7917291  38.0491518  33.0197790  10.7861134  35.4458208
  33.2705829  11.6708144  35.7115783  33.5557339  10.6065736  34.6733299
  56.8429890  14.2174632  32.1133469  56.0893598  13.6482030  31.9577473
  56.9777431  14.1837296  33.0604104  42.2328518  19.0888034  27.7888188
  42.0974193  19.9339570  28.2173036  42.7738331  19.2907311  27.0254122
  38.7195858   5.1679614  44.4502544  38.3262803   4.6145812  45.1250188
  39.5361998   5.4790192  44.8409061  35.6857915  16.6063472  28.3616113
  36.1982436  17.4006722  28.5121678  36.3380628  15.9089762  28.2949715
  37.4952800  19.7229228  30.4438867  37.6719429  20.6447193  30.2559851
  38.2909634  19.4087647  30.8733246  41.6363819   6.5837493  42.0422800
  42.3773532   7.1844646  41.9627263  41.8681742   5.8415131  41.4840843
  36.7805157  11.7693860  40.3201030  36.6658672  10.8679117  40.6208129
  35.9249674  12.0157557  39.9685846  43.8596994  19.7111600  41.9188530
  43.4160849  18.9247979  41.6009435  44.5214208  19.8990751  41.2532421
  38.6184116  21.2407402  36.4449209  39.1691541  21.1124465  35.6726203
  37.7795592  21.5402291  36.0944102  45.9578233  19.9914400  39.9469932
  45.9396708  20.8123281  39.4550201  46.8798153  19.8668475  40.1720073
  42.4151287  17.5058530  40.7893440  42.9479623  16.7446818  40.5592748
  41.8865368  17.2132182  41.5317595  45.5820982   2.6118596  36.3187082
  45.2385251   3.5020237  36.2426192  45.9499944   2.4220253  35.4556667
  33.6506832  14.9352126  29.1375684  34.4882054  15.3449135  28.9209392
  33.8285100  13.9951568  29.1075878  45.5471264  12.6027207  24.8259517
  45.0317888  13.3731811  25.0647904  45.2748573  11.9292343  25.4492578
  43.1318375   7.4476908  29.8844755  42.2759972   7.0583758  29.7050394
  43.5445327   7.5268868  29.0244541  44.6617522   4.9823251  34.2836315
  44.1582318   4.9453386  33.4704120  44.9548129   5.8915994  34.3432972
  40.9060408   5.0661981  33.2902497  41.7713405   4.8704789  32.9308386
  40.9737917   4.8372332  34.2171854  50.5205538  15.3559561  26.7612690
  49.7434981  15.0170721  26.3167853  51.1997019  15.3612185  26.0867655
  45.3357568  10.4754299  26.6519298  45.0307703  10.7900448  27.5029441
  46.2888010  10.5535719  26.6946631  43.7803999  16.6344522  28.3012252
  43.2525361  15.8997282  27.9885490  43.2791502  17.4119199  28.0552220
  48.7596845  14.8293543  33.4179298  48.1020520  15.5192804  33.5059427
  49.5637245  15.2189975  33.7613285  38.5122727   7.2964189  30.6618864
  39.0866479   7.0739370  29.9292057  39.0993709   7.3652883  31.4147465
  47.5702304  13.1837915  31.4683240  48.0834186  13.8167907  31.9704950
  48.2203528  12.5839111  31.1026600  40.8145395   4.1705437  29.3893933
  40.1609807   3.8554455  28.7650548  40.7725869   3.5481178  30.1153756
  41.9256600  14.4524732  21.3047225  41.0183661  14.2213986  21.5038374
  42.4227632  13.6562352  21.4921207  44.8324678  23.1622240  24.2243911
  44.1586377  23.4653936  24.8328869  45.2190500  23.9651320  23.8749368
  44.0483135  10.6587371  33.7141581  43.1305696  10.8802318  33.5563269
  44.4643279  10.7333681  32.8553288  44.8318183  12.0578787  28.8444261
  45.5790002  12.5700184  28.5351383  45.1009772  11.7362839  29.7048655
  43.1044833  14.5537327  25.8271215  42.1956052  14.2696360  25.9243685
  43.1339917  14.9736406  24.9674522  48.3364100  18.1643917  29.5962383
  47.8826428  17.3234827  29.6527573  47.7058067  18.8005315  29.9337163
  47.2797020   9.0935903  30.8263050  46.5419777   8.5813289  31.1573293
  47.5323794   8.6536284  30.0146327  46.7797040  20.0020414  30.5312201
  47.0720014  20.5625471  29.8124567  47.2895660  20.2948975  31.2865360
  47.3808647   1.8712155  31.4204820  47.6867524   1.0109518  31.1330735
  48.1061252   2.4629775  31.2203813  33.6733003  12.2742841  29.8086417
  33.4757403  11.6812202  29.0837484  33.1179667  11.9695052  30.5262356
  41.6529727  12.1665948  31.9281011  41.7078337  11.2139784  31.8523487
  40.8420929  12.3225387  32.4122309  42.8020921  16.0946071  23.1659294
  42.3640351  15.3781930  22.7064931  43.5431362  16.3222186  22.6044385
  39.5922087  10.7843008  29.6871389  38.7789953  11.0837178  30.0936582
  40.0881081  10.3898696  30.4045872  41.7430665  20.7800765  31.6205654
  41.7006844  21.0061611  30.6914186  42.6593364  20.5464139  31.7691455
  45.1896299  11.2484832  38.5186283  45.5445686  11.4756305  39.3780749
  45.8368430  11.5803209  37.8963539  50.9194036  14.3703268  29.2235612
  50.7811934  14.5604864  28.2956802  50.5630254  15.1322651  29.6803664
  39.0836162   8.3561363  35.3032624  39.7235541   8.2150122  34.6055588
  38.2513692   8.0695877  34.9271226  50.9463415  16.4379795  34.2346884
  51.3799922  16.3455084  35.0829938  51.6594996  16.4137296  33.5966900
  39.8596466  17.6563794  31.4167617  40.6537064  17.1614114  31.2150192
  39.1488158  17.1281657  31.0535322  44.6791310  20.0381889  35.7679984
  44.7328332  20.6072826  36.5357700  43.8106091  20.2083774  35.4034022
  36.1679229  11.8006875  27.4927370  35.2376817  11.7391331  27.7097332
  36.2636701  11.2782828  26.6964011  36.0864778   8.3261688  30.0805611
  36.3471595   9.2407021  29.9714772  36.9081950   7.8586131  30.2302224
  37.5589703   9.7399445  37.2504436  38.2312757   9.5316808  36.6017085
  36.7319490   9.5421531  36.8109668  51.8078965  16.4803496  36.7679769
  52.0014855  17.3849306  37.0139044  51.7079583  16.0210915  37.6018354
  43.4615275   6.3661386  39.2670097  42.8143191   7.0651336  39.1734573
  44.2316291   6.7997530  39.6346345  46.8694073  16.6310238  42.3420650
  46.7179580  16.4020790  41.4250734  46.8598753  17.5880840  42.3551995
  43.6379410  14.2042151  37.3266916  44.5671470  14.3553311  37.1535884
  43.2170440  14.2926172  36.4715563  42.4367742  18.2292816  35.0965454
  42.2978827  17.8611600  35.9691392  41.6482338  18.7440455  34.9249412
  43.0315894  23.3301912  26.4390990  43.2067649  22.8589955  27.2536613
  42.3448682  23.9567678  26.6672251  43.9872957  17.6074418  32.4854292
  43.6522789  17.5675188  33.3811942  43.4876902  16.9419134  32.0124702
  37.9617201  13.0142048  38.0106873  37.8236999  12.2822287  38.6118412
  38.8722124  12.9250948  37.7291061  46.9232148  14.9530453  22.7591351
  46.3061319  14.2277281  22.6624404  46.4548637  15.7139813  22.4158426
  40.5899501  12.7262008  37.4990553  41.2999120  12.0855200  37.4577171
  40.5468810  12.9774903  38.4216733  48.5786280  19.6629361  40.4197132
  48.5198826  18.9788581  39.7527715  48.9805798  20.4048351  39.9677758
  39.3028435   9.7127226  39.3186192  38.7665792   9.2617964  39.9707788
  38.7145144   9.8473134  38.5756656  37.5976979  26.4791275  33.2130851
  37.8373577  27.1109799  33.8909869  36.7546175  26.1279315  33.4996210
  48.5803687  17.6268945  38.6511111  47.6930466  17.2894867  38.7737510
  49.1502238  16.8951976  38.8879877  30.2332834  13.9593037  31.9754163
  30.9203874  13.6454767  31.3875178  30.0780963  14.8634401  31.7021414
  35.0367557   8.8483233  36.4039187  34.9525745   8.2408903  35.6689596
  34.2150263   9.3392252  36.4048683  42.1104841  22.2870397  35.6172355
  42.0375012  23.0925369  36.1291659  41.6682234  22.4862363  34.7920376
  41.8994620  21.5242167  29.1275176  41.1162142  22.0663848  29.2213401
  42.5987366  22.0416147  29.5269417  45.2091270   7.3336797  31.7709382
  45.7059970   6.5806759  31.4510452  44.4378252   7.3701113  31.2052591
  53.0621028  13.0377162  33.4127673  53.0510904  13.9201878  33.0421606
  52.1938407  12.6848713  33.2182210  44.5703524  22.1857231  37.7730513
  45.2831496  22.8204696  37.7006415  44.0793553  22.2821097  36.9570515
  46.2921051  16.0908484  29.3447805  45.3577330  16.2109946  29.1752509
  46.4697720  15.1880951  29.0807815  41.7926239   9.4754180  31.4981066
  41.4224027   8.9225220  32.1861972  42.2885332   8.8712313  30.9456066
  49.6793603  11.9325803  29.8797839  50.1454055  12.7653795  29.8058142
  50.1301103  11.4670785  30.5843098  39.6215438  19.9351675  38.5936084
  40.3224897  20.5688158  38.7465478  39.1510553  20.2766406  37.8331723
  47.7469834  18.2769625  26.8783991  48.0229678  18.1626219  27.7877865
  46.8774332  17.8787109  26.8396164  47.6510265   4.3006390  33.9188740
  46.7373345   4.5310617  34.0870947  48.0803367   4.3844834  34.7702773
  47.4216724  12.4896282  36.4188634  46.7688174  12.7372190  35.7641087
  47.7997104  11.6760420  36.0851112  44.3823898  22.5255975  30.5216805
  44.5646292  21.7077631  30.9844557  45.2056884  22.7423668  30.0841695
  44.7166063  21.4524161  27.7831853  45.2453830  20.9416615  27.1702015
  44.9794283  21.1366691  28.6477386  43.4704297  13.2316093  42.9054672
  42.7944934  13.1310223  43.5757047  44.2931931  13.0755307  43.3690669
  35.2183156  19.4688030  35.5267187  35.8036593  18.7231718  35.6595091
  35.0207994  19.7791987  36.4103851  38.0721811  22.5039277  30.5429629
  37.4032186  22.9885405  30.0593669  37.9334681  22.7508498  31.4573008
  29.8100811  12.0393630  34.2471630  29.8484910  11.5057221  35.0408748
  29.3041103  11.5128836  33.6282607  42.2127080  24.5383021  37.1412288
  42.7645388  24.7014642  37.9061373  42.5533273  25.1287459  36.4692312
  37.1891573   6.8858171  37.7434172  37.2532899   7.7473001  37.3311570
  37.1258693   6.2732172  37.0106531  36.6643845   8.9581303  41.3907207
  37.2915884   8.5758380  42.0044731  35.8071764   8.7395505  41.7562899
  47.0637954  19.3644278  42.9960942  47.6077858  19.9774237  42.5015897
  46.4824799  19.9223857  43.5127955  33.4409388  10.7657732  27.3225561
  33.7362829   9.8568411  27.2692615  32.5397424  10.7445472  27.0006564
  45.3495467  22.4864996  34.1275970  45.2246606  21.6854736  33.6186915
  46.0074558  22.9811190  33.6389940  36.9703635   8.8413729  33.3053110
  36.2490221   9.4549697  33.1660583  37.7596891   9.3771494  33.2269756
  47.4130375  20.2874016  35.7555520  46.4660711  20.1679368  35.6833847
  47.7613148  19.3996514  35.8381781  39.7729949   6.1768155  39.5793762
  40.2964351   6.4230452  40.3420071  39.5542282   7.0088190  39.1596899
  35.1697230   8.4471830  27.4464886  34.8409936   7.5669209  27.2639992
  35.5236600   8.3919499  28.3341276  44.4176809  20.0826733  31.9559872
  44.2701771  19.1543440  32.1367442  45.2430302  20.1046823  31.4716947
  38.2839053   8.7344800  27.8140364  38.6235125   9.2630721  27.0918973
  38.7311173   9.0725206  28.5898931  48.0210930  20.9055291  33.0424745
  48.9457478  20.6998153  32.9049196  47.8526234  20.6571692  33.9514086
  40.9782494   7.1181850  37.2643432  40.6379314   6.3189663  37.6664112
  40.2721500   7.4183561  36.6920265  41.6298966   4.2031163  35.7170755
  42.4525035   3.7291641  35.5949646  41.8737029   4.9821647  36.2169442
  40.2707200   7.2319421  26.0133657  40.9915563   7.6100674  25.5097374
  39.6472504   7.9508298  26.1168635  44.4138323   7.9364570  26.9491989
  44.6301937   8.8189208  26.6480817  43.9332390   7.5450784  26.2197631
  39.1537544  10.8950283  33.5262734  39.0082125  11.2090587  34.4187015
  38.6762748  11.5135184  32.9733632  41.0133927   7.8852831  33.5743623
  40.9995496   6.9893925  33.2375921  41.7306355   7.8923495  34.2081909
  42.8660058   8.3190172  35.6196751  42.6077836   9.2407242  35.6181081
  42.3345098   7.9220606  36.3097215  47.8106247  21.4240959  28.3986836
  47.9843124  20.8587381  27.6460689  48.3035138  22.2241854  28.2166326
  33.6283206  13.4355628  36.4650395  33.0836675  14.2115436  36.5970669
  34.5062556  13.7826432  36.3069516  40.4170823   6.7667212  28.8431194
  40.5386734   5.8383858  29.0422081  40.1272866   6.7805898  27.9309509
  43.2862014   4.4522122  31.9797913  43.3083710   4.5161455  31.0249893
  43.7030073   3.6126631  32.1738420  53.6645638  14.1877382  30.0177136
  54.1076784  13.4384707  29.6196259  52.7872148  14.1787518  29.6350868
  48.7981419  20.7407723  25.4983735  49.4932324  21.3614416  25.7171049
  49.1404569  19.8903074  25.7736112  34.4149228  12.5625524  39.3580552
  33.6730964  12.7108159  39.9445182  34.0941973  12.8233790  38.4947301
  50.6972842  18.1907429  27.0271065  51.2224166  18.5294701  26.3020385
  50.6095195  17.2554444  26.8434200  42.3592891  22.1041502  39.1560942
  42.6680017  21.8590649  40.0283641  43.1568373  22.3088141  38.6679812
  42.3813503  24.2579412  31.3866318  41.9418493  23.7655791  32.0799175
  43.1321620  23.7152380  31.1458394  34.8605842  20.4490953  31.3890947
  35.6863862  20.1494725  31.0089590  34.5099894  19.6798575  31.8380735
  39.8287375  19.8017421  33.4588620  39.2067384  19.1388126  33.1590848
  40.4992242  19.8278553  32.7762268  33.0614447  18.3677279  32.3479880
  32.2246355  17.9399454  32.1663881  33.0338092  18.5609723  33.2850671
  39.9011903   8.2799209  43.0521126  39.9500058   9.1561332  42.6698896
  40.4434417   7.7376602  42.4792769  50.3866748  18.8240332  42.3322263
  49.5962292  18.8064471  41.7926763  50.1500103  19.3628626  43.0871300
  50.5064623  15.6732799  39.6454992  50.5562628  15.5082806  40.5870515
  50.3978547  14.8060058  39.2552873  39.3900882  18.3521344  26.9347081
  39.5389002  19.0356809  26.2813753  40.1967326  18.3326434  27.4496536
  47.7968386  11.6563727  40.9614298  48.6978249  11.5170192  40.6698296
  47.8716360  11.8218182  41.9012476  42.1311191   9.0330582  39.8067485
  41.2614501   9.3264148  39.5350073  42.3670671   9.6171027  40.5274748
  52.0082820  18.0929740  39.8897013  51.7167629  18.4559721  40.7260474
  51.3954952  17.3796749  39.7110345  53.2078503  15.6582620  32.4099584
  54.0425394  16.0972424  32.5737144  53.3437631  15.1821273  31.5907829
  50.2570008  13.2162355  38.3577071  50.7324130  13.4090001  37.5495923
  49.3335574  13.2721541  38.1120455  37.1453515  14.3786522  27.9408150
  36.8999557  13.4748852  28.1388360  37.3149430  14.3803673  26.9987628
  44.8350225   5.2510198  37.3232905  45.3532169   5.9871225  36.9979394
  44.4805358   5.5574192  38.1579664  45.0862819   1.6710481  32.8433802
  45.3664573   1.0033670  33.4694228  45.8713426   1.8639577  32.3308466
  42.8896288  20.8469475  24.4058828  42.3170255  21.4659662  23.9529300
  43.4629081  21.3968837  24.9398750  48.9571677  10.0928115  36.5905377
  49.9089100  10.1926213  36.6117601  48.7875128   9.3006384  37.1003461
  46.9786057   7.1783698  36.7764778  46.3835989   7.4588711  36.0811266
  46.6935754   7.6677599  37.5481519  46.1093547  21.1306625  25.5367410
  47.0424221  21.0652187  25.7400286  46.0216760  21.9662892  25.0781943
  48.7381564  20.4472495  22.4971358  48.6595196  20.1132359  23.3907116
  49.5591231  20.9394263  22.4962830  51.4359755  13.3134235  35.7047677
  51.4036075  12.3750235  35.8907360  52.0460379  13.3918271  34.9713501
  43.2743086  12.1830288  21.7474881  44.2202191  12.0536496  21.8163299
  42.8957331  11.4444950  22.2244309  51.5854244  10.1045278  35.7505960
  51.0693292   9.3203735  35.5635889  52.4694192   9.7763995  35.9152479
  49.2464971   3.8486294  31.7101772  49.0489792   3.5401382  32.5945104
  49.8564676   4.5747933  31.8399702  57.2536305  14.3750241  34.8453713
  57.9839694  14.1135530  35.4061417  56.6443251  13.6378963  34.8855781
  55.3351602  12.5158104  35.4428165  54.6084766  12.3814069  34.8344656
  54.9198889  12.8234933  36.2484883  43.1581779  16.2348034  43.2075538
  44.0784788  16.4126633  43.4015584  43.1231362  15.2904079  43.0555237
  32.3763944  11.4286627  32.1328812  32.0566728  10.5751936  31.8403186
  31.8297372  11.6435206  32.8886780  36.1543851  14.1449068  35.8498319
  36.3729861  15.0766176  35.8686353  36.5669625  13.7857043  36.6353123
  43.0748069   4.6517154  27.8374007  42.2648797   4.3064239  28.2129253
  43.7632486   4.3424697  28.4261619  45.0038617   3.7295201  29.4598304
  45.5569656   4.1490654  30.1188327  45.2408704   2.8030949  29.5021260
  41.0271717   9.7182274  45.2401068  40.9268443  10.6676631  45.1713159
  40.8093259   9.3900513  44.3677138  32.2452204  15.0489539  34.1021934
  31.5515675  14.6343492  33.5891888  32.9925195  15.0910075  33.5055353
  48.3817424   5.8395726  28.9676968  47.8016093   6.4980530  28.5855020
  48.1153357   5.0173070  28.5564386  46.8320991   5.2400783  31.1698288
  47.3320769   5.3517318  30.3612607  47.4756599   4.9361836  31.8099097
  40.8902987  13.1479413  44.0566129  40.4070068  13.9479773  44.2630018
  40.9763926  13.1587358  43.1033573  34.1588946  14.9807793  31.9787949
  34.1359634  15.0795480  31.0269832  34.4689583  15.8272943  32.3005115
  36.8176324  17.0383948  36.0934563  37.7719578  17.0067890  36.0264495
  36.6188848  16.5774571  36.9084789  37.4075706  15.6085064  38.6605361
  38.2268595  16.1029142  38.6840198  37.6812514  14.6917032  38.6322928
  47.1642302   7.9995816  28.0233316  46.2768157   8.2845467  27.8053511
  47.5796291   7.8389579  27.1760593  50.5156839   8.0242337  31.7387656
  51.2917229   8.5138789  32.0112272  49.7904973   8.4500391  32.1959525
  52.9529397   8.7369956  32.7961596  53.5473888   8.4965692  32.0854904
  53.0255981   8.0177087  33.4235132  35.1726553  22.5803567  33.1104761
  35.0381021  21.8203968  32.5442759  34.7558615  23.3044467  32.6433550
  46.3085516  17.7640491  22.1181336  47.0121366  17.9690493  22.7338992
  45.5848165  18.3317253  22.3830420  47.1383326  13.5150352  28.2383606
  47.0818528  13.9718903  27.3991239  47.6911669  12.7541037  28.0606449
  50.9488132   9.3040084  29.0633726  50.6925066   8.9036720  29.8941934
  50.3241000  10.0183878  28.9383865  55.2600470  12.0436157  31.5705017
  54.7000028  12.1129346  32.3436579  54.6543973  11.8677142  30.8504514
  38.3295679  23.4772884  33.3223204  38.2128063  24.4218317  33.2201894
  37.5088125  23.1746446  33.7109003  48.2172213  18.2023020  24.1679796
  49.0517817  17.7704218  23.9857271  48.0556556  18.0305034  25.0956691
  47.8718105  14.7055133  25.5336136  47.8166909  14.5399405  24.5924580
  47.2464161  15.4131166  25.6898325  32.6610620   9.9423198  39.3597558
  33.3069484   9.4322152  39.8484783  32.4527772  10.6791879  39.9340983
  45.1864013  17.0104045  44.8589698  46.0555172  17.1844697  44.4976333
  44.7070764  17.8298462  44.7365428  39.3550193  24.1301146  36.5379132
  40.2577440  24.1624756  36.8545627  39.1287563  23.2001597  36.5525468
  41.1103795  22.8832133  33.1989211  40.1599426  22.8833994  33.0853583
  41.4136281  22.1364867  32.6825245  44.9966350   0.8006019  29.3667391
  44.2298746   0.2464506  29.5124073  45.4077055   0.8727888  30.2281542
  37.0008111   7.0890815  43.4572572  37.8639573   6.7327620  43.6675897
  36.4273522   6.7504710  44.1447976  56.8456488  28.7192671  34.2634973
  57.4834898  28.5999418  33.5598313  56.7277331  29.6673515  34.3222925
  53.6546195  28.6720099  34.1996498  53.3164706  28.5561164  33.3117033
  54.5235963  28.2711264  34.1797504  49.5133010  30.5255576  30.1893389
  48.9497875  30.4345513  29.4209676  49.3985405  29.7055480  30.6695881
  54.1365978  29.8254951  40.1582703  54.1254618  29.4307749  39.2863207
  54.2986617  29.0921023  40.7516475  47.0597442  32.0206767  33.0277609
  47.8518734  31.6797592  32.6123908  47.2994092  32.1301742  33.9479762
  55.0932569  34.1926543  25.5007854  54.4420549  34.7780624  25.1141867
  55.8876932  34.7232738  25.5602891  49.0188196  31.2815680  25.8994988
  49.7919072  30.7344668  25.7607864  49.3713595  32.1459930  26.1109449
  51.7829446  29.9868911  35.6963247  52.3793018  29.7624934  34.9820210
  51.8404417  29.2453657  36.2988695  51.3554474  27.4408347  23.5313438
  51.6079995  26.9189868  22.7696901  50.4179033  27.2774492  23.6340121
  56.3997757  26.4444125  31.3388181  57.1860846  26.0263548  30.9878598
  56.6636461  27.3490217  31.5069829  56.5707834  31.8816975  26.0376838
  55.9353667  31.9551602  26.7497743  56.2405241  32.4710574  25.3595917
  61.8006184  26.3819358  32.2421160  62.5331356  25.8118575  32.4758989
  61.0445540  25.9940959  32.6827665  51.0750763  29.3436452  25.7337813
  50.9587021  28.6681356  26.4018897  51.1853023  28.8568826  24.9169966
  53.4182304  28.8046600  29.4384502  53.0540511  28.2777221  30.1497424
  54.2749420  28.4145069  29.2650987  59.3231604  20.0940932  36.7015768
  58.9914929  20.9636343  36.4776983  58.7277218  19.7777216  37.3809799
  53.0587791  23.8336499  24.4345851  53.2262193  24.7016736  24.8016322
  52.8684960  23.9963781  23.5107140  55.8163124  32.2953478  36.1011681
  55.5163847  33.1978517  35.9927488  55.4714183  32.0285661  36.9532834
  49.2675605  28.7467275  32.1348385  48.3426102  28.6143489  32.3426077
  49.5160019  29.5261494  32.6318328  59.2160268  24.8136018  33.7809118
  58.3077145  24.7451427  33.4867879  59.1647863  25.2907963  34.6090944
  53.0377012  26.2894157  25.4192517  52.9176637  26.7351208  26.2577998
  52.3429600  26.6379474  24.8606056  46.6284416  28.3900549  32.9692174
  46.7576798  28.6435028  33.8831586  45.9481868  28.9828257  32.6496830
  53.2901133  26.2325664  41.7244016  52.5134467  26.7919584  41.7146880
  53.9291696  26.7182447  42.2458886  61.0821914  23.0152457  35.5586992
  60.4396294  23.3084990  34.9126787  60.5776843  22.9005377  36.3640189
  58.7362078  26.7615630  26.2472851  59.6479934  26.9943017  26.0720549
  58.2271725  27.3452674  25.6847930  51.5447506  29.0411117  41.2861983
  52.2862190  29.5796161  41.0096806  50.8384491  29.6677406  41.4433534
  57.0202845  31.1840258  39.8834144  57.4286201  30.7422668  39.1388776
  56.2980107  30.6092885  40.1368337  53.3733915  26.1212865  37.2567701
  54.2195111  26.5452278  37.4002350  53.3132553  25.4646489  37.9506264
  57.3431660  31.7441448  33.6386433  56.7140522  31.9087163  32.9362501
  56.9557322  32.1583058  34.4097397  61.2220892  32.6795886  30.9930797
  60.5371930  33.0594788  30.4427830  61.3064741  33.2891213  31.7262744
  56.5233361  23.7817233  38.9148875  56.2794293  24.5359293  38.3783150
  56.7993291  24.1602581  39.7496122  58.4771824  30.3255845  37.5926140
  58.6888719  30.9687605  36.9160521  58.4301572  29.4918162  37.1248070
  56.0798052  22.9373666  34.4962712  55.2182532  23.2354920  34.7879450
  56.1060487  23.1544065  33.5643745  52.8959622  31.4815857  30.9036518
  53.3597967  31.7603560  30.1141141  52.6316420  30.5799301  30.7209609
  49.7883703  31.0287338  33.8416281  50.3585060  31.4574606  33.2033766
  50.3791815  30.7469923  34.5400467  51.8328508  27.6039009  27.7126083
  52.5352551  28.0560053  28.1800010  51.5009136  26.9622828  28.3405976
  50.2808869  26.1950766  42.0877293  49.6507530  26.8767046  42.3212689
  50.1744957  26.0833847  41.1430431  45.5753842  25.8622562  33.0143217
  44.7852896  26.1180090  32.5383327  46.0665089  26.6770899  33.1195257
  59.5917651  33.2027801  35.7648498  60.4135095  32.8007988  35.4831179
  59.5880054  33.0996035  36.7164613  47.5268587  26.2267141  29.9726693
  46.7299751  26.3385835  30.4910189  47.2994179  26.5653793  29.1067584
  53.3574255  32.7511844  37.9209208  53.4218687  33.2132251  38.7567380
  52.6485179  32.1209209  38.0491518  43.8591545  26.1153052  35.4458208
  44.1099583  27.0000062  35.7115783  44.3951093  25.9357654  34.6733299
  67.6823645  29.5466549  32.1133469  66.9287353  28.9773947  31.9577473
  67.8171186  29.5129214  33.0604104  53.0722273  34.4179952  27.7888188
  52.9367947  35.2631487  28.2173036  53.6132085  34.6199229  27.0254122
  49.5589612  20.4971531  44.4502544  49.1656558  19.9437730  45.1250188
  50.3755753  20.8082110  44.8409061  46.5251670  31.9355390  28.3616113
  47.0376191  32.7298640  28.5121678  47.1774383  31.2381680  28.2949715
  48.3346555  35.0521146  30.4438867  48.5113183  35.9739111  30.2559851
  49.1303388  34.7379565  30.8733246  52.4757573  21.9129410  42.0422800
  53.2167287  22.5136564  41.9627263  52.7075496  21.1707048  41.4840843
  47.6198911  27.0985778  40.3201030  47.5052426  26.1971035  40.6208129
  46.7643429  27.3449474  39.9685846  56.7971987  35.3206318  39.9469932
  56.7790462  36.1415199  39.4550201  57.7191907  35.1960393  40.1720073
  56.4214736  17.9410513  36.3187082  56.0779006  18.8312155  36.2426192
  56.7893699  17.7512171  35.4556667  44.4900587  30.2644044  29.1375684
  45.3275809  30.6741052  28.9209392  44.6678854  29.3243486  29.1075878
  56.3865019  27.9319124  24.8259517  55.8711642  28.7023729  25.0647904
  56.1142327  27.2584261  25.4492578  53.9712130  22.7768825  29.8844755
  53.1153726  22.3875676  29.7050394  54.3839082  22.8560786  29.0244541
  55.5011277  20.3115169  34.2836315  54.9976072  20.2745304  33.4704120
  55.7941883  21.2207911  34.3432972  51.7454162  20.3953898  33.2902497
  52.6107159  20.1996707  32.9308386  51.8131671  20.1664250  34.2171854
  61.3599293  30.6851479  26.7612690  60.5828736  30.3462639  26.3167853
  62.0390774  30.6904102  26.0867655  56.1751322  25.8046217  26.6519298
  55.8701458  26.1192366  27.5029441  57.1281764  25.8827636  26.6946631
  54.6197754  31.9636440  28.3012252  54.0919115  31.2289199  27.9885490
  54.1185257  32.7411116  28.0552220  59.5990600  30.1585460  33.4179298
  58.9414274  30.8484722  33.5059427  60.4030999  30.5481892  33.7613285
  49.3516481  22.6256106  30.6618864  49.9260233  22.4031288  29.9292057
  49.9387464  22.6944801  31.4147465  58.4096059  28.5129833  31.4683240
  58.9227940  29.1459825  31.9704950  59.0597283  27.9131029  31.1026600
  49.6786069  24.6560567  24.6814749  48.8423381  24.9935254  25.0024024
  49.5390838  24.5209547  23.7441886  51.6539149  19.4997355  29.3893933
  51.0003562  19.1846372  28.7650548  51.6119623  18.8773096  30.1153756
  52.7650354  29.7816650  21.3047225  51.8577416  29.5505904  21.5038374
  53.2621386  28.9854269  21.4921207  55.6718433  38.4914157  24.2243911
  54.9980132  38.7945854  24.8328869  56.0584255  39.2943238  23.8749368
  54.8876890  25.9879289  33.7141581  53.9699451  26.2094236  33.5563269
  55.3037033  26.0625599  32.8553288  55.6711937  27.3870704  28.8444261
  56.4183756  27.8992102  28.5351383  55.9403527  27.0654757  29.7048655
  53.9438587  29.8829245  25.8271215  53.0349807  29.5988278  25.9243685
  53.9733671  30.3028324  24.9674522  59.1757855  33.4935835  29.5962383
  58.7220182  32.6526744  29.6527573  58.5451822  34.1297233  29.9337163
  58.1190774  24.4227821  30.8263050  57.3813531  23.9105207  31.1573293
  58.3717548  23.9828202  30.0146327  57.6190794  35.3312331  30.5312201
  57.9113769  35.8917388  29.8124567  58.1289415  35.6240892  31.2865360
  58.2202402  17.2004073  31.4204820  58.5261279  16.3401436  31.1330735
  58.9455007  17.7921693  31.2203813  44.5126758  27.6034759  29.8086417
  44.3151158  27.0104120  29.0837484  43.9573422  27.2986969  30.5262356
  52.4923482  27.4957866  31.9281011  52.5472091  26.5431702  31.8523487
  51.6814684  27.6517305  32.4122309  53.6414675  31.4237989  23.1659294
  53.2034105  30.7073848  22.7064931  54.3825116  31.6514104  22.6044385
  50.4315841  26.1134925  29.6871389  49.6183707  26.4129096  30.0936582
  50.9274836  25.7190614  30.4045872  52.5824419  36.1092682  31.6205654
  52.5400598  36.3353529  30.6914186  53.4987118  35.8756057  31.7691455
  56.0290053  26.5776750  38.5186283  56.3839441  26.8048223  39.3780749
  56.6762184  26.9095127  37.8963539  61.7587790  29.6995186  29.2235612
  61.6205689  29.8896782  28.2956802  61.4024009  30.4614569  29.6803664
  49.9229916  23.6853281  35.3032624  50.5629296  23.5442040  34.6055588
  49.0907447  23.3987794  34.9271226  61.7857170  31.7671713  34.2346884
  62.2193676  31.6747002  35.0829938  62.4988750  31.7429213  33.5966900
  50.6990220  32.9855711  31.4167617  51.4930819  32.4906031  31.2150192
  49.9881913  32.4573574  31.0535322  55.5185065  35.3673807  35.7679984
  55.5722087  35.9364743  36.5357700  54.6499846  35.5375692  35.4034022
  47.0072984  27.1298793  27.4927370  46.0770572  27.0683249  27.7097332
  47.1030456  26.6074746  26.6964011  46.9258533  23.6553606  30.0805611
  47.1865350  24.5698939  29.9714772  47.7475705  23.1878048  30.2302224
  48.3983458  25.0691363  37.2504436  49.0706511  24.8608725  36.6017085
  47.5713244  24.8713449  36.8109668  62.6472719  31.8095413  36.7679769
  62.8408609  32.7141224  37.0139044  62.5473337  31.3502832  37.6018354
  54.3009030  21.6953304  39.2670097  53.6536945  22.3943254  39.1734573
  55.0710045  22.1289448  39.6346345  57.7087828  31.9602156  42.3420650
  57.5573334  31.7312708  41.4250734  57.6992507  32.9172758  42.3551995
  54.4773164  29.5334069  37.3266916  55.4065224  29.6845229  37.1535884
  54.0564194  29.6218090  36.4715563  53.2761496  33.5584733  35.0965454
  53.1372582  33.1903518  35.9691392  52.4876092  34.0732373  34.9249412
  53.8709648  38.6593830  26.4390990  54.0461404  38.1881873  27.2536613
  53.1842436  39.2859596  26.6672251  54.8266711  32.9366336  32.4854292
  54.4916544  32.8967106  33.3811942  54.3270657  32.2711052  32.0124702
  48.8010955  28.3433966  38.0106873  48.6630753  27.6114205  38.6118412
  49.7115879  28.2542866  37.7291061  57.7625903  30.2822370  22.7591351
  57.1455074  29.5569199  22.6624404  57.2942391  31.0431731  22.4158426
  51.4293256  28.0553925  37.4990553  52.1392874  27.4147118  37.4577171
  51.3862564  28.3066820  38.4216733  59.4180035  34.9921279  40.4197132
  59.3592581  34.3080499  39.7527715  59.8199553  35.7340269  39.9677758
  50.1422190  25.0419143  39.3186192  49.6059547  24.5909882  39.9707788
  49.5538898  25.1765052  38.5756656  49.5524449  24.5007795  21.8812656
  48.6753915  24.3796595  21.5174902  50.0282202  23.7093873  21.6291544
  59.4197442  32.9560863  38.6511111  58.5324221  32.6186784  38.7737510
  59.9895993  32.2243894  38.8879877  41.0726589  29.2884954  31.9754163
  41.7597629  28.9746684  31.3875178  40.9174718  30.1926319  31.7021414
  45.8761311  24.1775151  36.4039187  45.7919500  23.5700821  35.6689596
  45.0544018  24.6684169  36.4048683  52.7388375  36.8534085  29.1275176
  51.9555897  37.3955765  29.2213401  53.4381120  37.3708065  29.5269417
  56.0485025  22.6628714  31.7709382  56.5453725  21.9098677  31.4510452
  55.2772006  22.6993031  31.2052591  63.9014782  28.3669080  33.4127673
  63.8904659  29.2493795  33.0421606  63.0332162  28.0140631  33.2182210
  57.1314806  31.4200402  29.3447805  56.1971084  31.5401864  29.1752509
  57.3091474  30.5172868  29.0807815  52.6319994  24.8046097  31.4981066
  52.2617781  24.2517138  32.1861972  53.1279086  24.2004231  30.9456066
  60.5187357  27.2617721  29.8797839  60.9847809  28.0945713  29.8058142
  60.9694858  26.7962703  30.5843098  58.5863588  33.6061542  26.8783991
  58.8623432  33.4918137  27.7877865  57.7168087  33.2079027  26.8396164
  58.4904020  19.6298308  33.9188740  57.5767100  19.8602535  34.0870947
  58.9197121  19.7136752  34.7702773  58.2610478  27.8188200  36.4188634
  57.6081928  28.0664107  35.7641087  58.6390858  27.0052338  36.0851112
  55.2217652  37.8547893  30.5216805  55.4040047  37.0369549  30.9844557
  56.0450638  38.0715585  30.0841695  55.5559818  36.7816078  27.7831853
  56.0847584  36.2708533  27.1702015  55.8188037  36.4658608  28.6477386
  54.3098051  28.5608011  42.9054672  53.6338688  28.4602140  43.5757047
  55.1325685  28.4047225  43.3690669  46.0576910  34.7979948  35.5267187
  46.6430347  34.0523635  35.6595091  45.8601749  35.1083904  36.4103851
  48.9115566  37.8331195  30.5429629  48.2425941  38.3177323  30.0593669
  48.7728435  38.0800415  31.4573008  40.6494565  27.3685548  34.2471630
  40.6878665  26.8349138  35.0408748  40.1434858  26.8420753  33.6282607
  48.0285327  22.2150088  37.7434172  48.0926654  23.0764919  37.3311570
  47.9652448  21.6024090  37.0106531  47.5037600  24.2873221  41.3907207
  48.1309639  23.9050298  42.0044731  46.6465519  24.0687423  41.7562899
  57.9031708  34.6936196  42.9960942  58.4471612  35.3066154  42.5015897
  57.3218553  35.2515774  43.5127955  44.2803143  26.0949650  27.3225561
  44.5756584  25.1860328  27.2692615  43.3791178  26.0737389  27.0006564
  56.1889221  37.8156914  34.1275970  56.0640361  37.0146654  33.6186915
  56.8468313  38.3103107  33.6389940  47.8097390  24.1705646  33.3053110
  47.0883975  24.7841614  33.1660583  48.5990645  24.7063411  33.2269756
  58.2524130  35.6165934  35.7555520  57.3054465  35.4971285  35.6833847
  58.6006903  34.7288432  35.8381781  50.6123703  21.5060073  39.5793762
  51.1358105  21.7522370  40.3420071  50.3936036  22.3380108  39.1596899
  46.0090984  23.7763748  27.4464886  45.6803690  22.8961126  27.2639992
  46.3630355  23.7211416  28.3341276  55.2570563  35.4118650  31.9559872
  55.1095526  34.4835358  32.1367442  56.0824057  35.4338741  31.4716947
  49.1232807  24.0636717  27.8140364  49.4628880  24.5922639  27.0918973
  49.5704928  24.4017123  28.5898931  58.8604685  36.2347209  33.0424745
  59.7851232  36.0290070  32.9049196  58.6919988  35.9863610  33.9514086
  51.8176248  22.4473768  37.2643432  51.4773069  21.6481581  37.6664112
  51.1115254  22.7475479  36.6920265  52.4692720  19.5323080  35.7170755
  53.2918789  19.0583559  35.5949646  52.7130784  20.3113564  36.2169442
  51.1100955  22.5611339  26.0133657  51.8309317  22.9392592  25.5097374
  50.4866259  23.2800216  26.1168635  55.2532077  23.2656488  26.9491989
  55.4695692  24.1481126  26.6480817  54.7726145  22.8742701  26.2197631
  49.9931299  26.2242201  33.5262734  49.8475880  26.5382504  34.4187015
  49.5156502  26.8427101  32.9733632  51.8527682  23.2144749  33.5743623
  51.8389250  22.3185842  33.2375921  52.5700110  23.2215413  34.2081909
  53.7053812  23.6482089  35.6196751  53.4471590  24.5699160  35.6181081
  53.1738853  23.2512524  36.3097215  58.6500001  36.7532876  28.3986836
  58.8236879  36.1879299  27.6460689  59.1428892  37.5533771  28.2166326
  44.4676961  28.7647546  36.4650395  43.9230429  29.5407353  36.5970669
  45.3456311  29.1118350  36.3069516  51.2564578  22.0959129  28.8431194
  51.3780489  21.1675776  29.0422081  50.9666620  22.1097815  27.9309509
  54.1255768  19.7814040  31.9797913  54.1477465  19.8453373  31.0249893
  54.5423827  18.9418548  32.1738420  64.5039392  29.5169299  30.0177136
  64.9470538  28.7676625  29.6196259  63.6265903  29.5079436  29.6350868
  59.6375174  36.0699641  25.4983735  60.3326078  36.6906334  25.7171049
  59.9798324  35.2194992  25.7736112  45.2542983  27.8917442  39.3580552
  44.5124719  28.0400077  39.9445182  44.9335727  28.1525707  38.4947301
  61.5366597  33.5199346  27.0271065  62.0617921  33.8586619  26.3020385
  61.4488949  32.5846362  26.8434200  45.6999597  35.7782871  31.3890947
  46.5257616  35.4786642  31.0089590  45.3493649  35.0090493  31.8380735
  50.6681130  35.1309339  33.4588620  50.0461139  34.4680044  33.1590848
  51.3385997  35.1570471  32.7762268  43.9008202  33.6969197  32.3479880
  43.0640110  33.2691371  32.1663881  43.8731847  33.8901640  33.2850671
  50.7405657  23.6091127  43.0521126  50.7893813  24.4853250  42.6698896
  51.2828171  23.0668520  42.4792769  61.2260503  34.1532250  42.3322263
  60.4356047  34.1356389  41.7926763  60.9893857  34.6920544  43.0871300
  61.3458378  31.0024716  39.6454992  61.3956383  30.8374724  40.5870515
  61.2372301  30.1351975  39.2552873  50.2294637  33.6813262  26.9347081
  50.3782757  34.3648726  26.2813753  51.0361080  33.6618352  27.4496536
  58.6362140  26.9855644  40.9614298  59.5372003  26.8462109  40.6698296
  58.7110115  27.1510099  41.9012476  52.9704946  24.3622499  39.8067485
  52.1008255  24.6556065  39.5350073  53.2064426  24.9462944  40.5274748
  62.8476575  33.4221658  39.8897013  62.5561383  33.7851638  40.7260474
  62.2348706  32.7088666  39.7110345  64.0472257  30.9874538  32.4099584
  64.8819148  31.4264342  32.5737144  64.1831386  30.5113191  31.5907829
  61.0963763  28.5454273  38.3577071  61.5717885  28.7381919  37.5495923
  60.1729328  28.6013458  38.1120455  47.9847270  29.7078440  27.9408150
  47.7393312  28.8040770  28.1388360  48.1543184  29.7095590  26.9987628
  55.6743979  20.5802116  37.3232905  56.1925923  21.3163143  36.9979394
  55.3199112  20.8866109  38.1579664  47.2542917  25.4406797  25.4394311
  46.5612162  25.5151152  24.7834347  47.0094669  24.6767141  25.9615828
  55.9256574  17.0002399  32.8433802  56.2058327  16.3325588  33.4694228
  56.7107181  17.1931494  32.3308466  53.7290042  36.1761393  24.4058828
  53.1564009  36.7951580  23.9529300  54.3022836  36.7260754  24.9398750
  59.7965432  25.4220033  36.5905377  60.7482855  25.5218130  36.6117601
  59.6268882  24.6298301  37.1003461  57.8179811  22.5075616  36.7764778
  57.2229744  22.7880629  36.0811266  57.5329508  22.9969517  37.5481519
  56.9487302  36.4598543  25.5367410  57.8817975  36.3944104  25.7400286
  56.8610515  37.2954810  25.0781943  59.5775319  35.7764413  22.4971358
  59.4988950  35.4424277  23.3907116  60.3984985  36.2686181  22.4962830
  62.2753510  28.6426152  35.7047677  62.2429830  27.7042153  35.8907360
  62.8854133  28.7210189  34.9713501  54.1136841  27.5122205  21.7474881
  55.0595945  27.3828413  21.8163299  53.7351086  26.7736867  22.2244309
  62.4247998  25.4337196  35.7505960  61.9087047  24.6495652  35.5635889
  63.3087947  25.1055912  35.9152479  60.0858725  19.1778211  31.7101772
  59.8883546  18.8693300  32.5945104  60.6958431  19.9039850  31.8399702
  68.0930060  29.7042159  34.8453713  68.8233448  29.4427447  35.4061417
  67.4837005  28.9670881  34.8855781  66.1745357  27.8450022  35.4428165
  65.4478520  27.7105987  34.8344656  65.7592644  28.1526850  36.2484883
  53.9975533  31.5639951  43.2075538  54.9178543  31.7418550  43.4015584
  53.9625116  30.6195997  43.0555237  52.2979758  25.4372182  21.6829766
  51.3911213  25.1405294  21.7592479  52.5755739  25.1402000  20.8164052
  43.2157698  26.7578545  32.1328812  42.8960482  25.9043853  31.8403186
  42.6691126  26.9727123  32.8886780  46.9937606  29.4740986  35.8498319
  47.2123615  30.4058094  35.8686353  47.4063380  29.1148960  36.6353123
  53.9141823  19.9809071  27.8374007  53.1042552  19.6356156  28.2129253
  54.6026240  19.6716615  28.4261619  55.8432372  19.0587118  29.4598304
  56.3963410  19.4782572  30.1188327  56.0802458  18.1322866  29.5021260
  51.8665471  25.0474192  45.2401068  51.7662198  25.9968549  45.1713159
  51.6487013  24.7192431  44.3677138  51.0678542  22.2959117  21.8241745
  51.9297706  22.6214015  22.0837562  51.2528887  21.5090613  21.3114811
  43.0845958  30.3781457  34.1021934  42.3909430  29.9635409  33.5891888
  43.8318949  30.4201993  33.5055353  59.2211179  21.1687643  28.9676968
  58.6409848  21.8272447  28.5855020  58.9547112  20.3464988  28.5564386
  57.6714745  20.5692701  31.1698288  58.1714524  20.6809236  30.3612607
  58.3150353  20.2653754  31.8099097  51.7296741  28.4771331  44.0566129
  51.2463823  29.2771691  44.2630018  51.8157680  28.4879276  43.1033573
  44.9982701  30.3099710  31.9787949  44.9753389  30.4087398  31.0269832
  45.3083337  31.1564861  32.3005115  47.6570079  32.3675865  36.0934563
  48.6113332  32.3359808  36.0264495  47.4582602  31.9066489  36.9084789
  48.2469461  30.9376981  38.6605361  49.0662350  31.4321060  38.6840198
  48.5206268  30.0208950  38.6322928  58.0036057  23.3287734  28.0233316
  57.1161912  23.6137384  27.8053511  58.4190046  23.1681497  27.1760593
  61.3550593  23.3534255  31.7387656  62.1310983  23.8430707  32.0112272
  60.6298727  23.7792309  32.1959525  63.7923152  24.0661874  32.7961596
  64.3867642  23.8257610  32.0854904  63.8649735  23.3469005  33.4235132
  46.0120307  37.9095485  33.1104761  45.8774775  37.1495886  32.5442759
  45.5952370  38.6336385  32.6433550  57.1479270  33.0932408  22.1181336
  57.8515120  33.2982411  22.7338992  56.4241919  33.6609170  22.3830420
  57.9777081  28.8442270  28.2383606  57.9212282  29.3010821  27.3991239
  58.5305423  28.0832954  28.0606449  61.7881887  24.6332002  29.0633726
  61.5318821  24.2328637  29.8941934  61.1634755  25.3475795  28.9383865
  66.0994224  27.3728075  31.5705017  65.5393782  27.4421264  32.3436579
  65.4937728  27.1969059  30.8504514  49.1689433  38.8064802  33.3223204
  49.0521817  39.7510234  33.2201894  48.3481879  38.5038363  33.7109003
  59.0565968  33.5314938  24.1679796  59.8911572  33.0996136  23.9857271
  58.8950311  33.3596951  25.0956691  58.7111860  30.0347051  25.5336136
  58.6560664  29.8691322  24.5924580  58.0857915  30.7423084  25.6898325
  43.5004375  25.2715115  39.3597558  44.1463239  24.7614069  39.8484783
  43.2921526  26.0083797  39.9340983  56.0257767  32.3395963  44.8589698
  56.8948927  32.5136615  44.4976333  55.5464519  33.1590380  44.7365428
  52.0207985  19.5355160  25.1121454  52.0086655  20.4797000  25.2689725
  52.9131407  19.3525305  24.8180915  55.8360105  16.1297937  29.3667391
  55.0692501  15.5756423  29.5124073  56.2470810  16.2019805  30.2281542
  47.8401866  22.4182732  43.4572572  48.7033327  22.0619537  43.6675897
  47.2667277  22.0796627  44.1447976  67.6850243  44.0484589  34.2634973
  68.3228653  43.9291336  33.5598313  67.5671086  44.9965433  34.3222925
  64.4939949  44.0012017  34.1996498  64.1558461  43.8853082  33.3117033
  65.3629717  43.6003182  34.1797504  65.9326324  49.5218461  25.5007854
  65.2814303  50.1072541  25.1141867  66.7270686  50.0524656  25.5602891
  59.8581951  46.6107598  25.8994988  60.6312827  46.0636585  25.7607864
  60.2107350  47.4751847  26.1109449  62.1948229  42.7700264  23.5313438
  62.4473749  42.2481785  22.7696901  61.2572788  42.6066410  23.6340121
  67.2391511  41.7736043  31.3388181  68.0254601  41.3555466  30.9878598
  67.5030216  42.6782135  31.5069829  67.4101589  47.2108893  26.0376838
  66.7747422  47.2843519  26.7497743  67.0798995  47.8002492  25.3595917
  72.6399938  41.7111276  32.2421160  73.3725110  41.1410493  32.4758989
  71.8839294  41.3232876  32.6827665  61.9144517  44.6728370  25.7337813
  61.7980775  43.9973274  26.4018897  62.0246777  44.1860744  24.9169966
  64.2576058  44.1338517  29.4384502  63.8934265  43.6069138  30.1497424
  65.1143174  43.7436986  29.2650987  70.1625359  35.4232850  36.7015768
  69.8308684  36.2928261  36.4776983  69.5670972  35.1069134  37.3809799
  63.8981545  39.1628417  24.4345851  64.0655948  40.0308653  24.8016322
  63.7078714  39.3255699  23.5107140  66.6556878  47.6245396  36.1011681
  66.3557601  48.5270435  35.9927488  66.3107938  47.3577579  36.9532834
  70.0554022  40.1427936  33.7809118  69.1470899  40.0743344  33.4867879
  70.0041618  40.6199881  34.6090944  63.8770766  41.6186074  25.4192517
  63.7570391  42.0643125  26.2577998  63.1823354  41.9671392  24.8606056
  61.6377658  54.3889716  29.0682649  61.5601688  55.3397541  29.1471129
  61.0339302  54.0435589  29.7257575  64.1294888  41.5617582  41.7244016
  63.3528222  42.1211502  41.7146880  64.7685451  42.0474365  42.2458886
  71.9215669  38.3444374  35.5586992  71.2790049  38.6376908  34.9126787
  71.4170597  38.2297295  36.3640189  69.5755832  42.0907548  26.2472851
  70.4873688  42.3234934  26.0720549  69.0665479  42.6744592  25.6847930
  67.8596600  46.5132175  39.8834144  68.2679956  46.0714586  39.1388776
  67.1373861  45.9384803  40.1368337  64.2127670  41.4504782  37.2567701
  65.0588865  41.8744196  37.4002350  64.1526308  40.7938407  37.9506264
  68.1825415  47.0733366  33.6386433  67.5534277  47.2379080  32.9362501
  67.7951077  47.4874976  34.4097397  72.0614646  48.0087804  30.9930797
  71.3765685  48.3886705  30.4427830  72.1458496  48.6183131  31.7262744
  67.3627115  39.1109151  38.9148875  67.1188047  39.8651211  38.3783150
  67.6387046  39.4894498  39.7496122  69.3165578  45.6547763  37.5926140
  69.5282473  46.2979523  36.9160521  69.2695326  44.8210080  37.1248070
  66.9191807  38.2665584  34.4962712  66.0576286  38.5646837  34.7879450
  66.9454242  38.4835983  33.5643745  62.6722262  42.9330927  27.7126083
  63.3746306  43.3851970  28.1800010  62.3402891  42.2914745  28.3405976
  61.1202624  41.5242683  42.0877293  60.4901285  42.2058964  42.3212689
  61.0138712  41.4125765  41.1430431  70.4311406  48.5319718  35.7648498
  71.2528850  48.1299906  35.4831179  70.4273809  48.4287953  36.7164613
  58.3662342  41.5559058  29.9726693  57.5693505  41.6677753  30.4910189
  58.1387934  41.8945711  29.1067584  78.5217399  44.8758467  32.1133469
  77.7681107  44.3065865  31.9577473  78.6564940  44.8421131  33.0604104
  63.9116027  49.7471869  27.7888188  63.7761702  50.5923405  28.2173036
  64.4525840  49.9491147  27.0254122  60.3983367  35.8263449  44.4502544
  60.0050312  35.2729648  45.1250188  61.2149507  36.1374028  44.8409061
  57.3645424  47.2647307  28.3616113  57.8769945  48.0590557  28.5121678
  58.0168137  46.5673598  28.2949715  63.3151328  37.2421328  42.0422800
  64.0561041  37.8428481  41.9627263  63.5469251  36.4998966  41.4840843
  67.2608491  33.2702431  36.3187082  66.9172760  34.1604073  36.2426192
  67.6287453  33.0804089  35.4556667  55.3294341  45.5935962  29.1375684
  56.1669563  46.0032970  28.9209392  55.5072609  44.6535404  29.1075878
  67.2258773  43.2611042  24.8259517  66.7105397  44.0315647  25.0647904
  66.9536082  42.5876178  25.4492578  64.8105884  38.1060743  29.8844755
  63.9547481  37.7167593  29.7050394  65.2232836  38.1852704  29.0244541
  66.3405031  35.6407086  34.2836315  65.8369827  35.6037221  33.4704120
  66.6335638  36.5499829  34.3432972  62.5847917  35.7245816  33.2902497
  63.4500914  35.5288625  32.9308386  62.6525426  35.4956168  34.2171854
  72.1993047  46.0143397  26.7612690  71.4222490  45.6754556  26.3167853
  72.8784528  46.0196020  26.0867655  67.0145077  41.1338134  26.6519298
  66.7095212  41.4484283  27.5029441  67.9675519  41.2119554  26.6946631
  65.4591508  47.2928358  28.3012252  64.9312870  46.5581117  27.9885490
  64.9579011  48.0703034  28.0552220  70.4384354  45.4877378  33.4179298
  69.7808029  46.1776639  33.5059427  71.2424754  45.8773810  33.7613285
  60.1910236  37.9548024  30.6618864  60.7653988  37.7323205  29.9292057
  60.7781218  38.0236718  31.4147465  69.2489813  43.8421751  31.4683240
  69.7621695  44.4751743  31.9704950  69.8991037  43.2422946  31.1026600
  60.5179823  39.9852485  24.6814749  59.6817135  40.3227171  25.0024024
  60.3784593  39.8501465  23.7441886  62.4932904  34.8289273  29.3893933
  61.8397316  34.5138290  28.7650548  62.4513378  34.2065013  30.1153756
  63.6044109  45.1108568  21.3047225  62.6971170  44.8797821  21.5038374
  64.1015141  44.3146187  21.4921207  66.5112187  53.8206075  24.2243911
  65.8373886  54.1237772  24.8328869  66.8978009  54.6235155  23.8749368
  65.7270644  41.3171206  33.7141581  64.8093205  41.5386153  33.5563269
  66.1430788  41.3917517  32.8553288  66.5105692  42.7162622  28.8444261
  67.2577511  43.2284019  28.5351383  66.7797281  42.3946675  29.7048655
  64.7832342  45.2121163  25.8271215  63.8743561  44.9280196  25.9243685
  64.8127426  45.6320241  24.9674522  70.0151609  48.8227752  29.5962383
  69.5613937  47.9818662  29.6527573  69.3845576  49.4589151  29.9337163
  68.9584529  39.7519738  30.8263050  68.2207286  39.2397124  31.1573293
  69.2111302  39.3120120  30.0146327  68.4584549  50.6604249  30.5312201
  68.7507523  51.2209306  29.8124567  68.9683169  50.9532810  31.2865360
  69.0596156  32.5295990  31.4204820  69.3655033  31.6693354  31.1330735
  69.7848761  33.1213610  31.2203813  63.3317236  42.8249783  31.9281011
  63.3865846  41.8723620  31.8523487  62.5208438  42.9809222  32.4122309
  64.4808430  46.7529906  23.1659294  64.0427860  46.0365765  22.7064931
  65.2218871  46.9806021  22.6044385  61.2709596  41.4426843  29.6871389
  60.4577461  41.7421014  30.0936582  61.7668590  41.0482532  30.4045872
  66.8683808  41.9068668  38.5186283  67.2233195  42.1340141  39.3780749
  67.5155939  42.2387044  37.8963539  72.5981545  45.0287103  29.2235612
  72.4599443  45.2188699  28.2956802  72.2417763  45.7906486  29.6803664
  60.7623671  39.0145199  35.3032624  61.4023050  38.8733958  34.6055588
  59.9301201  38.7279712  34.9271226  72.6250924  47.0963630  34.2346884
  73.0587431  47.0038920  35.0829938  73.3382505  47.0721131  33.5966900
  66.3578819  50.6965725  35.7679984  66.4115841  51.2656661  36.5357700
  65.4893600  50.8667610  35.4034022  57.8466738  42.4590711  27.4927370
  56.9164326  42.3975166  27.7097332  57.9424210  41.9366664  26.6964011
  57.7652287  38.9845524  30.0805611  58.0259104  39.8990857  29.9714772
  58.5869459  38.5169966  30.2302224  73.4866474  47.1387331  36.7679769
  73.6802364  48.0433142  37.0139044  73.3867092  46.6794750  37.6018354
  65.1402784  37.0245222  39.2670097  64.4930700  37.7235171  39.1734573
  65.9103800  37.4581366  39.6346345  64.7103403  53.9885747  26.4390990
  64.8855158  53.5173791  27.2536613  64.0236191  54.6151514  26.6672251
  68.6019657  45.6114288  22.7591351  67.9848828  44.8861116  22.6624404
  68.1336146  46.3723648  22.4158426  62.2687010  43.3845843  37.4990553
  62.9786629  42.7439035  37.4577171  62.2256319  43.6358738  38.4216733
  70.2573789  50.3213196  40.4197132  70.1986335  49.6372417  39.7527715
  70.6593307  51.0632186  39.9677758  60.9815944  40.3711061  39.3186192
  60.4453301  39.9201799  39.9707788  60.3932653  40.5056970  38.5756656
  60.3918203  39.8299712  21.8812656  59.5147670  39.7088513  21.5174902
  60.8675956  39.0385791  21.6291544  70.2591196  48.2852780  38.6511111
  69.3717975  47.9478702  38.7737510  70.8289747  47.5535812  38.8879877
  63.5782129  52.1826003  29.1275176  62.7949651  52.7247683  29.2213401
  64.2774875  52.6999982  29.5269417  66.8878779  37.9920632  31.7709382
  67.3847479  37.2390594  31.4510452  66.1165761  38.0284949  31.2052591
  74.7408537  43.6960998  33.4127673  74.7298413  44.5785713  33.0421606
  73.8725916  43.3432549  33.2182210  67.9708560  46.7492319  29.3447805
  67.0364839  46.8693782  29.1752509  68.1485229  45.8464786  29.0807815
  63.4713748  40.1338015  31.4981066  63.1011536  39.5809056  32.1861972
  63.9672841  39.5296149  30.9456066  71.3581111  42.5909639  29.8797839
  71.8241564  43.4237630  29.8058142  71.8088612  42.1254620  30.5843098
  69.4257343  48.9353460  26.8783991  69.7017187  48.8210055  27.7877865
  68.5561841  48.5370945  26.8396164  69.3297774  34.9590226  33.9188740
  68.4160854  35.1894452  34.0870947  69.7590876  35.0428670  34.7702773
  69.1004233  43.1480118  36.4188634  68.4475683  43.3956025  35.7641087
  69.4784613  42.3344256  36.0851112  66.0611407  53.1839811  30.5216805
  66.2433801  52.3661467  30.9844557  66.8844393  53.4007503  30.0841695
  66.3953572  52.1107996  27.7831853  66.9241339  51.6000451  27.1702015
  66.6581792  51.7950526  28.6477386  59.7509320  53.1623113  30.5429629
  59.0819695  53.6469240  30.0593669  59.6122190  53.4092333  31.4573008
  58.8679082  37.5442006  37.7434172  58.9320408  38.4056837  37.3311570
  58.8046202  36.9316008  37.0106531  55.1196897  41.4241568  27.3225561
  55.4150338  40.5152246  27.2692615  54.2184933  41.4029307  27.0006564
  67.0282976  53.1448832  34.1275970  66.9034115  52.3438571  33.6186915
  67.6862067  53.6395025  33.6389940  58.6491144  39.4997564  33.3053110
  57.9277730  40.1133532  33.1660583  59.4384400  40.0355329  33.2269756
  69.0917884  50.9457852  35.7555520  68.1448220  50.8263203  35.6833847
  69.4400657  50.0580350  35.8381781  61.4517458  36.8351991  39.5793762
  61.9751859  37.0814287  40.3420071  61.2329791  37.6672025  39.1596899
  56.8484739  39.1055665  27.4464886  56.5197445  38.2253044  27.2639992
  57.2024109  39.0503334  28.3341276  66.0964318  50.7410568  31.9559872
  65.9489280  49.8127275  32.1367442  66.9217811  50.7630659  31.4716947
  59.9626562  39.3928635  27.8140364  60.3022634  39.9214556  27.0918973
  60.4098682  39.7309041  28.5898931  69.6998439  51.5639127  33.0424745
  70.6244987  51.3581988  32.9049196  69.5313743  51.3155528  33.9514086
  62.6570003  37.7765686  37.2643432  62.3166823  36.9773499  37.6664112
  61.9509009  38.0767397  36.6920265  63.3086475  34.8614998  35.7170755
  64.1312544  34.3875476  35.5949646  63.5524538  35.6405482  36.2169442
  61.9494709  37.8903257  26.0133657  62.6703072  38.2684509  25.5097374
  61.3260013  38.6092133  26.1168635  66.0925832  38.5948406  26.9491989
  66.3089446  39.4773043  26.6480817  65.6119899  38.2034619  26.2197631
  60.8325053  41.5534119  33.5262734  60.6869634  41.8674422  34.4187015
  60.3550257  42.1719019  32.9733632  62.6921436  38.5436667  33.5743623
  62.6783005  37.6477760  33.2375921  63.4093864  38.5507331  34.2081909
  64.5447567  38.9774007  35.6196751  64.2865345  39.8991078  35.6181081
  64.0132607  38.5804442  36.3097215  69.4893756  52.0824794  28.3986836
  69.6630633  51.5171217  27.6460689  69.9822647  52.8825689  28.2166326
  62.0958332  37.4251047  28.8431194  62.2174243  36.4967693  29.0422081
  61.8060374  37.4389733  27.9309509  64.9649523  35.1105958  31.9797913
  64.9871219  35.1745291  31.0249893  65.3817582  34.2710466  32.1738420
  75.3433147  44.8461217  30.0177136  75.7864293  44.0968542  29.6196259
  74.4659657  44.8371353  29.6350868  70.4768928  51.3991559  25.4983735
  71.1719833  52.0198251  25.7171049  70.8192078  50.5486910  25.7736112
  72.3760351  48.8491264  27.0271065  72.9011675  49.1878537  26.3020385
  72.2882704  47.9138279  26.8434200  64.0601012  54.9163247  31.3866318
  63.6206002  54.4239626  32.0799175  64.8109129  54.3736215  31.1458394
  61.5799412  38.9383044  43.0521126  61.6287567  39.8145167  42.6698896
  62.1221926  38.3960438  42.4792769  72.0654257  49.4824168  42.3322263
  71.2749801  49.4648307  41.7926763  71.8287612  50.0212461  43.0871300
  72.1852132  46.3316634  39.6454992  72.2350137  46.1666642  40.5870515
  72.0766056  45.4643893  39.2552873  61.0688391  49.0105180  26.9347081
  61.2176511  49.6940644  26.2813753  61.8754835  48.9910270  27.4496536
  69.4755895  42.3147562  40.9614298  70.3765758  42.1754027  40.6698296
  69.5503869  42.4802017  41.9012476  63.8098700  39.6914417  39.8067485
  62.9402010  39.9847983  39.5350073  64.0458180  40.2754862  40.5274748
  73.6870329  48.7513576  39.8897013  73.3955138  49.1143556  40.7260474
  73.0742460  48.0380584  39.7110345  74.8866012  46.3166455  32.4099584
  75.7212903  46.7556259  32.5737144  75.0225140  45.8405109  31.5907829
  71.9357517  43.8746190  38.3577071  72.4111639  44.0673837  37.5495923
  71.0123083  43.9305376  38.1120455  58.8241024  45.0370357  27.9408150
  58.5787066  44.1332687  28.1388360  58.9936939  45.0387508  26.9987628
  66.5137734  35.9094034  37.3232905  67.0319678  36.6455061  36.9979394
  66.1592867  36.2158027  38.1579664  58.0936672  40.7698715  25.4394311
  57.4005917  40.8443070  24.7834347  57.8488423  40.0059059  25.9615828
  66.7650328  32.3294316  32.8433802  67.0452082  31.6617505  33.4694228
  67.5500935  32.5223412  32.3308466  64.5683797  51.5053310  24.4058828
  63.9957764  52.1243497  23.9529300  65.1416590  52.0552672  24.9398750
  70.6359186  40.7511950  36.5905377  71.5876609  40.8510048  36.6117601
  70.4662637  39.9590219  37.1003461  68.6573566  37.8367534  36.7764778
  68.0623498  38.1172546  36.0811266  68.3723263  38.3261434  37.5481519
  67.7881056  51.7890460  25.5367410  68.7211730  51.7236022  25.7400286
  67.7004269  52.6246727  25.0781943  70.4169073  51.1056331  22.4971358
  70.3382705  50.7716194  23.3907116  71.2378740  51.5978099  22.4962830
  73.1147264  43.9718070  35.7047677  73.0823584  43.0334071  35.8907360
  73.7247888  44.0502107  34.9713501  64.9530595  42.8414123  21.7474881
  65.8989700  42.7120331  21.8163299  64.5744840  42.1028785  22.2244309
  73.2641753  40.7629113  35.7505960  72.7480801  39.9787570  35.5635889
  74.1481701  40.4347830  35.9152479  70.9252480  34.5070129  31.7101772
  70.7277301  34.1985217  32.5945104  71.5352185  35.2331768  31.8399702
  78.9323814  45.0334077  34.8453713  79.6627203  44.7719365  35.4061417
  78.3230760  44.2962799  34.8855781  77.0139111  43.1741939  35.4428165
  76.2872275  43.0397904  34.8344656  76.5986398  43.4818768  36.2484883
  63.1373512  40.7664099  21.6829766  62.2304968  40.4697212  21.7592479
  63.4149493  40.4693917  20.8164052  64.7535578  35.3100989  27.8374007
  63.9436306  34.9648074  28.2129253  65.4419995  35.0008533  28.4261619
  66.6826126  34.3879036  29.4598304  67.2357165  34.8074489  30.1188327
  66.9196213  33.4614784  29.5021260  61.9072297  37.6251035  21.8241745
  62.7691461  37.9505933  22.0837562  62.0922641  36.8382530  21.3114811
  70.0604933  36.4979561  28.9676968  69.4803602  37.1564365  28.5855020
  69.7940866  35.6756906  28.5564386  68.5108500  35.8984619  31.1698288
  69.0108278  36.0101153  30.3612607  69.1544108  35.5945672  31.8099097
  68.8429811  38.6579651  28.0233316  67.9555666  38.9429302  27.8053511
  69.2583800  38.4973415  27.1760593  72.1944348  38.6826172  31.7387656
  72.9704738  39.1722625  32.0112272  71.4692482  39.1084227  32.1959525
  74.6316906  39.3953792  32.7961596  75.2261397  39.1549528  32.0854904
  74.7043490  38.6760922  33.4235132  67.9873025  48.4224326  22.1181336
  68.6908875  48.6274329  22.7338992  67.2635674  48.9901088  22.3830420
  68.8170835  44.1734187  28.2383606  68.7606037  44.6302739  27.3991239
  69.3699178  43.4124872  28.0606449  72.6275641  39.9623919  29.0633726
  72.3712575  39.5620555  29.8941934  72.0028509  40.6767713  28.9383865
  76.9387979  42.7019992  31.5705017  76.3787537  42.7713182  32.3436579
  76.3331482  42.5260977  30.8504514  69.8959722  48.8606855  24.1679796
  70.7305326  48.4288054  23.9857271  69.7344065  48.6888869  25.0956691
  69.5505614  45.3638969  25.5336136  69.4954418  45.1983240  24.5924580
  68.9251670  46.0715002  25.6898325  62.8601740  34.8647078  25.1121454
  62.8480410  35.8088918  25.2689725  63.7525162  34.6817223  24.8180915
  66.6753859  31.4589854  29.3667391  65.9086255  30.9048341  29.5124073
  67.0864564  31.5311723  30.2281542  78.5243997  59.3776506  34.2634973
  79.1622407  59.2583254  33.5598313  78.4064840  60.3257350  34.3222925
  75.3333704  59.3303935  34.1996498  74.9952215  59.2144999  33.3117033
  76.2023472  58.9295100  34.1797504  71.1920519  61.1839411  30.1893389
  70.6285384  61.0929348  29.4209676  71.0772914  60.3639315  30.6695881
  75.8153487  60.4838786  40.1582703  75.8042127  60.0891585  39.2863207
  75.9774126  59.7504859  40.7516475  68.7384951  62.6790603  33.0277609
  69.5306243  62.3381427  32.6123908  68.9781601  62.7885578  33.9479762
  76.7720078  64.8510379  25.5007854  76.1208058  65.4364459  25.1141867
  77.5664441  65.3816574  25.5602891  70.6975705  61.9399516  25.8994988
  71.4706581  61.3928503  25.7607864  71.0501104  62.8043765  26.1109449
  73.4616955  60.6452747  35.6963247  74.0580527  60.4208769  34.9820210
  73.5191926  59.9037492  36.2988695  73.0341983  58.0992182  23.5313438
  73.2867504  57.5773703  22.7696901  72.0966542  57.9358327  23.6340121
  78.0785266  57.1027960  31.3388181  78.8648355  56.6847383  30.9878598
  78.3423970  58.0074052  31.5069829  78.2495343  62.5400811  26.0376838
  77.6141176  62.6135437  26.7497743  77.9192750  63.1294409  25.3595917
  83.4793693  57.0403193  32.2421160  84.2118865  56.4702410  32.4758989
  82.7233049  56.6524794  32.6827665  72.7538272  60.0020288  25.7337813
  72.6374530  59.3265191  26.4018897  72.8640532  59.5152662  24.9169966
  75.0969813  59.4630435  29.4384502  74.7328020  58.9361056  30.1497424
  75.9536929  59.0728904  29.2650987  81.0019113  50.7524768  36.7015768
  80.6702438  51.6220179  36.4776983  80.4064727  50.4361052  37.3809799
  74.7375300  54.4920335  24.4345851  74.9049702  55.3600571  24.8016322
  74.5472469  54.6547616  23.5107140  77.4950633  62.9537314  36.1011681
  77.1951356  63.8562352  35.9927488  77.1501692  62.6869497  36.9532834
  70.9463114  59.4051110  32.1348385  70.0213611  59.2727325  32.3426077
  71.1947528  60.1845330  32.6318328  80.8947777  55.4719854  33.7809118
  79.9864654  55.4035262  33.4867879  80.8435372  55.9491799  34.6090944
  74.7164521  56.9477992  25.4192517  74.5964146  57.3935043  26.2577998
  74.0217109  57.2963310  24.8606056  68.3071925  59.0484384  32.9692174
  68.4364307  59.3018863  33.8831586  67.6269377  59.6412092  32.6496830
  74.9688642  56.8909499  41.7244016  74.1921976  57.4503419  41.7146880
  75.6079205  57.3766282  42.2458886  82.7609423  53.6736292  35.5586992
  82.1183803  53.9668825  34.9126787  82.2564352  53.5589212  36.3640189
  80.4149587  57.4199465  26.2472851  81.3267443  57.6526852  26.0720549
  79.9059234  58.0036510  25.6847930  78.6990354  61.8424093  39.8834144
  79.1073710  61.4006504  39.1388776  77.9767616  61.2676721  40.1368337
  75.0521424  56.7796700  37.2567701  75.8982620  57.2036113  37.4002350
  74.9920062  56.1230324  37.9506264  79.0219169  62.4025284  33.6386433
  78.3928031  62.5670998  32.9362501  78.6344831  62.8166893  34.4097397
  82.9008401  63.3379722  30.9930797  82.2159439  63.7178623  30.4427830
  82.9852250  63.9475048  31.7262744  78.2020870  54.4401068  38.9148875
  77.9581802  55.1943129  38.3783150  78.4780800  54.8186416  39.7496122
  80.1559332  60.9839681  37.5926140  80.3676228  61.6271441  36.9160521
  80.1089081  60.1501997  37.1248070  77.7585561  53.5957501  34.4962712
  76.8970040  53.8938755  34.7879450  77.7847996  53.8127900  33.5643745
  74.5747131  62.1399692  30.9036518  75.0385476  62.4187395  30.1141141
  74.3103929  61.2383136  30.7209609  71.4671212  61.6871173  33.8416281
  72.0372569  62.1158442  33.2033766  72.0579324  61.4053758  34.5400467
  73.5116017  58.2622844  27.7126083  74.2140060  58.7143888  28.1800010
  73.1796645  57.6206663  28.3405976  67.2541351  56.5206397  33.0143217
  66.4640405  56.7763925  32.5383327  67.7452598  57.3354735  33.1195257
  81.2705160  63.8611636  35.7648498  82.0922604  63.4591823  35.4831179
  81.2667563  63.7579870  36.7164613  69.2056096  56.8850976  29.9726693
  68.4087260  56.9969670  30.4910189  68.9781688  57.2237628  29.1067584
  75.0361764  63.4095679  37.9209208  75.1006196  63.8716087  38.7567380
  74.3272688  62.7793044  38.0491518  65.5379054  56.7736887  35.4458208
  65.7887092  57.6583897  35.7115783  66.0738602  56.5941489  34.6733299
  89.3611153  60.2050385  32.1133469  88.6074862  59.6357783  31.9577473
  89.4958695  60.1713049  33.0604104  74.7509782  65.0763787  27.7888188
  74.6155456  65.9215323  28.2173036  75.2919594  65.2783065  27.0254122
  71.2377121  51.1555367  44.4502544  70.8444067  50.6021565  45.1250188
  72.0543262  51.4665945  44.8409061  68.2039179  62.5939225  28.3616113
  68.7163700  63.3882475  28.5121678  68.8561892  61.8965515  28.2949715
  70.0134064  65.7104981  30.4438867  70.1900692  66.6322946  30.2559851
  70.8090897  65.3963400  30.8733246  74.1545082  52.5713246  42.0422800
  74.8954796  53.1720399  41.9627263  74.3863005  51.8290884  41.4840843
  78.4759496  65.9790153  39.9469932  78.4577971  66.7999034  39.4550201
  79.3979416  65.8544229  40.1720073  78.1002245  48.5994349  36.3187082
  77.7566515  49.4895990  36.2426192  78.4681208  48.4096006  35.4556667
  66.1688096  60.9227879  29.1375684  67.0063318  61.3324888  28.9209392
  66.3466363  59.9827321  29.1075878  78.0652528  58.5902960  24.8259517
  77.5499151  59.3607564  25.0647904  77.7929836  57.9168096  25.4492578
  75.6499639  53.4352661  29.8844755  74.7941235  53.0459511  29.7050394
  76.0626591  53.5144621  29.0244541  77.1798786  50.9699004  34.2836315
  76.6763581  50.9329139  33.4704120  77.4729392  51.8791747  34.3432972
  73.4241671  51.0537734  33.2902497  74.2894668  50.8580542  32.9308386
  73.4919180  50.8248085  34.2171854  83.0386802  61.3435314  26.7612690
  82.2616245  61.0046474  26.3167853  83.7178283  61.3487938  26.0867655
  77.8538831  56.4630052  26.6519298  77.5488967  56.7776201  27.5029441
  78.8069273  56.5411472  26.6946631  76.2985263  62.6220275  28.3012252
  75.7706624  61.8873035  27.9885490  75.7972766  63.3994952  28.0552220
  81.2778109  60.8169296  33.4179298  80.6201783  61.5068557  33.5059427
  82.0818508  61.2065728  33.7613285  71.0303990  53.2839942  30.6618864
  71.6047742  53.0615123  29.9292057  71.6174973  53.3528636  31.4147465
  80.0883568  59.1713668  31.4683240  80.6015449  59.8043660  31.9704950
  80.7384792  58.5714864  31.1026600  71.3573578  55.3144403  24.6814749
  70.5210890  55.6519089  25.0024024  71.2178347  55.1793382  23.7441886
  73.3326658  50.1581190  29.3893933  72.6791071  49.8430208  28.7650548
  73.2907132  49.5356931  30.1153756  74.4437863  60.4400486  21.3047225
  73.5364925  60.2089739  21.5038374  74.9408895  59.6438105  21.4921207
  77.3505942  69.1497993  24.2243911  76.6767641  69.4529689  24.8328869
  77.7371764  69.9527073  23.8749368  76.5664399  56.6463124  33.7141581
  75.6486960  56.8678071  33.5563269  76.9824542  56.7209434  32.8553288
  77.3499446  58.0454540  28.8444261  78.0971265  58.5575937  28.5351383
  77.6191036  57.7238592  29.7048655  75.6226096  60.5413080  25.8271215
  74.7137316  60.2572113  25.9243685  75.6521180  60.9612159  24.9674522
  80.8545364  64.1519670  29.5962383  80.4007691  63.3110580  29.6527573
  80.2239331  64.7881068  29.9337163  79.7978283  55.0811656  30.8263050
  79.0601040  54.5689042  31.1573293  80.0505057  54.6412038  30.0146327
  79.2978303  65.9896167  30.5312201  79.5901278  66.5501224  29.8124567
  79.8076924  66.2824728  31.2865360  79.8989911  47.8587908  31.4204820
  80.2048788  46.9985271  31.1330735  80.6242516  48.4505528  31.2203813
  66.1914267  58.2618595  29.8086417  65.9938667  57.6687955  29.0837484
  65.6360931  57.9570805  30.5262356  74.1710991  58.1541701  31.9281011
  74.2259600  57.2015537  31.8523487  73.3602193  58.3101140  32.4122309
  75.3202184  62.0821824  23.1659294  74.8821614  61.3657683  22.7064931
  76.0612625  62.3097939  22.6044385  72.1103350  56.7718761  29.6871389
  71.2971216  57.0712931  30.0936582  72.6062345  56.3774450  30.4045872
  74.2611928  66.7676518  31.6205654  74.2188107  66.9937364  30.6914186
  75.1774627  66.5339892  31.7691455  77.7077562  57.2360585  38.5186283
  78.0626950  57.4632058  39.3780749  78.3549693  57.5678962  37.8963539
  83.4375299  60.3579021  29.2235612  83.2993198  60.5480617  28.2956802
  83.0811518  61.1198404  29.6803664  71.6017425  54.3437116  35.3032624
  72.2416805  54.2025875  34.6055588  70.7694956  54.0571630  34.9271226
  83.4644679  62.4255548  34.2346884  83.8981185  62.3330837  35.0829938
  84.1776259  62.4013049  33.5966900  72.3777729  63.6439547  31.4167617
  73.1718328  63.1489867  31.2150192  71.6669421  63.1157410  31.0535322
  77.1972574  66.0257642  35.7679984  77.2509596  66.5948579  36.5357700
  76.3287355  66.1959527  35.4034022  68.6860493  57.7882628  27.4927370
  67.7558081  57.7267084  27.7097332  68.7817965  57.2658581  26.6964011
  68.6046042  54.3137441  30.0805611  68.8652859  55.2282774  29.9714772
  69.4263214  53.8461884  30.2302224  84.3260228  62.4679249  36.7679769
  84.5196118  63.3725059  37.0139044  84.2260846  62.0086668  37.6018354
  75.9796539  52.3537139  39.2670097  75.3324454  53.0527089  39.1734573
  76.7497554  52.7873283  39.6346345  79.3875337  62.6185992  42.3420650
  79.2360843  62.3896543  41.4250734  79.3780016  63.5756593  42.3551995
  76.1560673  60.1917904  37.3266916  77.0852733  60.3429064  37.1535884
  75.7351703  60.2801925  36.4715563  74.9549005  64.2168569  35.0965454
  74.8160091  63.8487353  35.9691392  74.1663601  64.7316208  34.9249412
  75.5497157  69.3177665  26.4390990  75.7248913  68.8465708  27.2536613
  74.8629945  69.9443431  26.6672251  76.5054220  63.5950171  32.4854292
  76.1704053  63.5550941  33.3811942  76.0058166  62.9294887  32.0124702
  79.4413412  60.9406206  22.7591351  78.8242583  60.2153034  22.6624404
  78.9729900  61.7015566  22.4158426  73.1080765  58.7137761  37.4990553
  73.8180383  58.0730953  37.4577171  73.0650073  58.9650656  38.4216733
  81.0967544  65.6505114  40.4197132  81.0380090  64.9664334  39.7527715
  81.4987062  66.3924104  39.9677758  71.2311958  55.1591630  21.8812656
  70.3541424  55.0380431  21.5174902  71.7069711  54.3677708  21.6291544
  81.0984951  63.6144698  38.6511111  80.2111730  63.2770620  38.7737510
  81.6683502  62.8827729  38.8879877  62.7514098  59.9468790  31.9754163
  63.4385138  59.6330520  31.3875178  62.5962227  60.8510154  31.7021414
  74.6286104  68.2746150  35.6172355  74.5556276  69.0801122  36.1291659
  74.1863497  68.4738116  34.7920376  74.4175884  67.5117920  29.1275176
  73.6343406  68.0539601  29.2213401  75.1168629  68.0291900  29.5269417
  77.7272534  53.3212550  31.7709382  78.2241233  52.5682512  31.4510452
  76.9559515  53.3576866  31.2052591  85.5802291  59.0252915  33.4127673
  85.5692168  59.9077631  33.0421606  84.7119671  58.6724466  33.2182210
  77.0884788  68.1732984  37.7730513  77.8012760  68.8080449  37.7006415
  76.5974816  68.2696850  36.9570515  78.8102315  62.0784237  29.3447805
  77.8758593  62.1985700  29.1752509  78.9878983  61.1756704  29.0807815
  74.3107503  55.4629933  31.4981066  73.9405290  54.9100973  32.1861972
  74.8066595  54.8588066  30.9456066  82.1974866  57.9201556  29.8797839
  82.6635318  58.7529548  29.8058142  82.6482366  57.4546538  30.5843098
  80.2651097  64.2645378  26.8783991  80.5410941  64.1501972  27.7877865
  79.3955596  63.8662862  26.8396164  80.1691529  50.2882143  33.9188740
  79.2554609  50.5186370  34.0870947  80.5984630  50.3720587  34.7702773
  79.9397987  58.4772035  36.4188634  79.2869437  58.7247943  35.7641087
  80.3178367  57.6636173  36.0851112  76.9005161  68.5131728  30.5216805
  77.0827556  67.6953384  30.9844557  77.7238147  68.7299421  30.0841695
  77.2347327  67.4399914  27.7831853  77.7635093  66.9292368  27.1702015
  77.4975546  67.1242444  28.6477386  62.3282074  58.0269383  34.2471630
  62.3666174  57.4932974  35.0408748  61.8222367  57.5004589  33.6282607
  74.7308343  70.5258774  37.1412288  75.2826651  70.6890395  37.9061373
  75.0714537  71.1163212  36.4692312  65.9590652  56.7533485  27.3225561
  66.2544093  55.8444164  27.2692615  65.0578687  56.7321225  27.0006564
  77.8676730  68.4740749  34.1275970  77.7427870  67.6730489  33.6186915
  78.5255822  68.9686943  33.6389940  69.4884899  54.8289482  33.3053110
  68.7671484  55.4425450  33.1660583  70.2778154  55.3647247  33.2269756
  79.9311639  66.2749769  35.7555520  78.9841974  66.1555121  35.6833847
  80.2794412  65.3872267  35.8381781  72.2911212  52.1643908  39.5793762
  72.8145614  52.4106205  40.3420071  72.0723545  52.9963943  39.1596899
  67.6878493  54.4347583  27.4464886  67.3591199  53.5544962  27.2639992
  68.0417864  54.3795252  28.3341276  76.9358072  66.0702486  31.9559872
  76.7883035  65.1419193  32.1367442  77.7611566  66.0922576  31.4716947
  70.8020316  54.7220553  27.8140364  71.1416389  55.2506474  27.0918973
  71.2492437  55.0600959  28.5898931  80.5392194  66.8931044  33.0424745
  81.4638741  66.6873906  32.9049196  80.3707497  66.6447446  33.9514086
  73.4963757  53.1057603  37.2643432  73.1560578  52.3065416  37.6664112
  72.7902763  53.4059314  36.6920265  74.1480229  50.1906916  35.7170755
  74.9706298  49.7167394  35.5949646  74.3918293  50.9697400  36.2169442
  72.7888464  53.2195174  26.0133657  73.5096826  53.5976427  25.5097374
  72.1653768  53.9384051  26.1168635  76.9319586  53.9240323  26.9491989
  77.1483201  54.8064961  26.6480817  76.4513654  53.5326537  26.2197631
  71.6718808  56.8826037  33.5262734  71.5263389  57.1966340  34.4187015
  71.1944011  57.5010937  32.9733632  73.5315191  53.8728584  33.5743623
  73.5176759  52.9769678  33.2375921  74.2487619  53.8799248  34.2081909
  75.3841321  54.3065925  35.6196751  75.1259099  55.2282995  35.6181081
  74.8526362  53.9096359  36.3097215  80.3287510  67.4116712  28.3986836
  80.5024388  66.8463134  27.6460689  80.8216401  68.2117607  28.2166326
  72.9352087  52.7542965  28.8431194  73.0567998  51.8259611  29.0422081
  72.6454129  52.7681651  27.9309509  75.8043277  50.4397875  31.9797913
  75.8264974  50.5037208  31.0249893  76.2211336  49.6002384  32.1738420
  86.1826901  60.1753135  30.0177136  86.6258047  59.4260460  29.6196259
  85.3053412  60.1663271  29.6350868  81.3162683  66.7283476  25.4983735
  82.0113587  67.3490169  25.7171049  81.6585833  65.8778827  25.7736112
  83.2154106  64.1783182  27.0271065  83.7405430  64.5170455  26.3020385
  83.1276458  63.2430197  26.8434200  74.8994767  70.2455165  31.3866318
  74.4599757  69.7531544  32.0799175  75.6502883  69.7028133  31.1458394
  67.3787105  66.4366706  31.3890947  68.2045125  66.1370478  31.0089590
  67.0281157  65.6674328  31.8380735  72.3468639  65.7893174  33.4588620
  71.7248648  65.1263879  33.1590848  73.0173506  65.8154306  32.7762268
  65.5795711  64.3553032  32.3479880  64.7427619  63.9275207  32.1663881
  65.5519356  64.5485476  33.2850671  72.4193166  54.2674962  43.0521126
  72.4681322  55.1437085  42.6698896  72.9615680  53.7252355  42.4792769
  82.9048012  64.8116085  42.3322263  82.1143556  64.7940224  41.7926763
  82.6681366  65.3504379  43.0871300  83.0245887  61.6608552  39.6454992
  83.0743892  61.4958559  40.5870515  82.9159810  60.7935811  39.2552873
  71.9082146  64.3397097  26.9347081  72.0570266  65.0232562  26.2813753
  72.7148589  64.3202188  27.4496536  80.3149649  57.6439480  40.9614298
  81.2159512  57.5045945  40.6698296  80.3897624  57.8093935  41.9012476
  74.6492455  55.0206335  39.8067485  73.7795764  55.3139901  39.5350073
  74.8851935  55.6046780  40.5274748  84.5264084  64.0805493  39.8897013
  84.2348892  64.4435474  40.7260474  83.9136215  63.3672502  39.7110345
  85.7259766  61.6458373  32.4099584  86.5606657  62.0848177  32.5737144
  85.8618895  61.1697026  31.5907829  82.7751272  59.2038108  38.3577071
  83.2505394  59.3965754  37.5495923  81.8516837  59.2597294  38.1120455
  69.6634779  60.3662275  27.9408150  69.4180820  59.4624605  28.1388360
  69.8330693  60.3679426  26.9987628  77.3531488  51.2385951  37.3232905
  77.8713432  51.9746978  36.9979394  76.9986621  51.5449945  38.1579664
  68.9330426  56.0990633  25.4394311  68.2399671  56.1734988  24.7834347
  68.6882178  55.3350976  25.9615828  77.6044083  47.6586234  32.8433802
  77.8845836  46.9909423  33.4694228  78.3894690  47.8515330  32.3308466
  75.4077551  66.8345228  24.4058828  74.8351518  67.4535415  23.9529300
  75.9810345  67.3844590  24.9398750  81.4752941  56.0803868  36.5905377
  82.4270364  56.1801966  36.6117601  81.3056391  55.2882137  37.1003461
  79.4967320  53.1659451  36.7764778  78.9017253  53.4464464  36.0811266
  79.2117017  53.6553352  37.5481519  78.6274811  67.1182378  25.5367410
  79.5605484  67.0527940  25.7400286  78.5398024  67.9538645  25.0781943
  81.2562828  66.4348248  22.4971358  81.1776459  66.1008112  23.3907116
  82.0772494  66.9270016  22.4962830  83.9541019  59.3009988  35.7047677
  83.9217339  58.3625988  35.8907360  84.5641642  59.3794024  34.9713501
  75.7924350  58.1706041  21.7474881  76.7383454  58.0412249  21.8163299
  75.4138595  57.4320703  22.2244309  84.1035507  56.0921031  35.7505960
  83.5874556  55.3079488  35.5635889  84.9875456  55.7639748  35.9152479
  81.7646234  49.8362047  31.7101772  81.5671055  49.5277135  32.5945104
  82.3745940  50.5623686  31.8399702  89.7717569  60.3625995  34.8453713
  90.5020957  60.1011283  35.4061417  89.1624514  59.6254716  34.8855781
  87.8532866  58.5033857  35.4428165  87.1266029  58.3689822  34.8344656
  87.4380153  58.8110686  36.2484883  73.9767267  56.0956017  21.6829766
  73.0698722  55.7989130  21.7592479  74.2543248  55.7985835  20.8164052
  64.8945207  57.4162380  32.1328812  64.5747991  56.5627689  31.8403186
  64.3478635  57.6310959  32.8886780  68.6725115  60.1324821  35.8498319
  68.8911124  61.0641929  35.8686353  69.0850888  59.7732796  36.6353123
  75.5929332  50.6392907  27.8374007  74.7830061  50.2939992  28.2129253
  76.2813749  50.3300450  28.4261619  77.5219881  49.7170954  29.4598304
  78.0750919  50.1366407  30.1188327  77.7589967  48.7906702  29.5021260
  72.7466051  52.9542952  21.8241745  73.6085215  53.2797851  22.0837562
  72.9316396  52.1674448  21.3114811  64.7633467  61.0365292  34.1021934
  64.0696939  60.6219245  33.5891888  65.5106458  61.0785828  33.5055353
  80.8998688  51.8271479  28.9676968  80.3197357  52.4856283  28.5855020
  80.6334621  51.0048823  28.5564386  79.3502254  51.2276536  31.1698288
  79.8502033  51.3393071  30.3612607  79.9937862  50.9237589  31.8099097
  66.6770210  60.9683546  31.9787949  66.6540898  61.0671233  31.0269832
  66.9870846  61.8148697  32.3005115  69.3357588  63.0259701  36.0934563
  70.2900841  62.9943643  36.0264495  69.1370111  62.5650324  36.9084789
  79.6823566  53.9871569  28.0233316  78.7949421  54.2721220  27.8053511
  80.0977555  53.8265332  27.1760593  83.0338102  54.0118090  31.7387656
  83.8098492  54.5014543  32.0112272  82.3086236  54.4376144  32.1959525
  85.4710661  54.7245709  32.7961596  86.0655151  54.4841445  32.0854904
  85.5437244  54.0052840  33.4235132  78.8266779  63.7516244  22.1181336
  79.5302629  63.9566246  22.7338992  78.1029428  64.3193006  22.3830420
  79.6564590  59.5026105  28.2383606  79.5999791  59.9594656  27.3991239
  80.2092932  58.7416790  28.0606449  83.4669396  55.2915837  29.0633726
  83.2106330  54.8912473  29.8941934  82.8422264  56.0059631  28.9383865
  87.7781733  58.0311910  31.5705017  87.2181291  58.1005099  32.3436579
  87.1725237  57.8552895  30.8504514  80.7353477  64.1898773  24.1679796
  81.5699081  63.7579971  23.9857271  80.5737820  64.0180787  25.0956691
  80.3899369  60.6930886  25.5336136  80.3348173  60.5275158  24.5924580
  79.7645424  61.4006919  25.6898325  73.6995494  50.1938995  25.1121454
  73.6874164  51.1380835  25.2689725  74.5918916  50.0109141  24.8180915
  73.6285058  68.8707886  33.1989211  72.6780689  68.8709747  33.0853583
  73.9317544  68.1240620  32.6825245  77.5147614  46.7881772  29.3667391
  76.7480010  46.2340259  29.5124073  77.9258319  46.8603641  30.2281542
  89.3637752  74.7068424  34.2634973  90.0016162  74.5875171  33.5598313
  89.2458595  75.6549268  34.3222925  86.1727458  74.6595852  34.1996498
  85.8345970  74.5436917  33.3117033  87.0417226  74.2587017  34.1797504
  82.0314274  76.5131329  30.1893389  81.4679139  76.4221266  29.4209676
  81.9166669  75.6931233  30.6695881  86.6547241  75.8130704  40.1582703
  86.6435882  75.4183502  39.2863207  86.8167881  75.0796777  40.7516475
  79.5778706  78.0082520  33.0277609  80.3699998  77.6673345  32.6123908
  79.8175356  78.1177495  33.9479762  87.6113833  80.1802296  25.5007854
  86.9601812  80.7656377  25.1141867  88.4058195  80.7108491  25.5602891
  81.5369460  77.2691433  25.8994988  82.3100336  76.7220421  25.7607864
  81.8894859  78.1335683  26.1109449  83.3754502  78.5967816  39.1061887
  83.0844368  79.5013447  38.9908554  84.0111487  78.6384343  39.8205957
  84.3010709  75.9744664  35.6963247  84.8974281  75.7500687  34.9820210
  84.3585681  75.2329410  36.2988695  83.8735738  73.4284100  23.5313438
  84.1261258  72.9065621  22.7696901  82.9360297  73.2650245  23.6340121
  88.9179020  72.4319878  31.3388181  89.7042110  72.0139301  30.9878598
  89.1817725  73.3365970  31.5069829  89.0889098  77.8692728  26.0376838
  88.4534931  77.9427355  26.7497743  88.7586504  78.4586327  25.3595917
  94.3187447  72.3695111  32.2421160  95.0512619  71.7994328  32.4758989
  93.5626803  71.9816712  32.6827665  83.5932026  75.3312206  25.7337813
  83.4768284  74.6557109  26.4018897  83.7034286  74.8444579  24.9169966
  85.9363567  74.7922353  29.4384502  85.5721774  74.2652974  30.1497424
  86.7930683  74.4020822  29.2650987  91.8412868  66.0816685  36.7015768
  91.5096193  66.9512096  36.4776983  91.2458481  65.7652969  37.3809799
  85.5769054  69.8212252  24.4345851  85.7443456  70.6892489  24.8016322
  85.3866223  69.9839534  23.5107140  88.3344387  78.2829231  36.1011681
  88.0345110  79.1854270  35.9927488  87.9895447  78.0161414  36.9532834
  81.7856869  74.7343028  32.1348385  80.8607365  74.6019242  32.3426077
  82.0341282  75.5137247  32.6318328  91.7341531  70.8011771  33.7809118
  90.8258408  70.7327180  33.4867879  91.6829127  71.2783716  34.6090944
  85.5558275  72.2769910  25.4192517  85.4357900  72.7226961  26.2577998
  84.8610863  72.6255228  24.8606056  79.1465680  74.3776302  32.9692174
  79.2758061  74.6310781  33.8831586  78.4663131  74.9704010  32.6496830
  83.3165167  85.0473552  29.0682649  83.2389197  85.9981377  29.1471129
  82.7126811  84.7019424  29.7257575  85.8082397  72.2201417  41.7244016
  85.0315731  72.7795337  41.7146880  86.4472960  72.7058200  42.2458886
  93.6003178  69.0028210  35.5586992  92.9577558  69.2960743  34.9126787
  93.0958106  68.8881130  36.3640189  91.2543341  72.7491383  26.2472851
  92.1661197  72.9818770  26.0720549  90.7452988  73.3328427  25.6847930
  84.0628769  75.0286870  41.2861983  84.8043454  75.5671914  41.0096806
  83.3565755  75.6553159  41.4433534  89.5384109  77.1716011  39.8834144
  89.9467465  76.7298421  39.1388776  88.8161370  76.5968638  40.1368337
  85.8915179  72.1088618  37.2567701  86.7376374  72.5328031  37.4002350
  85.8313817  71.4522242  37.9506264  89.8612923  77.7317201  33.6386433
  89.2321786  77.8962916  32.9362501  89.4738586  78.1458811  34.4097397
  93.7402155  78.6671639  30.9930797  93.0553194  79.0470541  30.4427830
  93.8246005  79.2766966  31.7262744  89.0414624  69.7692986  38.9148875
  88.7975556  70.5235046  38.3783150  89.3174555  70.1478334  39.7496122
  90.9953087  76.3131598  37.5926140  91.2069982  76.9563358  36.9160521
  90.9482835  75.4793915  37.1248070  88.5979316  68.9249419  34.4962712
  87.7363795  69.2230673  34.7879450  88.6241751  69.1419818  33.5643745
  85.4140885  77.4691610  30.9036518  85.8779231  77.7479313  30.1141141
  85.1497683  76.5675054  30.7209609  82.3064966  77.0163091  33.8416281
  82.8766323  77.4450359  33.2033766  82.8973078  76.7345676  34.5400467
  84.3509771  73.5914762  27.7126083  85.0533815  74.0435806  28.1800010
  84.0190400  72.9498581  28.3405976  82.7990133  72.1826519  42.0877293
  82.1688794  72.8642799  42.3212689  82.6926221  72.0709600  41.1430431
  78.0935105  71.8498315  33.0143217  77.3034159  72.1055843  32.5383327
  78.5846353  72.6646652  33.1195257  92.1098915  79.1903554  35.7648498
  92.9316359  78.7883741  35.4831179  92.1061318  79.0871788  36.7164613
  80.0449851  72.2142894  29.9726693  79.2481014  72.3261588  30.4910189
  79.8175443  72.5529546  29.1067584  85.8755518  78.7387597  37.9209208
  85.9399951  79.2008004  38.7567380  85.1666442  78.1084962  38.0491518
  76.3772808  72.1028805  35.4458208  76.6280847  72.9875815  35.7115783
  76.9132357  71.9233407  34.6733299 100.2004908  75.5342302  32.1133469
  99.4468616  74.9649700  31.9577473 100.3352449  75.5004967  33.0604104
  85.5903536  80.4055705  27.7888188  85.4549211  81.2507240  28.2173036
  86.1313349  80.6074982  27.0254122  82.0770876  66.4847284  44.4502544
  81.6837821  65.9313483  45.1250188  82.8937016  66.7957863  44.8409061
  79.0432933  77.9231143  28.3616113  79.5557454  78.7174393  28.5121678
  79.6955646  77.2257433  28.2949715  80.8527818  81.0396899  30.4438867
  81.0294446  81.9614864  30.2559851  81.6484652  80.7255318  30.8733246
  84.9938837  67.9005163  42.0422800  85.7348550  68.5012317  41.9627263
  85.2256759  67.1582801  41.4840843  87.2172012  81.0279271  41.9188530
  86.7735867  80.2415650  41.6009435  87.8789226  81.2158422  41.2532421
  81.9759134  82.5575073  36.4449209  82.5266559  82.4292136  35.6726203
  81.1370609  82.8569962  36.0944102  89.3153250  81.3082071  39.9469932
  89.2971726  82.1290952  39.4550201  90.2373171  81.1836146  40.1720073
  85.7726305  78.8226200  40.7893440  86.3054641  78.0614489  40.5592748
  85.2440386  78.5299852  41.5317595  88.9396000  63.9286266  36.3187082
  88.5960269  64.8187908  36.2426192  89.3074962  63.7387924  35.4556667
  77.0081850  76.2519797  29.1375684  77.8457072  76.6616805  28.9209392
  77.1860118  75.3119239  29.1075878  88.9046282  73.9194878  24.8259517
  88.3892906  74.6899482  25.0647904  88.6323591  73.2460014  25.4492578
  86.4893393  68.7644578  29.8844755  85.6334990  68.3751429  29.7050394
  86.9020345  68.8436539  29.0244541  88.0192540  66.2990922  34.2836315
  87.5157336  66.2621057  33.4704120  88.3123147  67.2083664  34.3432972
  84.2635426  66.3829651  33.2902497  85.1288423  66.1872460  32.9308386
  84.3312935  66.1540003  34.2171854  93.8780556  76.6727232  26.7612690
  93.1009999  76.3338392  26.3167853  94.5572037  76.6779855  26.0867655
  88.6932585  71.7921970  26.6519298  88.3882721  72.1068119  27.5029441
  89.6463028  71.8703390  26.6946631  87.1379017  77.9512193  28.3012252
  86.6100379  77.2164953  27.9885490  86.6366520  78.7286869  28.0552220
  92.1171863  76.1461213  33.4179298  91.4595538  76.8360475  33.5059427
  92.9212263  76.5357645  33.7613285  81.8697745  68.6131859  30.6618864
  82.4441497  68.3907041  29.9292057  82.4568727  68.6820554  31.4147465
  90.9277322  74.5005586  31.4683240  91.4409204  75.1335578  31.9704950
  91.5778546  73.9006782  31.1026600  82.1967332  70.6436320  24.6814749
  81.3604644  70.9811007  25.0024024  82.0572102  70.5085300  23.7441886
  84.1720413  65.4873108  29.3893933  83.5184825  65.1722125  28.7650548
  84.1300887  64.8648849  30.1153756  85.2831618  75.7692403  21.3047225
  84.3758679  75.5381657  21.5038374  85.7802650  74.9730022  21.4921207
  88.1899696  84.4789910  24.2243911  87.5161395  84.7821607  24.8328869
  88.5765518  85.2818991  23.8749368  87.4058153  71.9755042  33.7141581
  86.4880714  72.1969989  33.5563269  87.8218297  72.0501352  32.8553288
  88.1893201  73.3746457  28.8444261  88.9365020  73.8867855  28.5351383
  88.4584790  73.0530510  29.7048655  86.4619851  75.8704998  25.8271215
  85.5531070  75.5864031  25.9243685  86.4914935  76.2904077  24.9674522
  91.6939118  79.4811588  29.5962383  91.2401445  78.6402497  29.6527573
  91.0633085  80.1172986  29.9337163  90.6372038  70.4103574  30.8263050
  89.8994795  69.8980960  31.1573293  90.8898811  69.9703955  30.0146327
  90.1372058  81.3188084  30.5312201  90.4295032  81.8793141  29.8124567
  90.6470678  81.6116645  31.2865360  90.7383665  63.1879826  31.4204820
  91.0442542  62.3277189  31.1330735  91.4636270  63.7797446  31.2203813
  77.0308021  73.5910512  29.8086417  76.8332421  72.9979873  29.0837484
  76.4754685  73.2862722  30.5262356  85.0104745  73.4833619  31.9281011
  85.0653355  72.5307455  31.8523487  84.1995947  73.6393058  32.4122309
  86.1595939  77.4113742  23.1659294  85.7215369  76.6949601  22.7064931
  86.9006380  77.6389857  22.6044385  82.9497105  72.1010678  29.6871389
  82.1364970  72.4004849  30.0936582  83.4456099  71.7066367  30.4045872
  85.1005683  82.0968435  31.6205654  85.0581862  82.3229282  30.6914186
  86.0168382  81.8631810  31.7691455  88.5471317  72.5652503  38.5186283
  88.9020704  72.7923976  39.3780749  89.1943448  72.8970880  37.8963539
  94.2769054  75.6870939  29.2235612  94.1386952  75.8772535  28.2956802
  93.9205272  76.4490322  29.6803664  82.4411180  69.6729034  35.3032624
  83.0810559  69.5317793  34.6055588  81.6088710  69.3863547  34.9271226
  94.3038433  77.7547466  34.2346884  94.7374940  77.6622755  35.0829938
  95.0170014  77.7304966  33.5966900  83.2171484  78.9731464  31.4167617
  84.0112082  78.4781785  31.2150192  82.5063176  78.4449327  31.0535322
  88.0366328  81.3549560  35.7679984  88.0903350  81.9240496  36.5357700
  87.1681109  81.5251445  35.4034022  79.5254247  73.1174546  27.4927370
  78.5951835  73.0559002  27.7097332  79.6211719  72.5950499  26.6964011
  79.4439796  69.6429359  30.0805611  79.7046613  70.5574692  29.9714772
  80.2656968  69.1753801  30.2302224  80.9164721  71.0567116  37.2504436
  81.5887775  70.8484478  36.6017085  80.0894508  70.8589202  36.8109668
  95.1653983  77.7971166  36.7679769  95.3589873  78.7016977  37.0139044
  95.0654601  77.3378586  37.6018354  86.8190293  67.6829057  39.2670097
  86.1718208  68.3819007  39.1734573  87.5891309  68.1165201  39.6346345
  90.2269091  77.9477909  42.3420650  90.0754598  77.7188461  41.4250734
  90.2173771  78.9048511  42.3551995  86.9954428  75.5209822  37.3266916
  87.9246488  75.6720982  37.1535884  86.5745458  75.6093843  36.4715563
  85.7942760  79.5460486  35.0965454  85.6553845  79.1779271  35.9691392
  85.0057356  80.0608126  34.9249412  86.3890912  84.6469583  26.4390990
  86.5642667  84.1757626  27.2536613  85.7023700  85.2735349  26.6672251
  87.3447975  78.9242089  32.4854292  87.0097807  78.8842859  33.3811942
  86.8451920  78.2586805  32.0124702  81.3192219  74.3309719  38.0106873
  81.1812017  73.5989958  38.6118412  82.2297142  74.2418619  37.7291061
  90.2807166  76.2698123  22.7591351  89.6636337  75.5444952  22.6624404
  89.8123655  77.0307484  22.4158426  83.9474519  74.0429678  37.4990553
  84.6574138  73.4022871  37.4577171  83.9043828  74.2942573  38.4216733
  91.9361298  80.9797032  40.4197132  91.8773844  80.2956252  39.7527715
  92.3380816  81.7216022  39.9677758  82.6603453  71.0294896  39.3186192
  82.1240810  70.5785635  39.9707788  82.0720162  71.1640805  38.5756656
  80.9551997  87.7958946  33.2130851  81.1948595  88.4277470  33.8909869
  80.1121193  87.4446986  33.4996210  82.0705712  70.4883548  21.8812656
  81.1935179  70.3672348  21.5174902  82.5463465  69.6969626  21.6291544
  91.9378705  78.9436616  38.6511111  91.0505484  78.6062537  38.7737510
  92.5077256  78.2119647  38.8879877  78.3942575  70.1650904  36.4039187
  78.3100763  69.5576574  35.6689596  77.5725281  70.6559922  36.4048683
  85.4679859  83.6038068  35.6172355  85.3950030  84.4093040  36.1291659
  85.0257252  83.8030034  34.7920376  85.2569638  82.8409838  29.1275176
  84.4737160  83.3831518  29.2213401  85.9562383  83.3583818  29.5269417
  88.5666288  68.6504468  31.7709382  89.0634988  67.8974430  31.4510452
  87.7953270  68.6868784  31.2052591  96.4196046  74.3544833  33.4127673
  96.4085922  75.2369548  33.0421606  95.5513425  74.0016384  33.2182210
  87.9278542  83.5024902  37.7730513  88.6406514  84.1372367  37.7006415
  87.4368571  83.5988768  36.9570515  89.6496069  77.4076155  29.3447805
  88.7152348  77.5277617  29.1752509  89.8272738  76.5048622  29.0807815
  85.1501257  70.7921851  31.4981066  84.7799045  70.2392891  32.1861972
  85.6460350  70.1879984  30.9456066  93.0368620  73.2493474  29.8797839
  93.5029073  74.0821466  29.8058142  93.4876121  72.7838456  30.5843098
  82.9790456  81.2519346  38.5936084  83.6799915  81.8855828  38.7465478
  82.5085571  81.5934077  37.8331723  91.1044852  79.5937295  26.8783991
  91.3804695  79.4793890  27.7877865  90.2349350  79.1954780  26.8396164
  91.0085283  65.6174061  33.9188740  90.0948363  65.8478288  34.0870947
  91.4378385  65.7012505  34.7702773  90.7791742  73.8063953  36.4188634
  90.1263192  74.0539860  35.7641087  91.1572122  72.9928091  36.0851112
  87.7398916  83.8423646  30.5216805  87.9221310  83.0245302  30.9844557
  88.5631902  84.0591338  30.0841695  88.0741081  82.7691831  27.7831853
  88.6028848  82.2584286  27.1702015  88.3369301  82.4534361  28.6477386
  86.8279315  74.5483764  42.9054672  86.1519952  74.4477893  43.5757047
  87.6506949  74.3922978  43.3690669  78.5758174  80.7855701  35.5267187
  79.1611611  80.0399388  35.6595091  78.3783012  81.0959657  36.4103851
  81.4296829  83.8206948  30.5429629  80.7607204  84.3053076  30.0593669
  81.2909699  84.0676168  31.4573008  85.5702098  85.8550691  37.1412288
  86.1220406  86.0182313  37.9061373  85.9108291  86.4455129  36.4692312
  80.5466591  68.2025841  37.7434172  80.6107917  69.0640672  37.3311570
  80.4833711  67.5899843  37.0106531  80.0218863  70.2748974  41.3907207
  80.6490902  69.8926051  42.0044731  79.1646782  70.0563176  41.7562899
  90.4212972  80.6811949  42.9960942  90.9652876  81.2941907  42.5015897
  89.8399817  81.2391527  43.5127955  76.7984406  72.0825403  27.3225561
  77.0937847  71.1736081  27.2692615  75.8972442  72.0613142  27.0006564
  88.7070485  83.8032667  34.1275970  88.5821624  83.0022407  33.6186915
  89.3649576  84.2978860  33.6389940  80.3278653  70.1581399  33.3053110
  79.6065239  70.7717367  33.1660583  81.1171909  70.6939164  33.2269756
  90.7705393  81.6041687  35.7555520  89.8235729  81.4847038  35.6833847
  91.1188166  80.7164185  35.8381781  83.1304967  67.4935826  39.5793762
  83.6539368  67.7398123  40.3420071  82.9117300  68.3255861  39.1596899
  78.5272248  69.7639501  27.4464886  78.1984954  68.8836880  27.2639992
  78.8811618  69.7087169  28.3341276  87.7751827  81.3994403  31.9559872
  87.6276789  80.4711111  32.1367442  88.6005320  81.4214494  31.4716947
  81.6414071  70.0512470  27.8140364  81.9810143  70.5798392  27.0918973
  82.0886191  70.3892877  28.5898931  91.3785948  82.2222962  33.0424745
  92.3032496  82.0165823  32.9049196  91.2101252  81.9739363  33.9514086
  84.3357512  68.4349521  37.2643432  83.9954332  67.6357334  37.6664112
  83.6296518  68.7351232  36.6920265  84.9873984  65.5198834  35.7170755
  85.8100053  65.0459312  35.5949646  85.2312047  66.2989317  36.2169442
  83.6282218  68.5487092  26.0133657  84.3490581  68.9268345  25.5097374
  83.0047522  69.2675969  26.1168635  87.7713341  69.2532241  26.9491989
  87.9876955  70.1356879  26.6480817  87.2907408  68.8618454  26.2197631
  82.5112562  72.2117954  33.5262734  82.3657143  72.5258257  34.4187015
  82.0337766  72.8302855  32.9733632  84.3708945  69.2020502  33.5743623
  84.3570514  68.3061595  33.2375921  85.0881373  69.2091166  34.2081909
  86.2235076  69.6357842  35.6196751  85.9652854  70.5574913  35.6181081
  85.6920116  69.2388277  36.3097215  91.1681265  82.7408629  28.3986836
  91.3418142  82.1755052  27.6460689  91.6610156  83.5409524  28.2166326
  76.9858224  74.7523299  36.4650395  76.4411693  75.5283107  36.5970669
  77.8637574  75.0994103  36.3069516  83.7745841  68.0834882  28.8431194
  83.8961752  67.1551529  29.0422081  83.4847883  68.0973568  27.9309509
  86.6437031  65.7689793  31.9797913  86.6658728  65.8329126  31.0249893
  87.0605090  64.9294302  32.1738420  97.0220656  75.5045052  30.0177136
  97.4651802  74.7552378  29.6196259  96.1447166  75.4955189  29.6350868
  92.1556437  82.0575394  25.4983735  92.8507342  82.6782087  25.7171049
  92.4979587  81.2070745  25.7736112  94.0547860  79.5075099  27.0271065
  94.5799184  79.8462372  26.3020385  93.9670213  78.5722115  26.8434200
  85.7167909  83.4209173  39.1560942  86.0255035  83.1758320  40.0283641
  86.5143391  83.6255812  38.6679812  85.7388521  85.5747083  31.3866318
  85.2993511  85.0823461  32.0799175  86.4896638  85.0320050  31.1458394
  78.2180860  81.7658624  31.3890947  79.0438880  81.4662395  31.0089590
  77.8674912  80.9966246  31.8380735  83.1862393  81.1185092  33.4588620
  82.5642402  80.4555797  33.1590848  83.8567260  81.1446224  32.7762268
  76.4189465  79.6844950  32.3479880  75.5821373  79.2567124  32.1663881
  76.3913110  79.8777393  33.2850671  83.2586921  69.5966880  43.0521126
  83.3075076  70.4729003  42.6698896  83.8009435  69.0544273  42.4792769
  93.7441766  80.1408003  42.3322263  92.9537310  80.1232142  41.7926763
  93.5075121  80.6796297  43.0871300  93.8639641  76.9900469  39.6454992
  93.9137646  76.8250477  40.5870515  93.7553565  76.1227728  39.2552873
  82.7475900  79.6689015  26.9347081  82.8964020  80.3524480  26.2813753
  83.5542344  79.6494105  27.4496536  91.1543404  72.9731397  40.9614298
  92.0553267  72.8337862  40.6698296  91.2291378  73.1385852  41.9012476
  85.4886209  70.3498252  39.8067485  84.6189518  70.6431818  39.5350073
  85.7245689  70.9338697  40.5274748  95.3657838  79.4097411  39.8897013
  95.0742646  79.7727392  40.7260474  94.7529969  78.6964419  39.7110345
  96.5653521  76.9750291  32.4099584  97.4000412  77.4140095  32.5737144
  96.7012649  76.4988944  31.5907829  93.6145026  74.5330026  38.3577071
  94.0899148  74.7257672  37.5495923  92.6910592  74.5889211  38.1120455
  80.5028533  75.6954193  27.9408150  80.2574575  74.7916523  28.1388360
  80.6724448  75.6971343  26.9987628  88.1925243  66.5677869  37.3232905
  88.7107187  67.3038896  36.9979394  87.8380376  66.8741862  38.1579664
  79.7724181  71.4282550  25.4394311  79.0793426  71.5026905  24.7834347
  79.5275932  70.6642894  25.9615828  88.4437837  62.9878152  32.8433802
  88.7239591  62.3201341  33.4694228  89.2288444  63.1807247  32.3308466
  86.2471306  82.1637146  24.4058828  85.6745273  82.7827333  23.9529300
  86.8204099  82.7136507  24.9398750  92.3146695  71.4095786  36.5905377
  93.2664118  71.5093883  36.6117601  92.1450146  70.6174054  37.1003461
  90.3361075  68.4951369  36.7764778  89.7411007  68.7756382  36.0811266
  90.0510772  68.9845270  37.5481519  89.4668565  82.4474296  25.5367410
  90.3999239  82.3819857  25.7400286  89.3791778  83.2830563  25.0781943
  92.0956582  81.7640166  22.4971358  92.0170214  81.4300030  23.3907116
  92.9166249  82.2561934  22.4962830  94.7934773  74.6301905  35.7047677
  94.7611093  73.6917906  35.8907360  95.4035397  74.7085942  34.9713501
  86.6318104  73.4997958  21.7474881  87.5777209  73.3704166  21.8163299
  86.2532349  72.7612620  22.2244309  94.9429262  71.4212949  35.7505960
  94.4268310  70.6371405  35.5635889  95.8269210  71.0931665  35.9152479
  92.6039989  65.1653964  31.7101772  92.4064810  64.8569053  32.5945104
  93.2139694  65.8915603  31.8399702 100.6111323  75.6917912  34.8453713
 101.3414712  75.4303200  35.4061417 100.0018269  74.9546634  34.8855781
  98.6926620  73.8325775  35.4428165  97.9659784  73.6981740  34.8344656
  98.2773907  74.1402603  36.2484883  86.5156797  77.5515704  43.2075538
  87.4359806  77.7294303  43.4015584  86.4806380  76.6071750  43.0555237
  84.8161021  71.4247935  21.6829766  83.9092477  71.1281047  21.7592479
  85.0937002  71.1277753  20.8164052  75.7338962  72.7454298  32.1328812
  75.4141746  71.8919606  31.8403186  75.1872390  72.9602876  32.8886780
  79.5118869  75.4616739  35.8498319  79.7304879  76.3933847  35.8686353
  79.9244643  75.1024714  36.6353123  86.4323087  65.9684824  27.8374007
  85.6223815  65.6231909  28.2129253  87.1207504  65.6592368  28.4261619
  88.3613635  65.0462871  29.4598304  88.9144674  65.4658325  30.1188327
  88.5983722  64.1198619  29.5021260  84.3846734  71.0349945  45.2401068
  84.2843461  71.9844302  45.1713159  84.1668277  70.7068184  44.3677138
  83.5859806  68.2834870  21.8241745  84.4478970  68.6089768  22.0837562
  83.7710150  67.4966366  21.3114811  91.7392442  67.1563396  28.9676968
  91.1591111  67.8148200  28.5855020  91.4728375  66.3340741  28.5564386
  90.1896009  66.5568454  31.1698288  90.6895787  66.6684989  30.3612607
  90.8331617  66.2529507  31.8099097  84.2478005  74.4647084  44.0566129
  83.7645086  75.2647444  44.2630018  84.3338944  74.4755029  43.1033573
  77.5163964  76.2975463  31.9787949  77.4934652  76.3963151  31.0269832
  77.8264601  77.1440614  32.3005115  80.1751342  78.3551618  36.0934563
  81.1294596  78.3235561  36.0264495  79.9763866  77.8942242  36.9084789
  80.7650724  76.9252734  38.6605361  81.5843613  77.4196813  38.6840198
  81.0387532  76.0084703  38.6322928  90.5217320  69.3163487  28.0233316
  89.6343175  69.6013137  27.8053511  90.9371309  69.1557250  27.1760593
  93.8731856  69.3410008  31.7387656  94.6492247  69.8306460  32.0112272
  93.1479991  69.7668062  32.1959525  96.3104415  70.0537627  32.7961596
  96.9048906  69.8133363  32.0854904  96.3830999  69.3344758  33.4235132
  78.5301571  83.8971238  33.1104761  78.3956039  83.1371639  32.5442759
  78.1133633  84.6212138  32.6433550  89.6660534  79.0808161  22.1181336
  90.3696384  79.2858164  22.7338992  88.9423183  79.6484923  22.3830420
  90.4958344  74.8318023  28.2383606  90.4393545  75.2886574  27.3991239
  91.0486687  74.0708707  28.0606449  94.3063150  70.6207755  29.0633726
  94.0500084  70.2204390  29.8941934  93.6816018  71.3351549  28.9383865
  98.6175488  73.3603828  31.5705017  98.0575046  73.4297017  32.3436579
  98.0118991  73.1844812  30.8504514  81.6870697  84.7940555  33.3223204
  81.5703081  85.7385987  33.2201894  80.8663143  84.4914116  33.7109003
  91.5747231  79.5190691  24.1679796  92.4092835  79.0871889  23.9857271
  91.4131574  79.3472704  25.0956691  91.2293123  76.0222804  25.5336136
  91.1741927  75.8567075  24.5924580  90.6039179  76.7298837  25.6898325
  76.0185638  71.2590868  39.3597558  76.6644502  70.7489822  39.8484783
  75.8102790  71.9959550  39.9340983  88.5439031  78.3271716  44.8589698
  89.4130190  78.5012368  44.4976333  88.0645782  79.1466133  44.7365428
  84.5389249  65.5230913  25.1121454  84.5267919  66.4672753  25.2689725
  85.4312671  65.3401058  24.8180915  82.7125211  85.4468817  36.5379132
  83.6152458  85.4792427  36.8545627  82.4862581  84.5169268  36.5525468
  84.4678813  84.1999803  33.1989211  83.5174444  84.2001665  33.0853583
  84.7711299  83.4532538  32.6825245  88.3541368  62.1173690  29.3667391
  87.5873764  61.5632176  29.5124073  88.7652073  62.1895558  30.2281542
  80.3583129  68.4058485  43.4572572  81.2214591  68.0495290  43.6675897
  79.7848540  68.0672380  44.1447976 100.2031506  90.0360342  34.2634973
 100.8409916  89.9167089  33.5598313 100.0852349  90.9841186  34.3222925
  97.0121213  89.9887770  34.1996498  96.6739724  89.8728835  33.3117033
  97.8810981  89.5878935  34.1797504  92.8708028  91.8423246  30.1893389
  92.3072893  91.7513183  29.4209676  92.7560423  91.0223151  30.6695881
  97.4940996  91.1422622  40.1582703  97.4829636  90.7475420  39.2863207
  97.6561635  90.4088694  40.7516475  90.4172460  93.3374438  33.0277609
  91.2093752  92.9965263  32.6123908  90.6569110  93.4469413  33.9479762
  98.4507587  95.5094214  25.5007854  97.7995567  96.0948294  25.1141867
  99.2451950  96.0400409  25.5602891  92.3763214  92.5983351  25.8994988
  93.1494090  92.0512338  25.7607864  92.7288613  93.4627600  26.1109449
  94.2148257  93.9259733  39.1061887  93.9238123  94.8305364  38.9908554
  94.8505241  93.9676261  39.8205957  95.1404464  91.3036582  35.6963247
  95.7368036  91.0792604  34.9820210  95.1979435  90.5621327  36.2988695
  94.7129492  88.7576017  23.5313438  94.9655013  88.2357539  22.7696901
  93.7754051  88.5942163  23.6340121  99.7572775  87.7611796  31.3388181
 100.5435864  87.3431219  30.9878598 100.0211479  88.6657888  31.5069829
  99.9282852  93.1984646  26.0376838  99.2928685  93.2719272  26.7497743
  99.5980259  93.7878245  25.3595917 105.1581202  87.6987029  32.2421160
 105.8906374  87.1286246  32.4758989 104.4020558  87.3108629  32.6827665
  94.4325781  90.6604123  25.7337813  94.3162039  89.9849027  26.4018897
  94.5428041  90.1736497  24.9169966  96.7757322  90.1214270  29.4384502
  96.4115529  89.5944891  30.1497424  97.6324438  89.7312739  29.2650987
 102.6806622  81.4108603  36.7015768 102.3489947  82.2804014  36.4776983
 102.0852236  81.0944887  37.3809799  96.4162809  85.1504170  24.4345851
  96.5837211  86.0184406  24.8016322  96.2259978  85.3131452  23.5107140
  99.1738142  93.6121149  36.1011681  98.8738865  94.5146188  35.9927488
  98.8289201  93.3453332  36.9532834  92.6250623  90.0634946  32.1348385
  91.7001120  89.9311160  32.3426077  92.8735036  90.8429165  32.6318328
 102.5735286  86.1303689  33.7809118 101.6652163  86.0619098  33.4867879
 102.5222881  86.6075634  34.6090944  96.3952030  87.6061828  25.4192517
  96.2751655  88.0518878  26.2577998  95.7004618  87.9547145  24.8606056
  89.9859434  89.7068219  32.9692174  90.1151815  89.9602698  33.8831586
  89.3056886  90.2995927  32.6496830  94.1558922 100.3765469  29.0682649
  94.0782951 101.3273294  29.1471129  93.5520565 100.0311342  29.7257575
  96.6476151  87.5493335  41.7244016  95.8709485  88.1087255  41.7146880
  97.2866714  88.0350118  42.2458886 104.4396932  84.3320127  35.5586992
 103.7971312  84.6252661  34.9126787 103.9351861  84.2173048  36.3640189
 102.0937096  88.0783301  26.2472851 103.0054952  88.3110687  26.0720549
 101.5846743  88.6620345  25.6847930  94.9022524  90.3578788  41.2861983
  95.6437208  90.8963832  41.0096806  94.1959509  90.9845077  41.4433534
 100.3777863  92.5007929  39.8834144 100.7861219  92.0590339  39.1388776
  99.6555125  91.9260556  40.1368337  96.7308933  87.4380535  37.2567701
  97.5770129  87.8619949  37.4002350  96.6707571  86.7814160  37.9506264
 100.7006678  93.0609119  33.6386433 100.0715540  93.2254833  32.9362501
 100.3132340  93.4750729  34.4097397 104.5795910  93.9963557  30.9930797
 103.8946948  94.3762458  30.4427830 104.6639759  94.6058884  31.7262744
  99.8808379  85.0984904  38.9148875  99.6369311  85.8526964  38.3783150
 100.1568309  85.4770251  39.7496122 101.8346841  91.6423516  37.5926140
 102.0463737  92.2855276  36.9160521 101.7876590  90.8085833  37.1248070
  99.4373070  84.2541337  34.4962712  98.5757549  84.5522590  34.7879450
  99.4635505  84.4711736  33.5643745  96.2534640  92.7983527  30.9036518
  96.7172985  93.0771230  30.1141141  95.9891438  91.8966972  30.7209609
  93.1458721  92.3455009  33.8416281  93.7160078  92.7742277  33.2033766
  93.7366833  92.0637593  34.5400467  95.1903526  88.9206680  27.7126083
  95.8927569  89.3727723  28.1800010  94.8584154  88.2790498  28.3405976
  93.6383887  87.5118436  42.0877293  93.0082548  88.1934717  42.3212689
  93.5319975  87.4001518  41.1430431  88.9328860  87.1790232  33.0143217
  88.1427914  87.4347761  32.5383327  89.4240107  87.9938570  33.1195257
 102.9492669  94.5195471  35.7648498 103.7710113  94.1175659  35.4831179
 102.9455072  94.4163706  36.7164613  90.8843605  87.5434812  29.9726693
  90.0874769  87.6553506  30.4910189  90.6569197  87.8821464  29.1067584
  96.7149273  94.0679515  37.9209208  96.7793705  94.5299922  38.7567380
  96.0060197  93.4376880  38.0491518  87.2166563  87.4320723  35.4458208
  87.4674601  88.3167733  35.7115783  87.7526111  87.2525324  34.6733299
 111.0398662  90.8634220  32.1133469 110.2862371  90.2941618  31.9577473
 111.1746204  90.8296884  33.0604104  96.4297291  95.7347622  27.7888188
  96.2942965  96.5799158  28.2173036  96.9707103  95.9366900  27.0254122
  92.9164630  81.8139202  44.4502544  92.5231576  81.2605401  45.1250188
  93.7330770  82.1249781  44.8409061  89.8826688  93.2523060  28.3616113
  90.3951208  94.0466311  28.5121678  90.5349401  92.5549351  28.2949715
  91.6921573  96.3688817  30.4438867  91.8688201  97.2906781  30.2559851
  92.4878406  96.0547236  30.8733246  95.8332591  83.2297081  42.0422800
  96.5742305  83.8304234  41.9627263  96.0650514  82.4874719  41.4840843
  90.9773929  88.4153448  40.3201030  90.8627444  87.5138706  40.6208129
  90.1218447  88.6617145  39.9685846  98.0565767  96.3571189  41.9188530
  97.6129621  95.5707567  41.6009435  98.7182980  96.5450339  41.2532421
  92.8152888  97.8866990  36.4449209  93.3660313  97.7584054  35.6726203
  91.9764364  98.1861879  36.0944102 100.1547005  96.6373989  39.9469932
 100.1365480  97.4582870  39.4550201 101.0766925  96.5128064  40.1720073
  96.6120059  94.1518118  40.7893440  97.1448396  93.3906406  40.5592748
  96.0834140  93.8591770  41.5317595  99.7789754  79.2578184  36.3187082
  99.4354023  80.1479826  36.2426192 100.1468717  79.0679842  35.4556667
  87.8475605  91.5811715  29.1375684  88.6850827  91.9908723  28.9209392
  88.0253872  90.6411157  29.1075878  99.7440037  89.2486795  24.8259517
  99.2286660  90.0191400  25.0647904  99.4717345  88.5751931  25.4492578
  97.3287148  84.0936496  29.8844755  96.4728744  83.7043346  29.7050394
  97.7414100  84.1728457  29.0244541  98.8586294  81.6282839  34.2836315
  98.3551090  81.5912974  33.4704120  99.1516901  82.5375582  34.3432972
  95.1029180  81.7121569  33.2902497  95.9682177  81.5164378  32.9308386
  95.1706689  81.4831921  34.2171854 104.7174311  92.0019150  26.7612690
 103.9403754  91.6630309  26.3167853 105.3965792  92.0071773  26.0867655
  99.5326340  87.1213887  26.6519298  99.2276476  87.4360036  27.5029441
 100.4856782  87.1995307  26.6946631  97.9772772  93.2804111  28.3012252
  97.4494133  92.5456870  27.9885490  97.4760275  94.0578787  28.0552220
 102.9565618  91.4753131  33.4179298 102.2989292  92.1652392  33.5059427
 103.7606017  91.8649563  33.7613285  92.7091499  83.9423777  30.6618864
  93.2835251  83.7198958  29.9292057  93.2962482  84.0112471  31.4147465
 101.7671077  89.8297504  31.4683240 102.2802958  90.4627496  31.9704950
 102.4172301  89.2298699  31.1026600  93.0361087  85.9728238  24.6814749
  92.1998399  86.3102924  25.0024024  92.8965856  85.8377218  23.7441886
  95.0114167  80.8165026  29.3893933  94.3578579  80.5014043  28.7650548
  94.9694641  80.1940766  30.1153756  96.1225372  91.0984321  21.3047225
  95.2152434  90.8673574  21.5038374  96.6196404  90.3021940  21.4921207
  98.2451908  87.3046959  33.7141581  97.3274469  87.5261906  33.5563269
  98.6612051  87.3793270  32.8553288  99.0286955  88.7038375  28.8444261
  99.7758774  89.2159772  28.5351383  99.2978545  88.3822428  29.7048655
  97.3013605  91.1996916  25.8271215  96.3924825  90.9155949  25.9243685
  97.3308689  91.6195994  24.9674522 102.5332873  94.8103505  29.5962383
 102.0795200  93.9694415  29.6527573 101.9026840  95.4464904  29.9337163
 101.4765792  85.7395491  30.8263050 100.7388549  85.2272877  31.1573293
 101.7292566  85.2995873  30.0146327 100.9765812  96.6480002  30.5312201
 101.2688786  97.2085059  29.8124567 101.4864433  96.9408563  31.2865360
 101.5777420  78.5171743  31.4204820 101.8836297  77.6569107  31.1330735
 102.3030025  79.1089363  31.2203813  87.8701776  88.9202430  29.8086417
  87.6726176  88.3271791  29.0837484  87.3148440  88.6154640  30.5262356
  95.8498499  88.8125536  31.9281011  95.9047109  87.8599373  31.8523487
  95.0389702  88.9684975  32.4122309  96.9989693  92.7405659  23.1659294
  96.5609123  92.0241518  22.7064931  97.7400134  92.9681774  22.6044385
  93.7890859  87.4302596  29.6871389  92.9758725  87.7296767  30.0936582
  94.2849854  87.0358285  30.4045872  95.9399437  97.4260353  31.6205654
  95.8975616  97.6521199  30.6914186  96.8562136  97.1923728  31.7691455
  99.3865071  87.8944421  38.5186283  99.7414459  88.1215894  39.3780749
 100.0337202  88.2262797  37.8963539 105.1162808  91.0162856  29.2235612
 104.9780707  91.2064452  28.2956802 104.7599027  91.7782239  29.6803664
  93.2804934  85.0020952  35.3032624  93.9204313  84.8609711  34.6055588
  92.4482465  84.7155465  34.9271226 105.1432188  93.0839383  34.2346884
 105.5768694  92.9914673  35.0829938 105.8563768  93.0596884  33.5966900
  94.0565238  94.3023382  31.4167617  94.8505837  93.8073702  31.2150192
  93.3456930  93.7741245  31.0535322  98.8760083  96.6841478  35.7679984
  98.9297105  97.2532414  36.5357700  98.0074864  96.8543363  35.4034022
  90.3648002  88.4466464  27.4927370  89.4345590  88.3850919  27.7097332
  90.4605474  87.9242417  26.6964011  90.2833551  84.9721277  30.0805611
  90.5440368  85.8866610  29.9714772  91.1050723  84.5045719  30.2302224
  91.7558476  86.3859034  37.2504436  92.4281529  86.1776396  36.6017085
  90.9288262  86.1881120  36.8109668 106.0047737  93.1263084  36.7679769
 106.1983627  94.0308895  37.0139044 105.9048355  92.6670503  37.6018354
  97.6584048  83.0120975  39.2670097  97.0111963  83.7110924  39.1734573
  98.4285063  83.4457119  39.6346345 101.0662846  93.2769827  42.3420650
 100.9148352  93.0480379  41.4250734 101.0567525  94.2340428  42.3551995
  97.8348182  90.8501740  37.3266916  98.7640242  91.0012899  37.1535884
  97.4139212  90.9385760  36.4715563  96.6336514  94.8752404  35.0965454
  96.4947600  94.5071188  35.9691392  95.8451110  95.3900043  34.9249412
  97.2284666  99.9761500  26.4390990  97.4036422  99.5049544  27.2536613
  96.5417454 100.6027267  26.6672251  98.1841729  94.2534007  32.4854292
  97.8491562  94.2134777  33.3811942  97.6845675  93.5878723  32.0124702
  92.1585973  89.6601637  38.0106873  92.0205771  88.9281876  38.6118412
  93.0690897  89.5710537  37.7291061  94.7868274  89.3721596  37.4990553
  95.4967892  88.7314788  37.4577171  94.7437582  89.6234491  38.4216733
 102.7755053  96.3088949  40.4197132 102.7167599  95.6248170  39.7527715
 103.1774571  97.0507939  39.9677758  93.4997208  86.3586814  39.3186192
  92.9634565  85.9077552  39.9707788  92.9113916  86.4932723  38.5756656
  91.7945751 103.1250863  33.2130851  92.0342350 103.7569387  33.8909869
  90.9514948 102.7738903  33.4996210  92.9099467  85.8175465  21.8812656
  92.0328933  85.6964266  21.5174902  93.3857220  85.0261544  21.6291544
 102.7772460  94.2728533  38.6511111 101.8899239  93.9354455  38.7737510
 103.3471011  93.5411565  38.8879877  84.4301607  90.6052625  31.9754163
  85.1172647  90.2914355  31.3875178  84.2749736  91.5093990  31.7021414
  89.2336329  85.4942822  36.4039187  89.1494518  84.8868491  35.6689596
  88.4119035  85.9851840  36.4048683  96.3073613  98.9329986  35.6172355
  96.2343785  99.7384957  36.1291659  95.8651006  99.1321952  34.7920376
  96.0963393  98.1701756  29.1275176  95.3130915  98.7123436  29.2213401
  96.7956138  98.6875735  29.5269417  99.4060043  83.9796385  31.7709382
  99.9028742  83.2266348  31.4510452  98.6347024  84.0160702  31.2052591
 107.2589800  89.6836751  33.4127673 107.2479677  90.5661466  33.0421606
 106.3907180  89.3308302  33.2182210  98.7672297  98.8316820  37.7730513
  99.4800269  99.4664285  37.7006415  98.2762325  98.9280686  36.9570515
 100.4889824  92.7368072  29.3447805  99.5546102  92.8569535  29.1752509
 100.6666492  91.8340539  29.0807815  95.9895012  86.1213768  31.4981066
  95.6192799  85.5684809  32.1861972  96.4854104  85.5171902  30.9456066
 103.8762375  88.5785392  29.8797839 104.3422827  89.4113383  29.8058142
 104.3269875  88.1130373  30.5843098  93.8184210  96.5811263  38.5936084
  94.5193670  97.2147746  38.7465478  93.3479325  96.9225995  37.8331723
 101.9438606  94.9229213  26.8783991 102.2198450  94.8085808  27.7877865
 101.0743105  94.5246698  26.8396164 101.8479038  80.9465979  33.9188740
 100.9342118  81.1770206  34.0870947 102.2772139  81.0304423  34.7702773
 101.6185496  89.1355871  36.4188634 100.9656946  89.3831778  35.7641087
 101.9965876  88.3220009  36.0851112  98.5792670  99.1715564  30.5216805
  98.7615065  98.3537220  30.9844557  99.4025656  99.3883256  30.0841695
  98.9134836  98.0983749  27.7831853  99.4422602  97.5876204  27.1702015
  99.1763055  97.7826279  28.6477386  97.6673069  89.8775682  42.9054672
  96.9913706  89.7769811  43.5757047  98.4900703  89.7214895  43.3690669
  89.4151928  96.1147618  35.5267187  90.0005365  95.3691306  35.6595091
  89.2176767  96.4251575  36.4103851  92.2690584  99.1498866  30.5429629
  91.6000959  99.6344993  30.0593669  92.1303453  99.3968086  31.4573008
  84.0069583  88.6853218  34.2471630  84.0453683  88.1516809  35.0408748
  83.5009876  88.1588424  33.6282607  96.4095852 101.1842609  37.1412288
  96.9614160 101.3474231  37.9061373  96.7502046 101.7747047  36.4692312
  91.3860345  83.5317759  37.7434172  91.4501672  84.3932590  37.3311570
  91.3227466  82.9191761  37.0106531  90.8612618  85.6040891  41.3907207
  91.4884657  85.2217969  42.0044731  90.0040537  85.3855093  41.7562899
 101.2606726  96.0103867  42.9960942 101.8046630  96.6233825  42.5015897
 100.6793571  96.5683445  43.5127955  87.6378161  87.4117321  27.3225561
  87.9331602  86.5027999  27.2692615  86.7366196  87.3905060  27.0006564
  99.5464239  99.1324585  34.1275970  99.4215379  98.3314325  33.6186915
 100.2043331  99.6270778  33.6389940  91.1672408  85.4873317  33.3053110
  90.4458993  86.1009285  33.1660583  91.9565663  86.0231082  33.2269756
 101.6099148  96.9333605  35.7555520 100.6629483  96.8138956  35.6833847
 101.9581921  96.0456103  35.8381781  93.9698721  82.8227744  39.5793762
  94.4933123  83.0690040  40.3420071  93.7511054  83.6547778  39.1596899
  89.3666002  85.0931418  27.4464886  89.0378708  84.2128797  27.2639992
  89.7205373  85.0379087  28.3341276  98.6145581  96.7286321  31.9559872
  98.4670544  95.8003028  32.1367442  99.4399075  96.7506412  31.4716947
  92.4807825  85.3804388  27.8140364  92.8203898  85.9090309  27.0918973
  92.9279946  85.7184794  28.5898931 102.2179703  97.5514880  33.0424745
 103.1426250  97.3457741  32.9049196 102.0495006  97.3031281  33.9514086
  95.1751266  83.7641439  37.2643432  94.8348087  82.9649252  37.6664112
  94.4690272  84.0643150  36.6920265  95.8267738  80.8490751  35.7170755
  96.6493807  80.3751229  35.5949646  96.0705802  81.6281235  36.2169442
  94.4675973  83.8779010  26.0133657  95.1884335  84.2560262  25.5097374
  93.8441277  84.5967886  26.1168635  98.6107095  84.5824159  26.9491989
  98.8270710  85.4648796  26.6480817  98.1301163  84.1910372  26.2197631
  93.3506317  87.5409872  33.5262734  93.2050897  87.8550175  34.4187015
  92.8731520  88.1594772  32.9733632  95.2102700  84.5312420  33.5743623
  95.1964268  83.6353513  33.2375921  95.9275128  84.5383084  34.2081909
  97.0628830  84.9649760  35.6196751  96.8046608  85.8866831  35.6181081
  96.5313871  84.5680195  36.3097215 102.0075019  98.0700547  28.3986836
 102.1811897  97.5046970  27.6460689 102.5003910  98.8701442  28.2166326
  87.8251979  90.0815216  36.4650395  87.2805447  90.8575024  36.5970669
  88.7031329  90.4286021  36.3069516  94.6139596  83.4126800  28.8431194
  94.7355507  82.4843446  29.0422081  94.3241638  83.4265486  27.9309509
  97.4830786  81.0981711  31.9797913  97.5052483  81.1621044  31.0249893
  97.8998845  80.2586219  32.1738420 107.8614410  90.8336970  30.0177136
 108.3045556  90.0844295  29.6196259 106.9840921  90.8247106  29.6350868
  88.6118001  89.2085113  39.3580552  87.8699737  89.3567748  39.9445182
  88.2910745  89.4693378  38.4947301  96.5561663  98.7501091  39.1560942
  96.8648790  98.5050238  40.0283641  97.3537145  98.9547729  38.6679812
  96.5782275 100.9039000  31.3866318  96.1387266 100.4115379  32.0799175
  97.3290392 100.3611968  31.1458394  89.0574614  97.0950541  31.3890947
  89.8832634  96.7954313  31.0089590  88.7068666  96.3258164  31.8380735
  94.0256148  96.4477009  33.4588620  93.4036157  95.7847714  33.1590848
  94.6961015  96.4738141  32.7762268  87.2583220  95.0136868  32.3479880
  86.4215128  94.5859042  32.1663881  87.2306865  95.2069311  33.2850671
  94.0980675  84.9258797  43.0521126  94.1468831  85.8020920  42.6698896
  94.6403189  84.3836191  42.4792769 104.5835521  95.4699921  42.3322263
 103.7931065  95.4524060  41.7926763 104.3468875  96.0088214  43.0871300
 104.7033396  92.3192387  39.6454992 104.7531401  92.1542395  40.5870515
 104.5947319  91.4519646  39.2552873  93.5869655  94.9980933  26.9347081
  93.7357775  95.6816397  26.2813753  94.3936098  94.9786023  27.4496536
 101.9937158  88.3023315  40.9614298 102.8947021  88.1629780  40.6698296
 102.0685133  88.4677770  41.9012476  96.3279964  85.6790170  39.8067485
  95.4583273  85.9723736  39.5350073  96.5639444  86.2630615  40.5274748
 106.2051593  94.7389329  39.8897013 105.9136401  95.1019309  40.7260474
 105.5923724  94.0256337  39.7110345 107.4047275  92.3042208  32.4099584
 108.2394166  92.7432012  32.5737144 107.5406404  91.8280862  31.5907829
 104.4538781  89.8621943  38.3577071 104.9292903  90.0549590  37.5495923
 103.5304346  89.9181129  38.1120455  91.3422288  91.0246110  27.9408150
  91.0968329  90.1208440  28.1388360  91.5118202  91.0263261  26.9987628
  99.0318997  81.8969787  37.3232905  99.5500941  82.6330814  36.9979394
  98.6774130  82.2033780  38.1579664  90.6117935  86.7574468  25.4394311
  89.9187180  86.8318823  24.7834347  90.3669687  85.9934812  25.9615828
  99.2831592  78.3170069  32.8433802  99.5633345  77.6493258  33.4694228
 100.0682199  78.5099165  32.3308466 103.1540450  86.7387703  36.5905377
 104.1057873  86.8385801  36.6117601 102.9843900  85.9465972  37.1003461
 101.1754829  83.8243287  36.7764778 100.5804762  84.1048299  36.0811266
 100.8904526  84.3137187  37.5481519 105.6328528  89.9593823  35.7047677
 105.6004848  89.0209824  35.8907360 106.2429151  90.0377860  34.9713501
  97.4711859  88.8289876  21.7474881  98.4170963  88.6996084  21.8163299
  97.0926104  88.0904538  22.2244309 105.7823016  86.7504866  35.7505960
 105.2662065  85.9663323  35.5635889 106.6662965  86.4223583  35.9152479
 103.4433743  80.4945882  31.7101772 103.2458564  80.1860970  32.5945104
 104.0533449  81.2207521  31.8399702 111.4505078  91.0209830  34.8453713
 112.1808466  90.7595118  35.4061417 110.8412023  90.2838552  34.8855781
 109.5320375  89.1617692  35.4428165 108.8053538  89.0273657  34.8344656
 109.1167662  89.4694521  36.2484883  97.3550551  92.8807622  43.2075538
  98.2753561  93.0586221  43.4015584  97.3200134  91.9363667  43.0555237
  95.6554776  86.7539852  21.6829766  94.7486231  86.4572965  21.7592479
  95.9330757  86.4569670  20.8164052  86.5732716  88.0746216  32.1328812
  86.2535500  87.2211524  31.8403186  86.0266144  88.2894794  32.8886780
  90.3512624  90.7908657  35.8498319  90.5698633  91.7225765  35.8686353
  90.7638397  90.4316631  36.6353123  97.2716841  81.2976742  27.8374007
  96.4617570  80.9523827  28.2129253  97.9601258  80.9884286  28.4261619
  99.2007390  80.3754789  29.4598304  99.7538428  80.7950242  30.1188327
  99.4377476  79.4490537  29.5021260  95.2240489  86.3641863  45.2401068
  95.1237216  87.3136220  45.1713159  95.0062031  86.0360101  44.3677138
  94.4253560  83.6126788  21.8241745  95.2872724  83.9381686  22.0837562
  94.6103905  82.8258284  21.3114811  86.4420976  91.6949127  34.1021934
  85.7484448  91.2803080  33.5891888  87.1893967  91.7369664  33.5055353
 102.5786197  82.4855314  28.9676968 101.9984866  83.1440118  28.5855020
 102.3122130  81.6632659  28.5564386 101.0289763  81.8860372  31.1698288
 101.5289542  81.9976906  30.3612607 101.6725371  81.5821425  31.8099097
  95.0871759  89.7939001  44.0566129  94.6038841  90.5939362  44.2630018
  95.1732698  89.8046946  43.1033573  88.3557719  91.6267381  31.9787949
  88.3328407  91.7255068  31.0269832  88.6658355  92.4732532  32.3005115
  91.0145097  93.6843536  36.0934563  91.9688350  93.6527478  36.0264495
  90.8157620  93.2234160  36.9084789  91.6044479  92.2544652  38.6605361
  92.4237368  92.7488731  38.6840198  91.8781286  91.3376620  38.6322928
 101.3611075  84.6455404  28.0233316 100.4736930  84.9305055  27.8053511
 101.7765064  84.4849168  27.1760593 104.7125611  84.6701925  31.7387656
 105.4886001  85.1598378  32.0112272 103.9873745  85.0959980  32.1959525
 107.1498170  85.3829545  32.7961596 107.7442660  85.1425281  32.0854904
 107.2224753  84.6636675  33.4235132  89.3695325  99.2263156  33.1104761
  89.2349793  98.4663556  32.5442759  88.9527388  99.9504055  32.6433550
 101.3352099  90.1609940  28.2383606 101.2787300  90.6178492  27.3991239
 101.8880441  89.4000625  28.0606449 105.1456905  85.9499672  29.0633726
 104.8893839  85.5496308  29.8941934 104.5209773  86.6643466  28.9383865
 109.4569242  88.6895745  31.5705017 108.8968800  88.7588935  32.3436579
 108.8512746  88.5136730  30.8504514  92.5264451 100.1232473  33.3223204
  92.4096835 101.0677905  33.2201894  91.7056897  99.8206034  33.7109003
 102.0686878  91.3514722  25.5336136 102.0135682  91.1858993  24.5924580
 101.4432933  92.0590755  25.6898325  86.8579393  86.5882786  39.3597558
  87.5038256  86.0781740  39.8484783  86.6496544  87.3251468  39.9340983
  99.3832785  93.6563633  44.8589698 100.2523945  93.8304286  44.4976333
  98.9039537  94.4758050  44.7365428  95.3783003  80.8522831  25.1121454
  95.3661673  81.7964671  25.2689725  96.2706425  80.6692976  24.8180915
  93.5518965 100.7760734  36.5379132  94.4546212 100.8084345  36.8545627
  93.3256335  99.8461185  36.5525468  95.3072567  99.5291721  33.1989211
  94.3568198  99.5293583  33.0853583  95.6105053  98.7824456  32.6825245
  99.1935123  77.4465607  29.3667391  98.4267519  76.8924094  29.5124073
  99.6045828  77.5187476  30.2281542  91.1976884  83.7350403  43.4572572
  92.0608345  83.3787208  43.6675897  90.6242295  83.3964298  44.1447976
 107.8514967 105.3179688  34.1996498 107.5133479 105.2020752  33.3117033
 108.7204735 104.9170853  34.1797504 108.3334750 106.4714539  40.1582703
 108.3223391 106.0767338  39.2863207 108.4955390 105.7380612  40.7516475
 105.0542011 109.2551651  39.1061887 104.7631877 110.1597282  38.9908554
 105.6898996 109.2968179  39.8205957 105.9798218 106.6328500  35.6963247
 106.5761790 106.4084522  34.9820210 106.0373190 105.8913245  36.2988695
 113.5200377  96.7400521  36.7015768 113.1883702  97.6095932  36.4776983
 112.9245990  96.4236805  37.3809799 103.4644378 105.3926863  32.1348385
 102.5394874 105.2603078  32.3426077 103.7128791 106.1721083  32.6318328
 113.4129040 101.4595607  33.7809118 112.5045917 101.3911015  33.4867879
 113.3616636 101.9367552  34.6090944 100.8253189 105.0360137  32.9692174
 100.9545570 105.2894616  33.8831586 100.1450640 105.6287845  32.6496830
 107.4869906 102.8785252  41.7244016 106.7103240 103.4379172  41.7146880
 108.1260469 103.3642035  42.2458886 115.2790686  99.6612045  35.5586992
 114.6365067  99.9544578  34.9126787 114.7745615  99.5464966  36.3640189
 105.7416278 105.6870706  41.2861983 106.4830963 106.2255750  41.0096806
 105.0353264 106.3136994  41.4433534 107.5702688 102.7672453  37.2567701
 108.4163883 103.1911867  37.4002350 107.5101326 102.1106077  37.9506264
 110.7202133 100.4276821  38.9148875 110.4763065 101.1818882  38.3783150
 110.9962064 100.8062169  39.7496122 110.2766825  99.5833254  34.4962712
 109.4151304  99.8814508  34.7879450 110.3029260  99.8003653  33.5643745
 104.4777642 102.8410354  42.0877293 103.8476303 103.5226635  42.3212689
 104.3713730 102.7293435  41.1430431  99.7722614 102.5082150  33.0143217
  98.9821668 102.7639678  32.5383327 100.2633862 103.3230488  33.1195257
  98.0560317 102.7612640  35.4458208  98.3068356 103.6459650  35.7115783
  98.5919866 102.5817242  34.6733299 103.7558385  97.1431120  44.4502544
 103.3625330  96.5897318  45.1250188 104.5724525  97.4541698  44.8409061
 106.6726346  98.5588999  42.0422800 107.4136059  99.1596152  41.9627263
 106.9044268  97.8166637  41.4840843 101.8167684 103.7445366  40.3201030
 101.7021199 102.8430623  40.6208129 100.9612201 103.9909063  39.9685846
 110.6183509  94.5870102  36.3187082 110.2747778  95.4771743  36.2426192
 110.9862471  94.3971759  35.4556667 109.6980049  96.9574757  34.2836315
 109.1944845  96.9204892  33.4704120 109.9910656  97.8667500  34.3432972
 105.9422935  97.0413487  33.2902497 106.8075932  96.8456295  32.9308386
 106.0100444  96.8123838  34.2171854 103.5485254  99.2715695  30.6618864
 104.1229006  99.0490876  29.9292057 104.1356236  99.3404389  31.4147465
 105.8507922  96.1456943  29.3893933 105.1972334  95.8305961  28.7650548
 105.8088396  95.5232684  30.1153756 109.0845662 102.6338877  33.7141581
 108.1668223 102.8553824  33.5563269 109.5005806 102.7085187  32.8553288
 112.4171174  93.8463661  31.4204820 112.7230051  92.9861024  31.1330735
 113.1423779  94.4381281  31.2203813  98.7095530 104.2494348  29.8086417
  98.5119930 103.6563708  29.0837484  98.1542194 103.9446558  30.5262356
 110.2258826 103.2236338  38.5186283 110.5808213 103.4507811  39.3780749
 110.8730957 103.5554715  37.8963539 104.1198689 100.3312869  35.3032624
 104.7598068 100.1901628  34.6055588 103.2876219 100.0447383  34.9271226
 101.1227305 100.3013194  30.0805611 101.3834122 101.2158528  29.9714772
 101.9444477  99.8337637  30.2302224 102.5952230 101.7150951  37.2504436
 103.2675284 101.5068314  36.6017085 101.7682017 101.5173037  36.8109668
 108.4977802  98.3412892  39.2670097 107.8505717  99.0402842  39.1734573
 109.2678818  98.7749036  39.6346345 108.6741937 106.1793657  37.3266916
 109.6033997 106.3304817  37.1535884 108.2532967 106.2677678  36.4715563
 102.9979728 104.9893554  38.0106873 102.8599526 104.2573793  38.6118412
 103.9084651 104.9002455  37.7291061 105.6262028 104.7013514  37.4990553
 106.3361647 104.0606706  37.4577171 105.5831336 104.9526409  38.4216733
 104.3390962 101.6878732  39.3186192 103.8028319 101.2369470  39.9707788
 103.7507671 101.8224640  38.5756656  95.2695361 105.9344543  31.9754163
  95.9566401 105.6206273  31.3875178  95.1143490 106.8385907  31.7021414
 100.0730084 100.8234739  36.4039187  99.9888272 100.2160409  35.6689596
  99.2512790 101.3143758  36.4048683 110.2453797  99.3088303  31.7709382
 110.7422497  98.5558265  31.4510452 109.4740779  99.3452620  31.2052591
 106.8288766 101.4505686  31.4981066 106.4586554 100.8976726  32.1861972
 107.3247859 100.8463819  30.9456066 112.6872792  96.2757896  33.9188740
 111.7735872  96.5062123  34.0870947 113.1165894  96.3596340  34.7702773
 112.4579251 104.4647788  36.4188634 111.8050701 104.7123696  35.7641087
 112.8359631 103.6511927  36.0851112 108.5066824 105.2067599  42.9054672
 107.8307461 105.1061729  43.5757047 109.3294458 105.0506813  43.3690669
 100.2545683 111.4439536  35.5267187 100.8399120 110.6983224  35.6595091
 100.0570521 111.7543493  36.4103851  94.8463338 104.0145136  34.2471630
  94.8847437 103.4808727  35.0408748  94.3403630 103.4880342  33.6282607
 102.2254100  98.8609677  37.7434172 102.2895426  99.7224508  37.3311570
 102.1621220  98.2483678  37.0106531 101.7006372 100.9332809  41.3907207
 102.3278411 100.5509886  42.0044731 100.8434291 100.7147011  41.7562899
 102.0066162 100.8165235  33.3053110 101.2852748 101.4301203  33.1660583
 102.7959418 101.3523000  33.2269756 104.8092476  98.1519661  39.5793762
 105.3326877  98.3981958  40.3420071 104.5904809  98.9839696  39.1596899
 106.0145021  99.0933356  37.2643432 105.6741841  98.2941170  37.6664112
 105.3084027  99.3935067  36.6920265 106.6661492  96.1782669  35.7170755
 107.4887562  95.7043147  35.5949646 106.9099556  96.9573153  36.2169442
 104.1900071 102.8701790  33.5262734 104.0444652 103.1842093  34.4187015
 103.7125275 103.4886690  32.9733632 106.0496454  99.8604338  33.5743623
 106.0358023  98.9645431  33.2375921 106.7668882  99.8675001  34.2081909
 107.9022585 100.2941678  35.6196751 107.6440363 101.2158748  35.6181081
 107.3707625  99.8972112  36.3097215  98.6645733 105.4107134  36.4650395
  98.1199201 106.1866942  36.5970669  99.5425083 105.7577938  36.3069516
 108.3224540  96.4273628  31.9797913 108.3446237  96.4912961  31.0249893
 108.7392599  95.5878137  32.1738420  99.4511755 104.5377030  39.3580552
  98.7093491 104.6859666  39.9445182  99.1304500 104.7985296  38.4947301
 104.9374430 100.2550715  43.0521126 104.9862585 101.1312838  42.6698896
 105.4796944  99.7128108  42.4792769 112.8330913 103.6315233  40.9614298
 113.7340775 103.4921698  40.6698296 112.9078887 103.7969688  41.9012476
 107.1673718 101.0082088  39.8067485 106.2977027 101.3015654  39.5350073
 107.4033198 101.5922533  40.5274748 109.8712752  97.2261704  37.3232905
 110.3894696  97.9622731  36.9979394 109.5167885  97.5325698  38.1579664
 110.1225346  93.6461987  32.8433802 110.4027100  92.9785176  33.4694228
 110.9075953  93.8391083  32.3308466 113.9934204 102.0679621  36.5905377
 114.9451627 102.1677719  36.6117601 113.8237655 101.2757890  37.1003461
 112.0148584  99.1535204  36.7764778 111.4198516  99.4340217  36.0811266
 111.7298281  99.6429105  37.5481519 116.6216771 102.0796784  35.7505960
 116.1055819 101.2955241  35.5635889 117.5056719 101.7515501  35.9152479
 114.2827498  95.8237800  31.7101772 114.0852319  95.5152888  32.5945104
 114.8927203  96.5499439  31.8399702  97.4126471 103.4038133  32.1328812
  97.0929255 102.5503442  31.8403186  96.8659899 103.6186712  32.8886780
 101.1906378 106.1200574  35.8498319 101.4092388 107.0517682  35.8686353
 101.6032152 105.7608549  36.6353123 110.0401144  95.7046707  29.4598304
 110.5932183  96.1242160  30.1188327 110.2771231  94.7782455  29.5021260
 106.0634243 101.6933780  45.2401068 105.9630970 102.6428137  45.1713159
 105.8455786 101.3652019  44.3677138  97.2814731 107.0241045  34.1021934
  96.5878202 106.6094998  33.5891888  98.0287722 107.0661581  33.5055353
 105.9265514 105.1230919  44.0566129 105.4432595 105.9231279  44.2630018
 106.0126453 105.1338864  43.1033573  99.1951473 106.9559299  31.9787949
  99.1722161 107.0546986  31.0269832  99.5052110 107.8024450  32.3005115
 101.8538851 109.0135454  36.0934563 102.8082105 108.9819396  36.0264495
 101.6551375 108.5526078  36.9084789 102.4438233 107.5836570  38.6605361
 103.2631122 108.0780648  38.6840198 102.7175041 106.6668538  38.6322928
  97.6973147 101.9174704  39.3597558  98.3432011 101.4073658  39.8484783
  97.4890298 102.6543385  39.9340983 110.0328877  92.7757525  29.3667391
 109.2661273  92.2216012  29.5124073 110.4439582  92.8479394  30.2281542
 102.0370638  99.0642321  43.4572572 102.9002100  98.7079126  43.6675897
 101.4636049  98.7256216  44.1447976  47.0637955  -3.6293599  29.7206249
  47.6077859  -3.0163641  29.2261203  46.4824800  -3.0714021  30.2373262
  50.3866750  -4.1697545  29.0567570  49.5962293  -4.1873406  28.5172069
  50.1500104  -3.6309251  29.8116606  45.1864014  -5.9833832  31.5835005
  46.0555174  -5.8093180  31.2221640  44.7070765  -5.1639415  31.4610734
  56.8456490   5.7254794  20.9880280  57.4834900   5.6061541  20.2843620
  56.7277333   6.6735638  21.0468232  54.1365979   6.8317073  26.8828010
  54.1254620   6.4369872  26.0108514  54.2986618   6.0983146  27.4761781
  50.8573240   9.6154185  25.8307194  50.5663106  10.5199816  25.7153860
  51.4930224   9.6570713  26.5451263  51.7829447   6.9931034  22.4208554
  52.3793019   6.7687056  21.7065516  51.8404418   6.2515779  23.0234001
  61.8006185   3.3881481  18.9666466  62.5331357   2.8180698  19.2004296
  61.0445541   3.0003081  19.4072972  59.3231606  -2.8996945  23.4261075
  58.9914930  -2.0301534  23.2022290  58.7277219  -3.2160661  24.1055105
  55.8163125   9.3015601  22.8256988  55.5163848  10.2040640  22.7172795
  55.4714185   9.0347784  23.6778140  50.7983905  16.0659921  15.7927955
  50.7207935  17.0167746  15.8716436  50.1945549  15.7205794  16.4502882
  53.2901135   3.2387787  28.4489322  52.5134469   3.7981707  28.4392187
  53.9291698   3.7244570  28.9704192  61.0821915   0.0214579  22.2832299
  60.4396296   0.3147113  21.6372093  60.5776844  -0.0932500  23.0885495
  51.5447507   6.0473240  28.0107289  52.2862191   6.5858284  27.7342113
  50.8384492   6.6739529  28.1678841  57.0202847   8.1902380  26.6079451
  57.4286203   7.7484791  25.8634083  56.2980108   7.6155008  26.8613644
  53.3733917   3.1274987  23.9813008  54.2195112   3.5514401  24.1247657
  53.3132554   2.4708611  24.6751571  57.3431661   8.7503571  20.3631740
  56.7140524   8.9149285  19.6607807  56.9557323   9.1645181  21.1342704
  61.2220893   9.6858009  17.7176103  60.5371931  10.0656910  17.1673137
  61.3064742  10.2953336  18.4508051  56.5233362   0.7879356  25.6394181
  56.2794294   1.5421416  25.1028457  56.7993293   1.1664703  26.4741428
  58.4771825   7.3317968  24.3171447  58.6888720   7.9749728  23.6405828
  58.4301573   6.4980284  23.8493377  50.2808871   3.2012888  28.8122599
  49.6507531   3.8829169  29.0457996  50.1744959   3.0895970  27.8675737
  59.5917653  10.2089923  22.4893804  60.4135096   9.8070111  22.2076486
  59.5880056  10.1058157  23.4409920  53.3574256   9.7573967  24.6454515
  53.4218689  10.2194374  25.4812687  52.6485180   9.1271332  24.7736825
  67.6823646   6.5528672  18.8378776  66.9287354   5.9836070  18.6822780
  67.8171187   6.5191336  19.7849410  49.5589613  -2.4966346  31.1747850
  49.1656559  -3.0500147  31.8495494  50.3755754  -2.1855768  31.5654368
  52.4757574  -1.0808467  28.7668107  53.2167288  -0.4801314  28.6872569
  52.7075497  -1.8230829  28.2086149  47.6198912   4.1047900  27.0446336
  47.5052428   3.2033158  27.3453435  46.7643430   4.3511597  26.6931153
  54.6990750  12.0465641  28.6433837  54.2554604  11.2602019  28.3254742
  55.3607964  12.2344791  27.9777728  49.4577871  13.5761442  23.1694516
  50.0085297  13.4478506  22.3971510  48.6189347  13.8756331  22.8189408
  56.7971988  12.3268441  26.6715238  56.7790464  13.1477322  26.1795508
  57.7191908  12.2022516  26.8965380  53.2545042   9.8412570  27.5138747
  53.7873379   9.0800858  27.2838055  52.7259124   9.5486222  28.2562901
  59.5990601   7.1647583  20.1424605  58.9414276   7.8546844  20.2304734
  60.4031000   7.5544015  20.4858591  59.1757856  10.4997957  16.3207689
  58.7220183   9.6588867  16.3772880  58.5451823  11.1359356  16.6582470
  57.6190795  12.3374454  17.2557508  57.9113770  12.8979511  16.5369873
  58.1289416  12.6303015  18.0110667  52.5824421  13.1154805  18.3450961
  52.5400599  13.3415651  17.4159493  53.4987119  12.8818179  18.4936762
  56.0290054   3.5838872  25.2431590  56.3839442   3.8110346  26.1026056
  56.6762186   3.9157249  24.6208845  61.7857171   8.7733835  20.9592191
  62.2193678   8.6809124  21.8075245  62.4988752   8.7491336  20.3212207
  55.5185066  12.3735929  22.4925291  55.5722088  12.9426866  23.2603007
  54.6499847  12.5437814  22.1279328  62.6472721   8.8157536  23.4925076
  62.8408611   9.7203347  23.7384351  62.5473339   8.3564955  24.3263661
  54.3009031  -1.2984573  25.9915403  53.6536946  -0.5994624  25.8979880
  55.0710047  -0.8648429  26.3591651  57.7087829   8.9664279  29.0665957
  57.5573336   8.7374830  28.1496040  57.6992509   9.9234880  29.0797302
  54.4773166   6.5396191  24.0512223  55.4065226   6.6907351  23.8781190
  54.0564196   6.6280212  23.1960869  53.2761497  10.5646856  21.8210761
  53.1372583  10.1965640  22.6936699  52.4876094  11.0794495  21.6494718
  54.8266713   9.9428459  19.2099598  54.4916545   9.9029229  20.1057248
  54.3270658   9.2773175  18.7370009  48.8010956   5.3496089  24.7352180
  48.6630754   4.6176327  25.3363719  49.7115880   5.2604989  24.4536367
  51.4293257   5.0616048  24.2235859  52.1392876   4.4209240  24.1822478
  51.3862565   5.3128943  25.1462040  59.4180036  11.9983401  27.1442438
  59.3592582  11.3142621  26.4773021  59.8199554  12.7402391  26.6923064
  50.1422191   2.0481266  26.0431499  49.6059548   1.5972004  26.6953095
  49.5538900   2.1827175  25.3001963  48.4370735  18.8145315  19.9376157
  48.6767333  19.4463839  20.6155176  47.5939931  18.4633355  20.2241517
  59.4197443   9.9622985  25.3756418  58.5324222   9.6248907  25.4982817
  59.9895994   9.2306016  25.6125183  52.9498596  14.6224438  22.3417661
  52.8768768  15.4279409  22.8536966  52.5075990  14.8216403  21.5165683
  63.9014784   5.3731203  20.1372980  63.8904660   6.2555918  19.7666913
  63.0332163   5.0202753  19.9427517  55.4097280  14.5211272  24.4975820
  56.1225252  15.1558736  24.4251721  54.9187309  14.6175138  23.6815822
  50.4609194  12.2705715  25.3181391  51.1618653  12.9042198  25.4710785
  49.9904309  12.6120447  24.5577030  58.2610480   4.8250323  23.1433941
  57.6081930   5.0726230  22.4886394  58.6390859   4.0114461  22.8096418
  55.2217653  14.8610016  17.2462111  55.4040048  14.0431672  17.7089864
  56.0450639  15.0777708  16.8087001  54.3098053   5.5670134  29.6299978
  53.6338690   5.4664263  30.3002353  55.1325686   5.4109347  30.0935975
  46.0576912  11.8042070  22.2512493  46.6430348  11.0585758  22.3840398
  45.8601750  12.1146027  23.1349157  53.0520835  16.8737061  23.8657594
  53.6039143  17.0368683  24.6306679  53.3927029  17.4641499  23.1937619
  47.5037601   1.2935343  28.1152513  48.1309640   0.9112421  28.7290037
  46.6465520   1.0749545  28.4808206  57.9031710  11.6998319  29.7206249
  58.4471614  12.3128277  29.2261203  57.3218555  12.2577897  30.2373262
  56.1889223  14.8219037  20.8521276  56.0640362  14.0208776  20.3432222
  56.8468314  15.3165230  20.3635246  58.2524131  12.6228057  22.4800826
  57.3054467  12.5033408  22.4079153  58.6006904  11.7350555  22.5627088
  50.6123704  -1.4877804  26.3039068  51.1358106  -1.2415508  27.0665378
  50.3936038  -0.6557770  25.8842206  55.2570564  12.4180773  18.6805179
  55.1095527  11.4897480  18.8612749  56.0824058  12.4400864  18.1962254
  58.8604686  13.2409332  19.7670051  59.7851234  13.0352193  19.6294503
  58.6919990  12.9925733  20.6759393  58.6500002  13.7594999  15.1232143
  58.8236880  13.1941422  14.3705995  59.1428894  14.5595894  14.9411633
  64.5039394   6.5231422  16.7422443  64.9470540   5.7738747  16.3441566
  63.6265904   6.5141558  16.3596175  45.2542984   4.8979564  26.0825859
  44.5124720   5.0462200  26.6690489  44.9335728   5.1587830  25.2192608
  53.1986647  14.4395543  25.8806249  53.5073773  14.1944689  26.7528948
  53.9962129  14.6442181  25.3925119  53.2207259  16.5933452  18.1111625
  52.7812249  16.1009831  18.8044482  53.9715376  16.0506420  17.8703700
  50.6681131  12.1371461  20.1833927  50.0461140  11.4742166  19.8836155
  51.3385998  12.1632593  19.5007575  50.7405658   0.6153249  29.7766433
  50.7893814   1.4915372  29.3944202  51.2828173   0.0730642  29.2038076
  61.2260504  11.1594373  29.0567570  60.4356048  11.1418511  28.5172069
  60.9893859  11.6982666  29.8116606  61.3458379   8.0086839  26.3700298
  61.3956384   7.8436846  27.3115821  61.2372302   7.1414098  25.9798179
  58.6362142   3.9917767  27.6859605  59.5372004   3.8524232  27.3943603
  58.7110116   4.1572222  28.6257783  52.9704947   1.3684622  26.5312791
  52.1008256   1.6618188  26.2595380  53.2064427   1.9525067  27.2520055
  62.8476576  10.4283781  26.6142320  62.5561384  10.7913761  27.4505781
  62.2348707   9.7150789  26.4355652  64.0472258   7.9936660  19.1344890
  64.8819150   8.4326464  19.2982451  64.1831387   7.5175314  18.3153136
  61.0963764   5.5516395  25.0822378  61.5717886   5.7444041  24.2741229
  60.1729330   5.6075581  24.8365762  59.7965433   2.4282155  23.3150684
  60.7482856   2.5280253  23.3362908  59.6268884   1.6360424  23.8248768
  57.8179813  -0.4862262  23.5010084  57.2229745  -0.2057249  22.8056573
  57.5329509   0.0031639  24.2726826  62.2753511   5.6488275  22.4292983
  62.2429831   4.7104276  22.6152667  62.8854135   5.7272312  21.6958808
  62.4247999   2.4399318  22.4751266  61.9087048   1.6557775  22.2881195
  63.3087948   2.1118035  22.6397786  68.0930061   6.7104282  21.5699020
  68.8233449   6.4489570  22.1306723  67.4837006   5.9733004  21.6101088
  66.1745358   4.8512144  22.1673471  65.4478522   4.7168109  21.5589963
  65.7592645   5.1588973  22.9730189  53.9975534   8.5702074  29.9320844
  54.9178544   8.7480673  30.1260891  53.9625117   7.6258119  29.7800543
  51.8665472   2.0536314  31.9646374  51.7662199   3.0030671  31.8958465
  51.6487014   1.7254553  31.0922444  51.7296742   5.4833453  30.7811436
  51.2463824   6.2833813  30.9875325  51.8157681   5.4941398  29.8278880
  47.6570080   9.3737988  22.8179870  48.6113333   9.3421930  22.7509801
  47.4582603   8.9128612  23.6330096  48.2469462   7.9439104  25.3850667
  49.0662351   8.4383183  25.4085505  48.5206270   7.0271072  25.3568235
  46.0120309  14.9157607  19.8350068  45.8774777  14.1558008  19.2688066
  45.5952371  15.6398507  19.3678856  66.0994226   4.3790197  18.2950324
  65.5393784   4.4483387  19.0681886  65.4937729   4.2031182  17.5749820
  49.1689434  15.8126925  20.0468510  49.0521819  16.7572357  19.9447201
  48.3481881  15.5100486  20.4354309  56.0257768   9.3458085  31.5835005
  56.8948928   9.5198738  31.2221640  55.5464520  10.1652502  31.4610734
  50.1943949  16.4655186  23.2624439  51.0971195  16.4978797  23.5790934
  49.9681319  15.5355637  23.2770774  51.9497551  15.2186173  19.9234517
  50.9993182  15.2188035  19.8098890  52.2530037  14.4718908  19.4070552
  47.8401867  -0.5755145  30.1817879  48.7033329  -0.9318340  30.3921203
  47.2667278  -0.9141250  30.8693283  67.6850244  21.0546711  20.9880280
  68.3228654  20.9353459  20.2843620  67.5671087  22.0027555  21.0468232
  64.4939950  21.0074139  20.9241804  64.1558462  20.8915204  20.0362339
  65.3629719  20.6065305  20.9042811  60.3526766  22.8609616  16.9138695
  59.7891631  22.7699553  16.1454983  60.2379161  22.0409520  17.3941188
  64.9759733  22.1608991  26.8828010  64.9648374  21.7661789  26.0108514
  65.1380373  21.4275064  27.4761781  57.8991198  24.3560807  19.7522916
  58.6912490  24.0151632  19.3369215  58.1387848  24.4655782  20.6725069
  65.9326325  26.5280584  12.2253160  65.2814305  27.1134664  11.8387174
  66.7270688  27.0586778  12.2848198  59.8581952  23.6169721  12.6240295
  60.6312828  23.0698708  12.4853170  60.2107351  24.4813970  12.8354756
  61.6966995  24.9446103  25.8307194  61.4056860  25.8491734  25.7153860
  62.3323979  24.9862631  26.5451263  62.6223201  22.3222951  22.4208554
  63.2186774  22.0978974  21.7065516  62.6798173  21.5807697  23.0234001
  62.1948230  19.7762387  10.2558745  62.4473750  19.2543908   9.4942208
  61.2572789  19.6128532  10.3585428  67.2391513  18.7798165  18.0633488
  68.0254602  18.3617588  17.7123905  67.5030217  19.6844257  18.2315136
  67.4101590  24.2171015  12.7622145  66.7747423  24.2905642  13.4743049
  67.0798996  24.8064614  12.0841224  72.6399940  18.7173398  18.9666466
  73.3725112  18.1472615  19.2004296  71.8839295  18.3294999  19.4072972
  61.9144519  21.6790493  12.4583119  61.7980777  21.0035396  13.1264204
  62.0246778  21.1922867  11.6415273  64.2576059  21.1400640  16.1629809
  63.8934267  20.6131261  16.8742730  65.1143175  20.7499109  15.9896294
  70.1625360  12.4294972  23.4261075  69.8308685  13.2990383  23.2022290
  69.5670973  12.1131256  24.1055105  66.6556880  24.6307518  22.8256988
  66.3557603  25.5332557  22.7172795  66.3107939  24.3639702  23.6778140
  60.1069361  21.0821315  18.8593692  59.1819858  20.9497529  19.0671384
  60.3553774  21.8615535  19.3563634  70.0554023  17.1490059  20.5054425
  69.1470901  17.0805467  20.2113186  70.0041619  17.6262004  21.3336250
  63.8770767  18.6248197  12.1437824  63.7570392  19.0705248  12.9823304
  63.1823356  18.9733515  11.5851362  57.4678172  20.7254589  19.6937481
  57.5970553  20.9789068  20.6076893  56.7875623  21.3182297  19.3742136
  61.6377659  31.3951839  15.7927955  61.5601689  32.3459664  15.8716436
  61.0339303  31.0497711  16.4502882  64.1294889  18.5679704  28.4489322
  63.3528223  19.1273624  28.4392187  64.7685452  19.0536487  28.9704192
  71.9215670  15.3506497  22.2832299  71.2790050  15.6439030  21.6372093
  71.4170598  15.2359417  23.0885495  69.5755833  19.0969670  12.9718158
  70.4873690  19.3297057  12.7965856  69.0665481  19.6806714  12.4093237
  62.3841261  21.3765158  28.0107289  63.1255946  21.9150202  27.7342113
  61.6778247  22.0031446  28.1678841  67.8596601  23.5194298  26.6079451
  68.2679957  23.0776709  25.8634083  67.1373863  22.9446926  26.8613644
  64.2127671  18.4566905  23.9813008  65.0588866  18.8806318  24.1247657
  64.1526309  17.8000529  24.6751571  68.1825416  24.0795489  20.3631740
  67.5534278  24.2441203  19.6607807  67.7951078  24.4937098  21.1342704
  72.0614648  25.0149927  17.7176103  71.3765686  25.3948828  17.1673137
  72.1458497  25.6245253  18.4508051  67.3627116  16.1171273  25.6394181
  67.1188048  16.8713334  25.1028457  67.6387047  16.4956621  26.4741428
  69.3165579  22.6609886  24.3171447  69.5282475  23.3041645  23.6405828
  69.2695328  21.8272202  23.8493377  66.9191808  15.2727706  21.2208019
  66.0576287  15.5708960  21.5124757  66.9454243  15.4898105  20.2889052
  63.7353378  23.8169897  17.6281825  64.1991723  24.0957600  16.8386447
  63.4710176  22.9153341  17.4454915  60.6277459  23.3641378  20.5661588
  61.1978816  23.7928647  19.9279072  61.2185571  23.0823963  21.2645774
  62.6722264  19.9393049  14.4371390  63.3746307  20.3914093  14.9045316
  62.3402892  19.2976868  15.0651283  61.1202625  18.5304806  28.8122599
  60.4901286  19.2121087  29.0457996  61.0138713  18.4187887  27.8675737
  56.4147598  18.1976602  19.7388523  55.6246652  18.4534130  19.2628634
  56.9058845  19.0124940  19.8440564  70.4311407  25.5381841  22.4893804
  71.2528851  25.1362028  22.2076486  70.4273810  25.4350075  23.4409920
  58.3662343  18.5621181  16.6972000  57.5693506  18.6739875  17.2155496
  58.1387935  18.9007833  15.8312891  64.1968011  25.0865884  24.6454515
  64.2612443  25.5486292  25.4812687  63.4878935  24.4563249  24.7736825
  54.6985301  18.4507092  22.1703514  54.9493339  19.3354102  22.4361090
  55.2344849  18.2711694  21.3978606  78.5217400  21.8820589  18.8378776
  77.7681109  21.3127988  18.6822780  78.6564941  21.8483254  19.7849410
  63.9116028  26.7533992  14.5133495  63.7761703  27.5985528  14.9418343
  64.4525841  26.9553269  13.7499429  60.3983368  12.8325572  31.1747850
  60.0050314  12.2791770  31.8495494  61.2149508  13.1436150  31.5654368
  57.3645426  24.2709430  15.0861420  57.8769946  25.0652680  15.2366985
  58.0168139  23.5735720  15.0195022  59.1740310  27.3875186  17.1684173
  59.3506939  28.3093151  16.9805157  59.9697144  27.0733605  17.5978553
  63.3151329  14.2483451  28.7668107  64.0561042  14.8490604  28.6872569
  63.5469252  13.5061089  28.2086149  58.4592667  19.4339818  27.0446336
  58.3446182  18.5325075  27.3453435  57.6037185  19.6803515  26.6931153
  65.5384505  27.3757558  28.6433837  65.0948359  26.5893937  28.3254742
  66.2001718  27.5636709  27.9777728  60.2971626  28.9053360  23.1694516
  60.8479051  28.7770423  22.3971510  59.4583102  29.2048249  22.8189408
  67.6365743  27.6560358  26.6715238  67.6184218  28.4769239  26.1795508
  68.5585663  27.5314433  26.8965380  64.0938797  25.1704488  27.5138747
  64.6267134  24.4092776  27.2838055  63.5652878  24.8778140  28.2562901
  67.2608492  10.2764554  23.0432388  66.9172761  11.1666195  22.9671499
  67.6287454  10.0866211  22.1801973  55.3294342  22.5998084  15.8620991
  56.1669564  23.0095092  15.6454698  55.5072610  21.6597526  15.8321185
  67.2258775  20.2673165  11.5504824  66.7105398  21.0377769  11.7893211
  66.9536083  19.5938301  12.1737885  64.8105886  15.1122866  16.6090062
  63.9547482  14.7229716  16.4295701  65.2232837  15.1914826  15.7489847
  66.3405032  12.6469209  21.0081622  65.8369828  12.6099344  20.1949427
  66.6335639  13.5561952  21.0678278  62.5847918  12.7307939  20.0147803
  63.4500915  12.5350747  19.6553693  62.6525427  12.5018290  20.9417160
  72.1993049  23.0205519  13.4857997  71.4222492  22.6816679  13.0413159
  72.8784530  23.0258143  12.8112962  67.0145078  18.1400257  13.3764605
  66.7095213  18.4546406  14.2274748  67.9675520  18.2181677  13.4191938
  65.4591510  24.2990480  15.0257559  64.9312871  23.5643240  14.7130796
  64.9579012  25.0765157  14.7797527  70.4384356  22.4939501  20.1424605
  69.7808030  23.1838762  20.2304734  71.2424755  22.8835933  20.4858591
  60.1910237  14.9610146  17.3864170  60.7653989  14.7385328  16.6537363
  60.7781220  15.0298841  18.1392772  69.2489814  20.8483873  18.1928547
  69.7621696  21.4813865  18.6950257  69.8991038  20.2485069  17.8271907
  62.4932905  11.8351395  16.1139240  61.8397317  11.5200413  15.4895854
  62.4513379  11.2127136  16.8399063  63.6044110  22.1170690   8.0292532
  62.6971172  21.8859944   8.2283681  64.1015142  21.3208310   8.2166513
  66.5112189  30.8268198  10.9489218  65.8373887  31.1299894  11.5574176
  66.8978011  31.6297278  10.5994675  65.7270645  18.3233329  20.4386887
  64.8093207  18.5448276  20.2808575  66.1430789  18.3979639  19.5798595
  66.5105693  19.7224745  15.5689568  67.2577512  20.2346142  15.2596690
  66.7797283  19.4008797  16.4293961  64.7832343  22.2183285  12.5516522
  63.8743563  21.9342318  12.6488992  64.8127427  22.6382364  11.6919829
  70.0151611  25.8289875  16.3207689  69.5613938  24.9880785  16.3772880
  69.3845577  26.4651273  16.6582470  68.9584530  16.7581861  17.5508357
  68.2207287  16.2459247  17.8818599  69.2111304  16.3182242  16.7391634
  68.4584550  27.6666372  17.2557508  68.7507524  28.2271429  16.5369873
  68.9683170  27.9594932  18.0110667  69.0596158   9.5358113  18.1450126
  69.3655034   8.6755476  17.8576041  69.7848762  10.1275733  17.9449120
  55.3520514  19.9388799  16.5331724  55.1544913  19.3458160  15.8082791
  54.7967178  19.6341010  17.2507663  63.3317237  19.8311906  18.6526317
  63.3865847  18.8785742  18.5768794  62.5208439  19.9871345  19.1367616
  64.4808431  23.7592029   9.8904600  64.0427861  23.0427888   9.4310238
  65.2218872  23.9868144   9.3289692  61.2709597  18.4488966  16.4116696
  60.4577463  18.7483136  16.8181888  61.7668591  18.0544654  17.1291178
  63.4218175  28.4446723  18.3450961  63.3794354  28.6707569  17.4159493
  64.3380874  28.2110097  18.4936762  66.8683809  18.9130790  25.2431590
  67.2233197  19.1402263  26.1026056  67.5155940  19.2449167  24.6208845
  72.5981546  22.0349226  15.9480919  72.4599444  22.2250822  15.0202108
  72.2417765  22.7968609  16.4048970  60.7623672  16.0207321  22.0277931
  61.4023051  15.8796080  21.3300894  59.9301203  15.7341835  21.6516533
  72.6250925  24.1025753  20.9592191  73.0587432  24.0101042  21.8075245
  73.3382506  24.0783253  20.3212207  61.5383976  25.3209752  18.1412923
  62.3324574  24.8260072  17.9395498  60.8275668  24.7927615  17.7780629
  66.3578820  27.7027847  22.4925291  66.4115843  28.2718783  23.2603007
  65.4893602  27.8729732  22.1279328  57.8466739  19.4652833  14.2172676
  56.9164327  19.4037289  14.4342638  57.9424211  18.9428786  13.4209317
  57.7652288  15.9907646  16.8050918  58.0259106  16.9052979  16.6960078
  58.5869461  15.5232089  16.9547531  59.2377214  17.4045403  23.9749742
  59.9100267  17.1962765  23.3262391  58.4107000  17.2067489  23.5354975
  73.4866475  24.1449454  23.4925076  73.6802365  25.0495264  23.7384351
  73.3867093  23.6856873  24.3263661  65.1402786  14.0307344  25.9915403
  64.4930701  14.7297294  25.8979880  65.9103801  14.4643488  26.3591651
  68.5481584  24.2956196  29.0665957  68.3967090  24.0666748  28.1496040
  68.5386263  25.2526798  29.0797302  65.3166920  21.8688109  24.0512223
  66.2458980  22.0199269  23.8781190  64.8957950  21.9572130  23.1960869
  64.1155252  25.8938774  21.8210761  63.9766338  25.5257558  22.6936699
  63.3269848  26.4086413  21.6494718  64.7103404  30.9947870  13.1636297
  64.8855160  30.5235913  13.9781920  64.0236192  31.6213636  13.3917558
  65.6660467  25.2720376  19.2099598  65.3310300  25.2321146  20.1057248
  65.1664413  24.6065092  18.7370009  59.6404711  20.6788006  24.7352180
  59.5024509  19.9468245  25.3363719  60.5509634  20.5896906  24.4536367
  68.6019659  22.6176411   9.4836658  67.9848829  21.8923239   9.3869711
  68.1336147  23.3785771   9.1403732  62.2687012  20.3907966  24.2235859
  62.9786630  19.7501158  24.1822478  62.2256320  20.6420860  25.1462040
  70.2573790  27.3275319  27.1442438  70.1986336  26.6434539  26.4773021
  70.6593309  28.0694309  26.6923064  60.9815946  17.3773184  26.0431499
  60.4453303  16.9263922  26.6953095  60.3932654  17.5119092  25.3001963
  59.2764489  34.1437233  19.9376157  59.5161087  34.7755757  20.6155176
  58.4333686  33.7925273  20.2241517  70.2591198  25.2914903  25.3756418
  69.3717976  24.9540825  25.4982817  70.8289749  24.5597934  25.6125183
  51.9120345  21.6238995  18.6999469  52.5991385  21.3100725  18.1120485
  51.7568473  22.5280359  18.4266721  56.7155067  16.5129191  23.1284493
  56.6313256  15.9054861  22.3934903  55.8937773  17.0038210  23.1293989
  63.7892351  29.9516355  22.3417661  63.7162522  30.7571327  22.8536966
  63.3469744  30.1508321  21.5165683  63.5782131  29.1888125  15.8520483
  62.7949652  29.7309805  15.9458707  64.2774876  29.7062105  16.2514724
  66.8878781  14.9982755  18.4954688  67.3847480  14.2452717  18.1755758
  66.1165762  15.0347071  17.9297898  74.7408538  20.7023120  20.1372980
  74.7298414  21.5847836  19.7666913  73.8725918  20.3494671  19.9427517
  66.2491035  29.8503189  24.4975820  66.9619007  30.4850654  24.4251721
  65.7581063  29.9467055  23.6815822  67.9708561  23.7554442  16.0693112
  67.0364840  23.8755904  15.8997816  68.1485230  22.8526909  15.8053121
  63.4713749  17.1400138  18.2226373  63.1011537  16.5871178  18.9107278
  63.9672842  16.5358271  17.6701373  71.3581113  19.5971761  16.6043146
  71.8241565  20.4299753  16.5303448  71.8088613  19.1316743  17.3088404
  61.3002948  27.5997633  25.3181391  62.0012408  28.2334116  25.4710785
  60.8298063  27.9412364  24.5577030  69.4257344  25.9415583  13.6029298
  69.7017188  25.8272177  14.5123172  68.5561843  25.5433067  13.5641471
  69.3297776  11.9652348  20.6434047  68.4160855  12.1956575  20.8116254
  69.7590877  12.0490792  21.4948079  69.1004234  20.1542240  23.1433941
  68.4475684  20.4018148  22.4886394  69.4784614  19.3406378  22.8096418
  66.0611408  30.1901933  17.2462111  66.2433802  29.3723589  17.7089864
  66.8844394  30.4069626  16.8087001  66.3953573  29.1170119  14.5077160
  66.9241340  28.6062573  13.8947322  66.6581793  28.8012649  15.3722693
  65.1491807  20.8962051  29.6299978  64.4732444  20.7956181  30.3002353
  65.9719441  20.7401265  30.0935975  56.8970666  27.1333988  22.2512493
  57.4824103  26.3877676  22.3840398  56.6995505  27.4437945  23.1349157
  59.7509321  30.1685235  17.2674936  59.0819697  30.6531363  16.7838976
  59.6122191  30.4154456  18.1818314  51.4888321  19.7039588  20.9716937
  51.5272420  19.1703179  21.7654055  50.9828614  19.1774794  20.3527914
  63.8914590  32.2028979  23.8657594  64.4432898  32.3660600  24.6306679
  64.2320783  32.7933417  23.1937619  58.8679083  14.5504129  24.4679479
  58.9320410  15.4118959  24.0556877  58.8046203  13.9378130  23.7351837
  58.3431356  16.6227261  28.1152513  58.9703394  16.2404338  28.7290037
  57.4859275  16.4041463  28.4808206  68.7425464  27.0290236  29.7206249
  69.2865368  27.6420195  29.2261203  68.1612309  27.5869815  30.2373262
  55.1196898  18.4303690  14.0470868  55.4150339  17.5214369  13.9937922
  54.2184934  18.4091430  13.7251870  67.0282977  30.1510954  20.8521276
  66.9034117  29.3500694  20.3432222  67.6862068  30.6457148  20.3635246
  58.6491145  16.5059687  20.0298417  57.9277731  17.1195654  19.8905890
  59.4384401  17.0417452  19.9515063  69.0917886  27.9519974  22.4800826
  68.1448221  27.8325326  22.4079153  69.4400659  27.0642472  22.5627088
  61.4517459  13.8414113  26.3039068  61.9751861  14.0876410  27.0665378
  61.2329792  14.6734148  25.8842206  56.8484740  16.1117788  14.1710193
  56.5197446  15.2315167  13.9885299  57.2024111  16.0565457  15.0586582
  66.0964319  27.7472691  18.6805179  65.9489281  26.8189398  18.8612749
  66.9217812  27.7692781  18.1962254  59.9626563  16.3990758  14.5385671
  60.3022636  16.9276679  13.8164279  60.4098684  16.7371164  15.3144237
  69.6998441  28.5701249  19.7670051  70.6244988  28.3644111  19.6294503
  69.5313744  28.3217650  20.6759393  62.6570004  14.7827808  23.9888739
  62.3166824  13.9835621  24.3909419  61.9509010  15.0829519  23.4165572
  63.3086476  11.8677121  22.4416062  64.1312545  11.3937599  22.3194952
  63.5524539  12.6467605  22.9414748  61.9494710  14.8965379  12.7378964
  62.6703073  15.2746632  12.2342680  61.3260014  15.6154256  12.8413942
  66.0925833  15.6010528  13.6737296  66.3089448  16.4835166  13.3726124
  65.6119900  15.2096742  12.9442938  60.8325055  18.5596241  20.2508040
  60.6869635  18.8736544  21.1432322  60.3550258  19.1781142  19.6978939
  62.6921437  15.5498789  20.2988930  62.6783006  14.6539883  19.9621228
  63.4093866  15.5569453  20.9327216  64.5447568  15.9836130  22.3442057
  64.2865346  16.9053200  22.3426388  64.0132609  15.5866564  23.0342522
  69.4893757  29.0886917  15.1232143  69.6630634  28.5233339  14.3705995
  69.9822648  29.8887812  14.9411633  55.3070717  21.1001586  23.1895702
  54.7624185  21.8761394  23.3215976  56.1850067  21.4472390  23.0314823
  62.0958333  14.4313170  15.5676500  62.2174245  13.5029816  15.7667388
  61.8060376  14.4451856  14.6554816  64.9649524  12.1168080  18.7043220
  64.9871221  12.1807413  17.7495200  65.3817583  11.2772589  18.8983726
  75.3433148  21.8523340  16.7422443  75.7864294  21.1030665  16.3441566
  74.4659658  21.8433476  16.3596175  70.4768929  28.4053681  12.2229041
  71.1719834  29.0260374  12.4416356  70.8192080  27.5549032  12.4981419
  56.0936739  20.2271482  26.0825859  55.3518475  20.3754117  26.6690489
  55.7729483  20.4879748  25.2192608  72.3760353  25.8553387  13.7516372
  72.9011677  26.1940659  13.0265692  72.2882705  24.9200402  13.5679507
  64.0380401  29.7687460  25.8806249  64.3467528  29.5236607  26.7528948
  64.8355883  29.9734099  25.3925119  64.0601013  31.9225370  18.1111625
  63.6206004  31.4301749  18.8044482  64.8109130  31.3798338  17.8703700
  56.5393352  28.1136911  18.1136253  57.3651372  27.8140683  17.7334897
  56.1887404  27.3444533  18.5626042  61.5074885  27.4663379  20.1833927
  60.8854895  26.8034084  19.8836155  62.1779752  27.4924511  19.5007575
  54.7401957  26.0323237  19.0725187  53.9033866  25.6045412  18.8909188
  54.7125603  26.2255681  20.0095978  61.5799413  15.9445167  29.7766433
  61.6287568  16.8207290  29.3944202  62.1221927  15.4022560  29.2038076
  72.0654259  26.4886290  29.0567570  71.2749802  26.4710429  28.5172069
  71.8287613  27.0274584  29.8116606  72.1852134  23.3378757  26.3700298
  72.2350139  23.1728764  27.3115821  72.0766057  22.4706016  25.9798179
  61.0688392  26.0167302  13.6592387  61.2176513  26.7002767  13.0059060
  61.8754836  25.9972392  14.1741843  69.4755896  19.3209685  27.6859605
  70.3765759  19.1816150  27.3943603  69.5503871  19.4864140  28.6257783
  63.8098701  16.6976539  26.5312791  62.9402011  16.9910106  26.2595380
  64.0458182  17.2816984  27.2520055  73.6870330  25.7575698  26.6142320
  73.3955139  26.1205679  27.4505781  73.0742462  25.0442706  26.4355652
  74.8866013  23.3228578  19.1344890  75.7212904  23.7618382  19.2982451
  75.0225142  22.8467231  18.3153136  71.9357519  20.8808313  25.0822378
  72.4111640  21.0735959  24.2741229  71.0123084  20.9367499  24.8365762
  58.8241025  22.0432480  14.6653456  58.5787067  21.1394810  14.8633666
  58.9936940  22.0449630  13.7232934  66.5137735  12.9156156  24.0478212
  67.0319679  13.6517183  23.7224700  66.1592868  13.2220150  24.8824971
  66.7650329   9.3356439  19.5679108  67.0452083   8.6679628  20.1939535
  67.5500936   9.5285535  19.0553772  64.5683798  28.5115433  11.1304135
  63.9957765  29.1305620  10.6774607  65.1416592  29.0614795  11.6644057
  70.6359188  17.7574073  23.3150684  71.5876611  17.8572171  23.3362908
  70.4662638  16.9652341  23.8248768  68.6573567  14.8429656  23.5010084
  68.0623499  15.1234669  22.8056573  68.3723264  15.3323557  24.2726826
  67.7881058  28.7952583  12.2612717  68.7211731  28.7298145  12.4645593
  67.7004270  29.6308850  11.8027250  70.4169074  28.1118453   9.2216665
  70.3382706  27.7778317  10.1152422  71.2378741  28.6040221   9.2208137
  73.1147265  20.9780193  22.4292983  73.0823586  20.0396193  22.6152667
  73.7247889  21.0564229  21.6958808  64.9530596  19.8476246   8.4720187
  65.8989701  19.7182454   8.5408605  64.5744841  19.1090907   8.9489615
  73.2641754  17.7691236  22.4751266  72.7480803  16.9849693  22.2881195
  74.1481703  17.4409953  22.6397786  70.9252481  11.5132252  18.4347079
  70.7277302  11.2047340  19.3190411  71.5352186  12.2393891  18.5645009
  78.9323815  22.0396199  21.5699020  79.6627204  21.7781488  22.1306723
  78.3230761  21.3024921  21.6101088  77.0139112  20.1804062  22.1673471
  76.2872276  20.0460027  21.5589963  76.5986399  20.4880891  22.9730189
  64.8369289  23.8993992  29.9320844  65.7572298  24.0772591  30.1260891
  64.8018872  22.9550037  29.7800543  54.0551454  19.0932585  18.8574119
  53.7354238  18.2397894  18.5648493  53.5084882  19.3081164  19.6132086
  57.8331361  21.8095026  22.5743625  58.0517371  22.7412134  22.5931659
  58.2457135  21.4503001  23.3598429  64.7535579  12.3163112  14.5619314
  63.9436308  11.9710197  14.9374560  65.4419996  12.0070655  15.1506925
  66.6826128  11.3941158  16.1843610  67.2357166  11.8136612  16.8433633
  66.9196214  10.4676907  16.2266566  62.7059227  17.3828232  31.9646374
  62.6055954  18.3322589  31.8958465  62.4880769  17.0546471  31.0922444
  53.9239714  22.7135497  20.8267240  53.2303185  22.2989450  20.3137195
  54.6712705  22.7556033  20.2300659  70.0604935  13.5041684  15.6922275
  69.4803604  14.1626488  15.3100327  69.7940867  12.6819028  15.2809692
  68.5108501  12.9046741  17.8943595  69.0108279  13.0163276  17.0857914
  69.1544109  12.6007794  18.5344403  62.5690497  20.8125371  30.7811436
  62.0857579  21.6125731  30.9875325  62.6551436  20.8233316  29.8278880
  55.8376456  22.6453751  18.7033255  55.8147145  22.7441438  17.7515138
  56.1477093  23.4918901  19.0250421  58.4963834  24.7029906  22.8179870
  59.4507088  24.6713848  22.7509801  58.2976358  24.2420529  23.6330096
  59.0863216  23.2731022  25.3850667  59.9056105  23.7675100  25.4085505
  59.3600024  22.3562990  25.3568235  68.8429813  15.6641774  14.7478623
  67.9555668  15.9491425  14.5298818  69.2583802  15.5035537  13.9005900
  72.1944349  15.6888295  18.4632962  72.9704739  16.1784747  18.7357579
  71.4692483  16.1146349  18.9204832  74.6316907  16.4015914  19.5206903
  75.2261398  16.1611650  18.8100211  74.7043491  15.6823045  20.1480439
  56.8514063  30.2449525  19.8350068  56.7168531  29.4849926  19.2688066
  56.4346125  30.9690425  19.3678856  67.9873026  25.4286449   8.8426643
  68.6908876  25.6336451   9.4584299  67.2635675  25.9963211   9.1075726
  68.8170836  21.1796310  14.9628913  68.7606038  21.6364861  14.1236545
  69.3699179  20.4186995  14.7851756  72.6275642  16.9686042  15.7879033
  72.3712577  16.5682677  16.6187240  72.0028510  17.6829836  15.6629172
  76.9387980  19.7082115  18.2950324  76.3787538  19.7775304  19.0681886
  76.3331484  19.5323100  17.5749820  60.0083189  31.1418842  20.0468510
  59.8915573  32.0864275  19.9447201  59.1875635  30.8392404  20.4354309
  69.8959724  25.8668978  10.8925103  70.7305327  25.4350176  10.7102578
  69.7344066  25.6950992  11.8201997  69.5505616  22.3701091  12.2581442
  69.4954419  22.2045363  11.3169886  68.9251671  23.0777124  12.4143632
  54.3398131  17.6069156  26.0842864  54.9856994  17.0968110  26.5730090
  54.1315282  18.3437837  26.6586290  66.8651523  24.6750003  31.5835005
  67.7342682  24.8490655  31.2221640  66.3858274  25.4944420  31.4610734
  61.0337703  31.7947104  23.2624439  61.9364950  31.8270714  23.5790934
  60.8075073  30.8647555  23.2770774  62.7891305  30.5478091  19.9234517
  61.8386936  30.5479952  19.8098890  63.0923791  29.8010825  19.4070552
  66.6753861   8.4651977  16.0912697  65.9086256   7.9110464  16.2369380
  67.0864566   8.5373846  16.9526849  58.6795622  14.7536773  30.1817879
  59.5427083  14.3973578  30.3921203  58.1061032  14.4150667  30.8693283
  78.5243999  36.3838629  20.9880280  79.1622409  36.2645376  20.2843620
  78.4064841  37.3319473  21.0468232  75.3333705  36.3366057  20.9241804
  74.9952216  36.2207122  20.0362339  76.2023473  35.9357222  20.9042811
  71.1920521  38.1901534  16.9138695  70.6285386  38.0991470  16.1454983
  71.0772916  37.3701438  17.3941188  75.8153488  37.4900909  26.8828010
  75.8042129  37.0953707  26.0108514  75.9774127  36.7566981  27.4761781
  68.7384953  39.6852725  19.7522916  69.5306244  39.3443550  19.3369215
  68.9781603  39.7947700  20.6725069  76.7720079  41.8572501  12.2253160
  76.1208059  42.4426582  11.8387174  77.5664442  42.3878696  12.2848198
  70.6975706  38.9461638  12.6240295  71.4706582  38.3990625  12.4853170
  71.0501105  39.8105888  12.8354756  72.5360749  40.2738021  25.8307194
  72.2450615  41.1783651  25.7153860  73.1717733  40.3154548  26.5451263
  73.4616956  37.6514869  22.4208554  74.0580528  37.4270892  21.7065516
  73.5191927  36.9099615  23.0234001  73.0341984  35.1054304  10.2558745
  73.2867505  34.5835826   9.4942208  72.0966543  34.9420450  10.3585428
  78.0785267  34.1090083  18.0633488  78.8648356  33.6909506  17.7123905
  78.3423971  35.0136175  18.2315136  78.2495344  39.5462933  12.7622145
  77.6141177  39.6197560  13.4743049  77.9192751  40.1356532  12.0841224
  83.4793694  34.0465316  18.9666466  84.2118866  33.4764533  19.2004296
  82.7233050  33.6586916  19.4072972  72.7538273  37.0082410  12.4583119
  72.6374531  36.3327314  13.1264204  72.8640533  36.5214784  11.6415273
  75.0969814  36.4692558  16.1629809  74.7328021  35.9423179  16.8742730
  75.9536930  36.0791027  15.9896294  81.0019115  27.7586890  23.4261075
  80.6702439  28.6282301  23.2022290  80.4064728  27.4423174  24.1055105
  74.7375301  31.4982457  11.1591157  74.9049703  32.3662694  11.5261628
  74.5472470  31.6609739  10.2352446  77.4950634  39.9599436  22.8256988
  77.1951357  40.8624475  22.7172795  77.1501694  39.6931619  23.6778140
  70.9463116  36.4113233  18.8593692  70.0213612  36.2789447  19.0671384
  71.1947529  37.1907452  19.3563634  80.8947778  32.4781976  20.5054425
  79.9864655  32.4097385  20.2113186  80.8435374  32.9553921  21.3336250
  74.7164522  33.9540115  12.1437824  74.5964147  34.3997166  12.9823304
  74.0217110  34.3025432  11.5851362  68.3071927  36.0546507  19.6937481
  68.4364308  36.3080985  20.6076893  67.6269378  36.6474215  19.3742136
  72.4771414  46.7243756  15.7927955  72.3995444  47.6751582  15.8716436
  71.8733057  46.3789629  16.4502882  74.9688644  33.8971622  28.4489322
  74.1921978  34.4565542  28.4392187  75.6079207  34.3828405  28.9704192
  82.7609424  30.6798415  22.2832299  82.1183805  30.9730948  21.6372093
  82.2564353  30.5651335  23.0885495  80.4149588  34.4261588  12.9718158
  81.3267444  34.6588975  12.7965856  79.9059235  35.0098632  12.4093237
  73.2235016  36.7057075  28.0107289  73.9649700  37.2442119  27.7342113
  72.5172001  37.3323364  28.1678841  78.6990356  38.8486216  26.6079451
  79.1073712  38.4068626  25.8634083  77.9767617  38.2738843  26.8613644
  75.0521426  33.7858823  23.9813008  75.8982621  34.2098236  24.1247657
  74.9920063  33.1292447  24.6751571  79.0219170  39.4087406  20.3631740
  78.3928033  39.5733121  19.6607807  78.6344832  39.8229016  21.1342704
  82.9008402  40.3441844  17.7176103  82.2159440  40.7240746  17.1673137
  82.9852251  40.9537171  18.4508051  78.2020871  31.4463191  25.6394181
  77.9581803  32.2005251  25.1028457  78.4780801  31.8248538  26.4741428
  80.1559334  37.9901803  24.3171447  80.3676229  38.6333563  23.6405828
  80.1089082  37.1564120  23.8493377  77.7585563  30.6019624  21.2208019
  76.8970042  30.9000877  21.5124757  77.7847997  30.8190023  20.2889052
  74.5747132  39.1461814  17.6281825  75.0385478  39.4249517  16.8386447
  74.3103930  38.2445259  17.4454915  71.4671213  38.6933296  20.5661588
  72.0372570  39.1220564  19.9279072  72.0579325  38.4115881  21.2645774
  73.5116018  35.2684967  14.4371390  74.2140062  35.7206010  14.9045316
  73.1796647  34.6268786  15.0651283  71.9596380  33.8596723  28.8122599
  71.3295040  34.5413004  29.0457996  71.8532468  33.7479805  27.8675737
  67.2541352  33.5268519  19.7388523  66.4640406  33.7826048  19.2628634
  67.7452600  34.3416857  19.8440564  81.2705162  40.8673759  22.4893804
  82.0922605  40.4653946  22.2076486  81.2667565  40.7641993  23.4409920
  69.2056098  33.8913099  16.6972000  68.4087261  34.0031793  17.2155496
  68.9781690  34.2299751  15.8312891  75.0361765  40.4157802  24.6454515
  75.1006198  40.8778209  25.4812687  74.3272689  39.7855167  24.7736825
  65.5379055  33.7799010  22.1703514  65.7887094  34.6646020  22.4361090
  66.0738604  33.6003611  21.3978606  89.3611155  37.2112507  18.8378776
  88.6074863  36.6419905  18.6822780  89.4958696  37.1775172  19.7849410
  74.7509783  42.0825909  14.5133495  74.6155458  42.9277445  14.9418343
  75.2919595  42.2845187  13.7499429  71.2377122  28.1617489  31.1747850
  70.8444068  27.6083688  31.8495494  72.0543263  28.4728068  31.5654368
  68.2039180  39.6001347  15.0861420  68.7163701  40.3944598  15.2366985
  68.8561893  38.9027638  15.0195022  70.0134065  42.7167104  17.1684173
  70.1900693  43.6385068  16.9805157  70.8090898  42.4025523  17.5978553
  74.1545083  29.5775368  28.7668107  74.8954797  30.1782522  28.6872569
  74.3863006  28.8353006  28.2086149  69.2986421  34.7631736  27.0446336
  69.1839937  33.8616993  27.3453435  68.4430939  35.0095432  26.6931153
  76.3778259  42.7049476  28.6433837  75.9342113  41.9185855  28.3254742
  77.0395473  42.8928626  27.9777728  71.1365380  44.2345278  23.1694516
  71.6872805  44.1062341  22.3971510  70.2976856  44.5340167  22.8189408
  78.4759497  42.9852276  26.6715238  78.4577973  43.8061157  26.1795508
  79.3979417  42.8606351  26.8965380  74.9332551  40.4996405  27.5138747
  75.4660888  39.7384694  27.2838055  74.4046633  40.2070057  28.2562901
  78.1002246  25.6056471  23.0432388  77.7566516  26.4958113  22.9671499
  78.4681209  25.4158129  22.1801973  66.1688097  37.9290002  15.8620991
  67.0063319  38.3387010  15.6454698  66.3466365  36.9889444  15.8321185
  78.0652529  35.5965082  11.5504824  77.5499153  36.3669687  11.7893211
  77.7929838  34.9230219  12.1737885  75.6499640  30.4414783  16.6090062
  74.7941236  30.0521634  16.4295701  76.0626592  30.5206744  15.7489847
  77.1798787  27.9761126  21.0081622  76.6763582  27.9391262  20.1949427
  77.4729394  28.8853869  21.0678278  73.4241673  28.0599856  20.0147803
  74.2894669  27.8642665  19.6553693  73.4919182  27.8310208  20.9417160
  83.0386803  38.3497437  13.4857997  82.2616246  38.0108597  13.0413159
  83.7178284  38.3550060  12.8112962  77.8538832  33.4692175  13.3764605
  77.5488968  33.7838324  14.2274748  78.8069274  33.5473594  13.4191938
  76.2985264  39.6282398  15.0257559  75.7706626  38.8935157  14.7130796
  75.7972767  40.4057074  14.7797527  81.2778110  37.8231418  20.1424605
  80.6201785  38.5130680  20.2304734  82.0818509  38.2127850  20.4858591
  71.0303992  30.2902064  17.3864170  71.6047744  30.0677246  16.6537363
  71.6174974  30.3590759  18.1392772  80.0883569  36.1775791  18.1928547
  80.6015451  36.8105783  18.6950257  80.7384793  35.5776987  17.8271907
  71.3573579  32.3206525  11.4060056  70.5210891  32.6581212  11.7269330
  71.2178348  32.1855505  10.4687193  73.3326659  27.1643313  16.1139240
  72.6791072  26.8492330  15.4895854  73.2907134  26.5419054  16.8399063
  74.4437864  37.4462608   8.0292532  73.5364926  37.2151862   8.2283681
  74.9408896  36.6500227   8.2166513  77.3505943  46.1560115  10.9489218
  76.6767642  46.4591812  11.5574176  77.7371765  46.9589196  10.5994675
  76.5664400  33.6525247  20.4386887  75.6486961  33.8740194  20.2808575
  76.9824543  33.7271557  19.5798595  77.3499448  35.0516662  15.5689568
  78.0971267  35.5638059  15.2596690  77.6191037  34.7300715  16.4293961
  75.6226098  37.5475203  12.5516522  74.7137317  37.2634236  12.6488992
  75.6521182  37.9674282  11.6919829  80.8545365  41.1581792  16.3207689
  80.4007692  40.3172702  16.3772880  80.2239332  41.7943191  16.6582470
  79.7978285  32.0873779  17.5508357  79.0601042  31.5751165  17.8818599
  80.0505058  31.6474160  16.7391634  79.2978304  42.9958289  17.2557508
  79.5901279  43.5563346  16.5369873  79.8076925  43.2886850  18.0110667
  79.8989912  24.8650031  18.1450126  80.2048789  24.0047394  17.8576041
  80.6242517  25.4567651  17.9449120  66.1914268  35.2680717  16.5331724
  65.9938668  34.6750078  15.8082791  65.6360932  34.9632927  17.2507663
  74.1710992  35.1603824  18.6526317  74.2259602  34.2077660  18.5768794
  73.3602194  35.3163263  19.1367616  75.3202186  39.0883947   9.8904600
  74.8821615  38.3719806   9.4310238  76.0612626  39.3160061   9.3289692
  72.1103352  33.7780883  16.4116696  71.2971217  34.0775054  16.8181888
  72.6062346  33.3836572  17.1291178  74.2611930  43.7738640  18.3450961
  74.2188108  43.9999487  17.4159493  75.1774628  43.5402015  18.4936762
  77.7077563  34.2422708  25.2431590  78.0626951  34.4694181  26.1026056
  78.3549695  34.5741085  24.6208845  83.4375300  37.3641144  15.9480919
  83.2993199  37.5542740  15.0202108  83.0811519  38.1260527  16.4048970
  71.6017426  31.3499239  22.0277931  72.2416806  31.2087998  21.3300894
  70.7694957  31.0633752  21.6516533  83.4644680  39.4317671  20.9592191
  83.8981187  39.3392960  21.8075245  84.1776261  39.4075171  20.3212207
  72.3777730  40.6501669  18.1412923  73.1718329  40.1551989  17.9395498
  71.6669423  40.1219532  17.7780629  77.1972575  43.0319765  22.4925291
  77.2509597  43.6010701  23.2603007  76.3287356  43.2021650  22.1279328
  68.6860494  34.7944751  14.2172676  67.7558082  34.7329207  14.4342638
  68.7817966  34.2720704  13.4209317  68.6046043  31.3199564  16.8050918
  68.8652860  32.2344897  16.6960078  69.4263215  30.8524006  16.9547531
  70.0770968  32.7337321  23.9749742  70.7494022  32.5254683  23.3262391
  69.2500755  32.5359407  23.5354975  84.3260229  39.4741371  23.4925076
  84.5196120  40.3787182  23.7384351  84.2260848  39.0148790  24.3263661
  75.9796540  29.3599262  25.9915403  75.3324455  30.0589212  25.8979880
  76.7497556  29.7935406  26.3591651  79.3875338  39.6248114  29.0665957
  79.2360845  39.3958666  28.1496040  79.3780018  40.5818716  29.0797302
  76.1560675  37.1980027  24.0512223  77.0852735  37.3491186  23.8781190
  75.7351705  37.2864048  23.1960869  74.9549006  41.2230691  21.8210761
  74.8160092  40.8549476  22.6936699  74.1663603  41.7378331  21.6494718
  75.5497158  46.3239788  13.1636297  75.7248914  45.8527831  13.9781920
  74.8629946  46.9505554  13.3917558  76.5054222  40.6012294  19.2099598
  76.1704054  40.5613064  20.1057248  76.0058167  39.9357010  18.7370009
  70.4798465  36.0079924  24.7352180  70.3418263  35.2760163  25.3363719
  71.3903389  35.9188824  24.4536367  79.4413413  37.9468328   9.4836658
  78.8242584  37.2215156   9.3869711  78.9729902  38.7077689   9.1403732
  73.1080766  35.7199883  24.2235859  73.8180385  35.0793076  24.1822478
  73.0650074  35.9712778  25.1462040  81.0967545  42.6567237  27.1442438
  81.0380091  41.9726457  26.4773021  81.4987063  43.3986227  26.6923064
  71.8209700  32.7065101  26.0431499  71.2847057  32.2555840  26.6953095
  71.2326409  32.8411010  25.3001963  70.1158244  49.4729151  19.9376157
  70.3554842  50.1047675  20.6155176  69.2727440  49.1217191  20.2241517
  71.2311959  32.1653753   8.6057962  70.3541425  32.0442553   8.2420209
  71.7069712  31.3739831   8.3536851  81.0984952  40.6206821  25.3756418
  80.2111731  40.2832742  25.4982817  81.6683503  39.8889852  25.6125183
  62.7514099  36.9530912  18.6999469  63.4385139  36.6392642  18.1120485
  62.5962228  37.8572277  18.4266721  67.5548821  31.8421109  23.1284493
  67.4707010  31.2346778  22.3934903  66.7331528  32.3330127  23.1293989
  74.6286105  45.2808273  22.3417661  74.5556277  46.0863244  22.8536966
  74.1863499  45.4800239  21.5165683  74.4175885  44.5180043  15.8520483
  73.6343407  45.0601723  15.9458707  75.1168630  45.0354023  16.2514724
  77.7272535  30.3274672  18.4954688  78.2241235  29.5744635  18.1755758
  76.9559517  30.3638989  17.9297898  85.5802293  36.0315038  20.1372980
  85.5692169  36.9139753  19.7666913  84.7119672  35.6786589  19.9427517
  77.0884789  45.1795107  24.4975820  77.8012761  45.8142572  24.4251721
  76.5974818  45.2758973  23.6815822  78.8102316  39.0846360  16.0693112
  77.8758595  39.2047822  15.8997816  78.9878984  38.1818826  15.8053121
  74.3107504  32.4692055  18.2226373  73.9405291  31.9163096  18.9107278
  74.8066596  31.8650189  17.6701373  82.1974867  34.9263679  16.6043146
  82.6635319  35.7591671  16.5303448  82.6482368  34.4608661  17.3088404
  72.1396703  42.9289550  25.3181391  72.8406162  43.5626033  25.4710785
  71.6691818  43.2704282  24.5577030  80.2651098  41.2707500  13.6029298
  80.5410942  41.1564095  14.5123172  79.3955597  40.8724985  13.5641471
  80.1691530  27.2944266  20.6434047  79.2554610  27.5248493  20.8116254
  80.5984631  27.3782710  21.4948079  79.9397988  35.4834158  23.1433941
  79.2869439  35.7310065  22.4886394  80.3178368  34.6698296  22.8096418
  76.9005162  45.5193851  17.2462111  77.0827557  44.7015507  17.7089864
  77.7238148  45.7361543  16.8087001  77.2347328  44.4462036  14.5077160
  77.7635094  43.9354491  13.8947322  77.4975547  44.1304566  15.3722693
  75.9885562  36.2253969  29.6299978  75.3126199  36.1248098  30.3002353
  76.8113195  36.0693183  30.0935975  67.7364421  42.4625905  22.2512493
  68.3217857  41.7169593  22.3840398  67.5389259  42.7729862  23.1349157
  70.5903076  45.4977153  17.2674936  69.9213451  45.9823281  16.7838976
  70.4515946  45.7446373  18.1818314  62.3282075  35.0331506  20.9716937
  62.3666175  34.4995096  21.7654055  61.8222368  34.5066711  20.3527914
  74.7308344  47.5320896  23.8657594  75.2826652  47.6952518  24.6306679
  75.0714538  48.1225334  23.1937619  69.7072838  29.8796046  24.4679479
  69.7714164  30.7410877  24.0556877  69.6439958  29.2670048  23.7351837
  69.1825110  31.9519179  28.1152513  69.8097149  31.5696256  28.7290037
  68.3253029  31.7333381  28.4808206  79.5819219  42.3582154  29.7206249
  80.1259123  42.9712112  29.2261203  79.0006064  42.9161732  30.2373262
  65.9590653  33.7595608  14.0470868  66.2544094  32.8506286  13.9937922
  65.0578689  33.7383347  13.7251870  77.8676732  45.4802872  20.8521276
  77.7427871  44.6792612  20.3432222  78.5255823  45.9749065  20.3635246
  69.4884900  31.8351604  20.0298417  68.7671486  32.4487572  19.8905890
  70.2778156  32.3709369  19.9515063  79.9311640  43.2811892  22.4800826
  78.9841976  43.1617243  22.4079153  80.2794413  42.3934390  22.5627088
  72.2911213  29.1706031  26.3039068  72.8145615  29.4168327  27.0665378
  72.0723547  30.0026066  25.8842206  67.6878494  31.4409706  14.1710193
  67.3591201  30.5607084  13.9885299  68.0417865  31.3857374  15.0586582
  76.9358073  43.0764608  18.6805179  76.7883036  42.1481316  18.8612749
  77.7611567  43.0984699  18.1962254  70.8020318  31.7282675  14.5385671
  71.1416390  32.2568597  13.8164279  71.2492438  32.0663081  15.3144237
  80.5392195  43.8993167  19.7670051  81.4638743  43.6936028  19.6294503
  80.3707499  43.6509568  20.6759393  73.4963758  30.1119726  23.9888739
  73.1560579  29.3127539  24.3909419  72.7902765  30.4121437  23.4165572
  74.1480230  27.1969038  22.4416062  74.9706300  26.7229517  22.3194952
  74.3918294  27.9759522  22.9414748  72.7888465  30.2257297  12.7378964
  73.5096827  30.6038550  12.2342680  72.1653769  30.9446174  12.8413942
  76.9319588  30.9302446  13.6737296  77.1483202  31.8127084  13.3726124
  76.4513655  30.5388659  12.9442938  71.6718809  33.8888159  20.2508040
  71.5263390  34.2028462  21.1432322  71.1944013  34.5073059  19.6978939
  73.5315192  30.8790707  20.2988930  73.5176761  29.9831800  19.9621228
  74.2487620  30.8861371  20.9327216  75.3841323  31.3128047  22.3442057
  75.1259100  32.2345118  22.3426388  74.8526363  30.9158482  23.0342522
  80.3287511  44.4178834  15.1232143  80.5024389  43.8525257  14.3705995
  80.8216403  45.2179729  14.9411633  66.1464471  36.4293503  23.1895702
  65.6017939  37.2053311  23.3215976  67.0243821  36.7764308  23.0314823
  72.9352088  29.7605087  15.5676500  73.0567999  28.8321734  15.7667388
  72.6454130  29.7743773  14.6554816  75.8043278  27.4459998  18.7043220
  75.8264975  27.5099331  17.7495200  76.2211337  26.6064506  18.8983726
  86.1826903  37.1815257  16.7422443  86.6258049  36.4322583  16.3441566
  85.3053413  37.1725394  16.3596175  81.3162684  43.7345599  12.2229041
  82.0113589  44.3552291  12.4416356  81.6585834  42.8840950  12.4981419
  66.9330493  35.5563400  26.0825859  66.1912229  35.7046035  26.6690489
  66.6123237  35.8171665  25.2192608  83.2154107  41.1845304  13.7516372
  83.7405431  41.5232577  13.0265692  83.1276460  40.2492320  13.5679507
  74.8774156  45.0979378  25.8806249  75.1861282  44.8528525  26.7528948
  75.6749638  45.3026016  25.3925119  74.8994768  47.2517288  18.1111625
  74.4599758  46.7593666  18.8044482  75.6502885  46.7090255  17.8703700
  67.3787107  43.4428828  18.1136253  68.2045127  43.1432600  17.7334897
  67.0281159  42.6736451  18.5626042  72.3468640  42.7955297  20.1833927
  71.7248649  42.1326002  19.8836155  73.0173507  42.8216429  19.5007575
  65.5795712  41.3615155  19.0725187  64.7427620  40.9337329  18.8909188
  65.5519357  41.5547598  20.0095978  72.4193167  31.2737085  29.7766433
  72.4681323  32.1499208  29.3944202  72.9615682  30.7314478  29.2038076
  82.9048013  41.8178208  29.0567570  82.1143557  41.8002347  28.5172069
  82.6681368  42.3566502  29.8116606  83.0245888  38.6670674  26.3700298
  83.0743893  38.5020682  27.3115821  82.9159811  37.7997933  25.9798179
  71.9082147  41.3459220  13.6592387  72.0570267  42.0294684  13.0059060
  72.7148590  41.3264310  14.1741843  80.3149651  34.6501602  27.6859605
  81.2159513  34.5108067  27.3943603  80.3897625  34.8156057  28.6257783
  74.6492456  32.0268457  26.5312791  73.7795765  32.3202023  26.2595380
  74.8851936  32.6108902  27.2520055  84.5264085  41.0867616  26.6142320
  84.2348893  41.4497596  27.4505781  83.9136216  40.3734624  26.4355652
  85.7259767  38.6520496  19.1344890  86.5606659  39.0910300  19.2982451
  85.8618896  38.1759149  18.3153136  82.7751273  36.2100230  25.0822378
  83.2505395  36.4027877  24.2741229  81.8516839  36.2659416  24.8365762
  69.6634780  37.3724398  14.6653456  69.4180822  36.4686728  14.8633666
  69.8330694  37.3741548  13.7232934  77.3531490  28.2448074  24.0478212
  77.8713434  28.9809101  23.7224700  76.9986622  28.5512067  24.8824971
  68.9330427  33.1052755  12.1639618  68.2399672  33.1797110  11.5079654
  68.6882179  32.3413099  12.6861135  77.6044084  24.6648357  19.5679108
  77.8845838  23.9971546  20.1939535  78.3894691  24.8577452  19.0553772
  75.4077552  43.8407350  11.1304135  74.8351519  44.4597538  10.6774607
  75.9810346  44.3906712  11.6644057  81.4752942  33.0865991  23.3150684
  82.4270365  33.1864088  23.3362908  81.3056393  32.2944259  23.8248768
  79.4967322  30.1721574  23.5010084  78.9017254  30.4526587  22.8056573
  79.2117018  30.6615475  24.2726826  78.6274812  44.1244501  12.2612717
  79.5605485  44.0590062  12.4645593  78.5398025  44.9600767  11.8027250
  81.2562829  43.4410371   9.2216665  81.1776460  43.1070235  10.1152422
  82.0772496  43.9332139   9.2208137  83.9541020  36.3072110  22.4292983
  83.9217340  35.3688111  22.6152667  84.5641644  36.3856147  21.6958808
  75.7924351  35.1768163   8.4720187  76.7383456  35.0474371   8.5408605
  75.4138596  34.4382825   8.9489615  84.1035508  33.0983154  22.4751266
  83.5874557  32.3141610  22.2881195  84.9875457  32.7701870  22.6397786
  81.7646235  26.8424169  18.4347079  81.5671057  26.5339257  19.3190411
  82.3745941  27.5685808  18.5645009  89.7717570  37.3688117  21.5699020
  90.5020958  37.1073405  22.1306723  89.1624515  36.6316839  21.6101088
  87.8532867  35.5095980  22.1673471  87.1266031  35.3751945  21.5589963
  87.4380154  35.8172808  22.9730189  75.6763043  39.2285909  29.9320844
  76.5966053  39.4064508  30.1260891  75.6412626  38.2841955  29.7800543
  73.9767268  33.1018140   8.4075072  73.0698723  32.8051252   8.4837786
  74.2543249  32.8047958   7.5409359  64.8945208  34.4224503  18.8574119
  64.5747993  33.5689811  18.5648493  64.3478637  34.6373081  19.6132086
  68.6725116  37.1386944  22.5743625  68.8911126  38.0704052  22.5931659
  69.0850890  36.7794918  23.3598429  75.5929334  27.6455029  14.5619314
  74.7830062  27.3002114  14.9374560  76.2813751  27.3362573  15.1506925
  77.5219882  26.7233076  16.1843610  78.0750921  27.1428530  16.8433633
  77.7589968  25.7968824  16.2266566  73.5452981  32.7120150  31.9646374
  73.4449708  33.6614507  31.8958465  73.3274523  32.3838389  31.0922444
  72.7466053  29.9605075   8.5487052  73.6085217  30.2859973   8.8082869
  72.9316397  29.1736571   8.0360117  64.7633468  38.0427415  20.8267240
  64.0696940  37.6281367  20.3137195  65.5106459  38.0847951  20.2300659
  80.8998689  28.8333601  15.6922275  80.3197358  29.4918405  15.3100327
  80.6334622  28.0110946  15.2809692  79.3502255  28.2338659  17.8943595
  79.8502034  28.3455194  17.0857914  79.9937863  27.9299712  18.5344403
  73.4084251  36.1417289  30.7811436  72.9251333  36.9417649  30.9875325
  73.4945190  36.1525234  29.8278880  66.6770211  37.9745668  18.7033255
  66.6540899  38.0733356  17.7515138  66.9870847  38.8210819  19.0250421
  69.3357589  40.0321823  22.8179870  70.2900842  40.0005766  22.7509801
  69.1370112  39.5712447  23.6330096  69.9256971  38.6022939  25.3850667
  70.7449860  39.0967018  25.4085505  70.1993779  37.6854908  25.3568235
  79.6823567  30.9933692  14.7478623  78.7949422  31.2783342  14.5298818
  80.0977556  30.8327455  13.9005900  83.0338103  31.0180213  18.4632962
  83.8098493  31.5076665  18.7357579  82.3086237  31.4438267  18.9204832
  85.4710662  31.7307832  19.5206903  86.0655153  31.4903568  18.8100211
  85.5437246  31.0114962  20.1480439  67.6907818  45.5741443  19.8350068
  67.5562286  44.8141844  19.2688066  67.2739880  46.2982343  19.3678856
  78.8266781  40.7578366   8.8426643  79.5302631  40.9628369   9.4584299
  78.1029429  41.3255128   9.1075726  79.6564591  36.5088228  14.9628913
  79.5999792  36.9656779  14.1236545  80.2092933  35.7478912  14.7851756
  83.4669397  32.2977959  15.7879033  83.2106331  31.8974595  16.6187240
  82.8422265  33.0121753  15.6629172  87.7781735  35.0374033  18.2950324
  87.2181293  35.1067222  19.0681886  87.1725238  34.8615017  17.5749820
  70.8476943  46.4710760  20.0468510  70.7309328  47.4156192  19.9447201
  70.0269390  46.1684321  20.4354309  80.7353478  41.1960896  10.8925103
  81.5699082  40.7642094  10.7102578  80.5737821  41.0242909  11.8201997
  80.3899370  37.6993009  12.2581442  80.3348174  37.5337280  11.3169886
  79.7645425  38.4069042  12.4143632  65.1791885  32.9361073  26.0842864
  65.8250749  32.4260027  26.5730090  64.9709036  33.6729755  26.6586290
  77.7045277  40.0041921  31.5835005  78.5736437  40.1782573  31.2221640
  77.2252029  40.8236338  31.4610734  73.6995496  27.2001118  11.8366761
  73.6874165  28.1442958  11.9935032  74.5918918  27.0171263  11.5426222
  71.8731458  47.1239022  23.2624439  72.7758704  47.1562632  23.5790934
  71.6468828  46.1939473  23.2770774  73.6285060  45.8770008  19.9234517
  72.6780691  45.8771870  19.8098890  73.9317546  45.1302743  19.4070552
  77.5147615  23.7943895  16.0912697  76.7480011  23.2402381  16.2369380
  77.9258320  23.8665763  16.9526849  69.5189376  30.0828690  30.1817879
  70.3820838  29.7265495  30.3921203  68.9454787  29.7442585  30.8693283
  89.3637753  51.7130547  20.9880280  90.0016163  51.5937294  20.2843620
  89.2458596  52.6611391  21.0468232  86.1727459  51.6657975  20.9241804
  85.8345971  51.5499039  20.0362339  87.0417228  51.2649140  20.9042811
  82.0314275  53.5193451  16.9138695  81.4679140  53.4283388  16.1454983
  81.9166670  52.6993356  17.3941188  86.6547242  52.8192827  26.8828010
  86.6435883  52.4245625  26.0108514  86.8167882  52.0858899  27.4761781
  79.5778707  55.0144643  19.7522916  80.3699999  54.6735467  19.3369215
  79.8175357  55.1239618  20.6725069  87.6113834  57.1864419  12.2253160
  86.9601814  57.7718499  11.8387174  88.4058197  57.7170614  12.2848198
  81.5369461  54.2753556  12.6240295  82.3100337  53.7282543  12.4853170
  81.8894860  55.1397805  12.8354756  83.3754503  55.6029938  25.8307194
  83.0844369  56.5075569  25.7153860  84.0111488  55.6446466  26.5451263
  84.3010710  52.9806787  22.4208554  84.8974283  52.7562809  21.7065516
  84.3585682  52.2391532  23.0234001  83.8735739  50.4346222  10.2558745
  84.1261259  49.9127743   9.4942208  82.9360298  50.2712368  10.3585428
  88.9179022  49.4382001  18.0633488  89.7042111  49.0201424  17.7123905
  89.1817726  50.3428093  18.2315136  89.0889099  54.8754851  12.7622145
  88.4534932  54.9489477  13.4743049  88.7586505  55.4648450  12.0841224
  94.3187449  49.3757234  18.9666466  95.0512621  48.8056451  19.2004296
  93.5626804  48.9878834  19.4072972  83.5932027  52.3374328  12.4583119
  83.4768286  51.6619232  13.1264204  83.7034287  51.8506702  11.6415273
  85.9363568  51.7984475  16.1629809  85.5721776  51.2715096  16.8742730
  86.7930684  51.4082944  15.9896294  91.8412869  43.0878808  23.4261075
  91.5096194  43.9574219  23.2022290  91.2458482  42.7715092  24.1055105
  85.5769055  46.8274375  11.1591157  85.7443458  47.6954611  11.5261628
  85.3866224  46.9901657  10.2352446  88.3344389  55.2891354  22.8256988
  88.0345112  56.1916393  22.7172795  87.9895448  55.0223537  23.6778140
  81.7856870  51.7405151  18.8593692  80.8607367  51.6081365  19.0671384
  82.0341283  52.5199370  19.3563634  91.7341532  47.8073894  20.5054425
  90.8258410  47.7389302  20.2113186  91.6829128  48.2845839  21.3336250
  85.5558276  49.2832032  12.1437824  85.4357901  49.7289083  12.9823304
  84.8610865  49.6317350  11.5851362  79.1465681  51.3838424  19.6937481
  79.2758062  51.6372903  20.6076893  78.4663132  51.9766132  19.3742136
  83.3165168  62.0535674  15.7927955  83.2389198  63.0043499  15.8716436
  82.7126812  61.7081547  16.4502882  85.8082398  49.2263540  28.4489322
  85.0315732  49.7857460  28.4392187  86.4472961  49.7120323  28.9704192
  93.6003179  46.0090332  22.2832299  92.9577559  46.3022866  21.6372093
  93.0958107  45.8943253  23.0885495  91.2543342  49.7553506  12.9718158
  92.1661199  49.9880892  12.7965856  90.7452990  50.3390550  12.4093237
  84.0628770  52.0348993  28.0107289  84.8043455  52.5734037  27.7342113
  83.3565756  52.6615282  28.1678841  89.5384110  54.1778133  26.6079451
  89.9467466  53.7360544  25.8634083  88.8161372  53.6030761  26.8613644
  85.8915180  49.1150740  23.9813008  86.7376375  49.5390154  24.1247657
  85.8313818  48.4584365  24.6751571  89.8612925  54.7379324  20.3631740
  89.2321787  54.9025038  19.6607807  89.4738587  55.1520934  21.1342704
  93.7402157  55.6733762  17.7176103  93.0553195  56.0532663  17.1673137
  93.8246006  56.2829089  18.4508051  89.0414625  46.7755109  25.6394181
  88.7975557  47.5297169  25.1028457  89.3174556  47.1540456  26.4741428
  90.9953088  53.3193721  24.3171447  91.2069983  53.9625481  23.6405828
  90.9482836  52.4856037  23.8493377  88.5979317  45.9311542  21.2208019
  87.7363796  46.2292795  21.5124757  88.6241752  46.1481940  20.2889052
  85.4140887  54.4753732  17.6281825  85.8779232  54.7541435  16.8386447
  85.1497685  53.5737177  17.4454915  82.3064968  54.0225214  20.5661588
  82.8766325  54.4512482  19.9279072  82.8973080  53.7407798  21.2645774
  84.3509773  50.5976885  14.4371390  85.0533816  51.0497928  14.9045316
  84.0190401  49.9560703  15.0651283  82.7990134  49.1888641  28.8122599
  82.1688795  49.8704922  29.0457996  82.6926222  49.0771723  27.8675737
  78.0935107  48.8560437  19.7388523  77.3034161  49.1117966  19.2628634
  78.5846354  49.6708775  19.8440564  92.1098916  56.1965676  22.4893804
  92.9316360  55.7945864  22.2076486  92.1061319  56.0933911  23.4409920
  80.0449852  49.2205016  16.6972000  79.2481015  49.3323711  17.2155496
  79.8175444  49.5591669  15.8312891  85.8755520  55.7449720  24.6454515
  85.9399952  56.2070127  25.4812687  85.1666444  55.1147085  24.7736825
  76.3772810  49.1090928  22.1703514  76.6280848  49.9937938  22.4361090
  76.9132358  48.9295529  21.3978606 100.2004909  52.5404425  18.8378776
  99.4468618  51.9711823  18.6822780 100.3352450  52.5067089  19.7849410
  85.5903537  57.4117827  14.5133495  85.4549212  58.2569363  14.9418343
  86.1313350  57.6137105  13.7499429  82.0770877  43.4909407  31.1747850
  81.6837822  42.9375606  31.8495494  82.8937017  43.8019985  31.5654368
  79.0432935  54.9293265  15.0861420  79.5557455  55.7236515  15.2366985
  79.6955648  54.2319556  15.0195022  80.8527819  58.0459021  17.1684173
  81.0294448  58.9676986  16.9805157  81.6484653  57.7317441  17.5978553
  84.9938838  44.9067286  28.7668107  85.7348551  45.5074439  28.6872569
  85.2256761  44.1644924  28.2086149  80.1380176  50.0923653  27.0446336
  80.0233691  49.1908911  27.3453435  79.2824694  50.3387350  26.6931153
  87.2172014  58.0341394  28.6433837  86.7735868  57.2477772  28.3254742
  87.8789227  58.2220544  27.9777728  81.9759135  59.5637195  23.1694516
  82.5266560  59.4354259  22.3971510  81.1370611  59.8632084  22.8189408
  89.3153252  58.3144194  26.6715238  89.2971727  59.1353075  26.1795508
  90.2373172  58.1898269  26.8965380  85.7726306  55.8288323  27.5138747
  86.3054643  55.0676611  27.2838055  85.2440387  55.5361975  28.2562901
  88.9396001  40.9348389  23.0432388  88.5960270  41.8250031  22.9671499
  89.3074963  40.7450047  22.1801973  77.0081851  53.2581919  15.8620991
  77.8457073  53.6678928  15.6454698  77.1860119  52.3181362  15.8321185
  88.9046284  50.9257000  11.5504824  88.3892907  51.6961605  11.7893211
  88.6323592  50.2522136  12.1737885  86.4893395  45.7706701  16.6090062
  85.6334991  45.3813551  16.4295701  86.9020346  45.8498662  15.7489847
  88.0192541  43.3053044  21.0081622  87.5157337  43.2683179  20.1949427
  88.3123148  44.2145787  21.0678278  84.2635427  43.3891774  20.0147803
  85.1288424  43.1934583  19.6553693  84.3312936  43.1602126  20.9417160
  93.8780558  53.6789355  13.4857997  93.1010000  53.3400514  13.0413159
  94.5572039  53.6841978  12.8112962  88.6932587  48.7984092  13.3764605
  88.3882722  49.1130241  14.2274748  89.6463029  48.8765512  13.4191938
  87.1379019  54.9574316  15.0257559  86.6100380  54.2227075  14.7130796
  86.6366521  55.7348992  14.7797527  92.1171865  53.1523336  20.1424605
  91.4595539  53.8422597  20.2304734  92.9212264  53.5419768  20.4858591
  81.8697746  45.6193982  17.3864170  82.4441498  45.3969163  16.6537363
  82.4568729  45.6882676  18.1392772  90.9277323  51.5067709  18.1928547
  91.4409205  52.1397701  18.6950257  91.5778547  50.9068904  17.8271907
  82.1967333  47.6498443  11.4060056  81.3604646  47.9873129  11.7269330
  82.0572103  47.5147423  10.4687193  84.1720414  42.4935231  16.1139240
  83.5184826  42.1784248  15.4895854  84.1300888  41.8710971  16.8399063
  85.2831619  52.7754526   8.0292532  84.3758681  52.5443779   8.2283681
  85.7802651  51.9792145   8.2166513  88.1899698  61.4852033  10.9489218
  87.5161396  61.7883730  11.5574176  88.5765520  62.2881113  10.5994675
  87.4058154  48.9817164  20.4386887  86.4880716  49.2032111  20.2808575
  87.8218298  49.0563475  19.5798595  88.1893202  50.3808580  15.5689568
  88.9365021  50.8929977  15.2596690  88.4584792  50.0592633  16.4293961
  86.4619852  52.8767121  12.5516522  85.5531071  52.5926153  12.6488992
  86.4914936  53.2966199  11.6919829  91.6939120  56.4873710  16.3207689
  91.2401447  55.6464620  16.3772880  91.0633086  57.1235109  16.6582470
  90.6372039  47.4165696  17.5508357  89.8994796  46.9043082  17.8818599
  90.8898813  46.9766078  16.7391634  90.1372059  58.3250207  17.2557508
  90.4295033  58.8855264  16.5369873  90.6470679  58.6178768  18.0110667
  90.7383667  40.1941948  18.1450126  91.0442543  39.3339312  17.8576041
  91.4636271  40.7859568  17.9449120  77.0308023  50.5972635  16.5331724
  76.8332422  50.0041995  15.8082791  76.4754687  50.2924845  17.2507663
  85.0104746  50.4895741  18.6526317  85.0653356  49.5369578  18.5768794
  84.1995948  50.6455180  19.1367616  86.1595940  54.4175864   9.8904600
  85.7215370  53.7011723   9.4310238  86.9006381  54.6451979   9.3289692
  82.9497106  49.1072801  16.4116696  82.1364972  49.4066972  16.8181888
  83.4456100  48.7128490  17.1291178  85.1005684  59.1030558  18.3450961
  85.0581863  59.3291404  17.4159493  86.0168383  58.8693933  18.4936762
  88.5471318  49.5714625  25.2431590  88.9020706  49.7986099  26.1026056
  89.1943449  49.9033002  24.6208845  94.2769055  52.6933061  15.9480919
  94.1386953  52.8834657  15.0202108  93.9205274  53.4552444  16.4048970
  82.4411181  46.6791157  22.0277931  83.0810560  46.5379916  21.3300894
  81.6088711  46.3925670  21.6516533  94.3038434  54.7609588  20.9592191
  94.7374941  54.6684877  21.8075245  95.0170015  54.7367089  20.3212207
  83.2171485  55.9793587  18.1412923  84.0112083  55.4843907  17.9395498
  82.5063177  55.4511450  17.7780629  88.0366329  58.3611682  22.4925291
  88.0903352  58.9302619  23.2603007  87.1681111  58.5313568  22.1279328
  79.5254248  50.1236669  14.2172676  78.5951836  50.0621124  14.4342638
  79.6211720  49.6012621  13.4209317  79.4439797  46.6491482  16.8050918
  79.7046615  47.5636815  16.6960078  80.2656970  46.1815924  16.9547531
  80.9164723  48.0629239  23.9749742  81.5887776  47.8546601  23.3262391
  80.0894509  47.8651325  23.5354975  95.1653984  54.8033289  23.4925076
  95.3589874  55.7079100  23.7384351  95.0654602  54.3440708  24.3263661
  86.8190295  44.6891180  25.9915403  86.1718210  45.3881129  25.8979880
  87.5891310  45.1227324  26.3591651  90.2269093  54.9540032  29.0665957
  90.0754599  54.7250583  28.1496040  90.2173772  55.9110633  29.0797302
  86.9954429  52.5271945  24.0512223  87.9246489  52.6783104  23.8781190
  86.5745459  52.6155965  23.1960869  85.7942761  56.5522609  21.8210761
  85.6553847  56.1841393  22.6936699  85.0057357  57.0670248  21.6494718
  86.3890913  61.6531705  13.1636297  86.5642669  61.1819749  13.9781920
  85.7023701  62.2797472  13.3917558  87.3447976  55.9304212  19.2099598
  87.0097809  55.8904982  20.1057248  86.8451922  55.2648928  18.7370009
  81.3192220  51.3371842  24.7352180  81.1812018  50.6052080  25.3363719
  82.2297143  51.2480742  24.4536367  90.2807168  53.2760246   9.4836658
  89.6636338  52.5507074   9.3869711  89.8123656  54.0369606   9.1403732
  83.9474521  51.0491801  24.2235859  84.6574139  50.4084993  24.1822478
  83.9043829  51.3004696  25.1462040  91.9361299  57.9859154  27.1442438
  91.8773845  57.3018374  26.4773021  92.3380818  58.7278144  26.6923064
  82.6603455  48.0357019  26.0431499  82.1240812  47.5847757  26.6953095
  82.0720163  48.1702928  25.3001963  80.9551998  64.8021068  19.9376157
  81.1948596  65.4339592  20.6155176  80.1121195  64.4509108  20.2241517
  82.0705714  47.4945670   8.6057962  81.1935180  47.3734471   8.2420209
  82.5463467  46.7031749   8.3536851  91.9378707  55.9498738  25.3756418
  91.0505485  55.6124660  25.4982817  92.5077258  55.2181769  25.6125183
  73.5907854  52.2822830  18.6999469  74.2778894  51.9684560  18.1120485
  73.4355982  53.1864195  18.4266721  78.3942576  47.1713027  23.1284493
  78.3100765  46.5638696  22.3934903  77.5725282  47.6622045  23.1293989
  85.4679860  60.6100191  22.3417661  85.3950031  61.4155162  22.8536966
  85.0257253  60.8092156  21.5165683  85.2569640  59.8471961  15.8520483
  84.4737161  60.3893641  15.9458707  85.9562385  60.3645940  16.2514724
  88.5666290  45.6566590  18.4954688  89.0634989  44.9036552  18.1755758
  87.7953271  45.6930907  17.9297898  96.4196047  51.3606956  20.1372980
  96.4085923  52.2431671  19.7666913  95.5513427  51.0078506  19.9427517
  87.9278543  60.5087025  24.4975820  88.6406516  61.1434489  24.4251721
  87.4368572  60.6050891  23.6815822  89.6496070  54.4138277  16.0693112
  88.7152349  54.5339740  15.8997816  89.8272739  53.5110744  15.8053121
  85.1501258  47.7983973  18.2226373  84.7799046  47.2455013  18.9107278
  85.6460351  47.1942107  17.6701373  93.0368622  50.2555597  16.6043146
  93.5029074  51.0883588  16.5303448  93.4876122  49.7900578  17.3088404
  82.9790457  58.2581468  25.3181391  83.6799917  58.8917951  25.4710785
  82.5085572  58.5996200  24.5577030  91.1044853  56.5999418  13.6029298
  91.3804697  56.4856012  14.5123172  90.2349352  56.2016903  13.5641471
  91.0085284  42.6236184  20.6434047  90.0948364  42.8540410  20.8116254
  91.4378386  42.7074628  21.4948079  90.7791743  50.8126076  23.1433941
  90.1263193  51.0601983  22.4886394  91.1572123  49.9990214  22.8096418
  87.7398917  60.8485769  17.2462111  87.9221311  60.0307425  17.7089864
  88.5631903  61.0653461  16.8087001  88.0741082  59.7753954  14.5077160
  88.6028849  59.2646408  13.8947322  88.3369302  59.4596484  15.3722693
  86.8279316  51.5545887  29.6299978  86.1519953  51.4540016  30.3002353
  87.6506950  51.3985100  30.0935975  78.5758175  57.7917823  22.2512493
  79.1611612  57.0461511  22.3840398  78.3783014  58.1021780  23.1349157
  81.4296830  60.8269071  17.2674936  80.7607206  61.3115198  16.7838976
  81.2909700  61.0738291  18.1818314  73.1675830  50.3623423  20.9716937
  73.2059929  49.8287014  21.7654055  72.6616123  49.8358629  20.3527914
  85.5702099  62.8612814  23.8657594  86.1220407  63.0244436  24.6306679
  85.9108292  63.4517252  23.1937619  80.5466592  45.2087964  24.4679479
  80.6107919  46.0702795  24.0556877  80.4833712  44.5961966  23.7351837
  80.0218865  47.2811096  28.1152513  80.6490903  46.8988174  28.7290037
  79.1646783  47.0625298  28.4808206  90.4212973  57.6874072  29.7206249
  90.9652877  58.3004030  29.2261203  89.8399818  58.2453650  30.2373262
  76.7984407  49.0887526  14.0470868  77.0937848  48.1798204  13.9937922
  75.8972443  49.0675265  13.7251870  88.7070486  60.8094790  20.8521276
  88.5821626  60.0084529  20.3432222  89.3649577  61.3040983  20.3635246
  80.3278654  47.1643522  20.0298417  79.6065240  47.7779490  19.8905890
  81.1171910  47.7001287  19.9515063  90.7705395  58.6103810  22.4800826
  89.8235730  58.4909161  22.4079153  91.1188168  57.7226308  22.5627088
  83.1304968  44.4997949  26.3039068  83.6539370  44.7460245  27.0665378
  82.9117301  45.3317983  25.8842206  78.5272249  46.7701623  14.1710193
  78.1984955  45.8899002  13.9885299  78.8811620  46.7149292  15.0586582
  87.7751828  58.4056526  18.6805179  87.6276790  57.4773233  18.8612749
  88.6005321  58.4276617  18.1962254  81.6414072  47.0574593  14.5385671
  81.9810145  47.5860514  13.8164279  82.0886193  47.3954999  15.3144237
  91.3785950  59.2285085  19.7670051  92.3032497  59.0227946  19.6294503
  91.2101253  58.9801486  20.6759393  84.3357513  45.4411644  23.9888739
  83.9954333  44.6419457  24.3909419  83.6296519  45.7413355  23.4165572
  84.9873985  42.5260956  22.4416062  85.8100054  42.0521434  22.3194952
  85.2312048  43.3051440  22.9414748  83.6282219  45.5549215  12.7378964
  84.3490582  45.9330467  12.2342680  83.0047523  46.2738091  12.8413942
  87.7713342  46.2594364  13.6737296  87.9876957  47.1419001  13.3726124
  87.2907409  45.8680577  12.9442938  82.5112564  49.2180077  20.2508040
  82.3657144  49.5320380  21.1432322  82.0337767  49.8364977  19.6978939
  84.3708946  46.2082625  20.2988930  84.3570515  45.3123718  19.9621228
  85.0881375  46.2153288  20.9327216  86.2235077  46.6419965  22.3442057
  85.9652855  47.5637036  22.3426388  85.6920118  46.2450399  23.0342522
  91.1681266  59.7470752  15.1232143  91.3418143  59.1817175  14.3705995
  91.6610157  60.5471647  14.9411633  76.9858226  51.7585421  23.1895702
  76.4411694  52.5345229  23.3215976  77.8637576  52.1056226  23.0314823
  83.7745842  45.0897005  15.5676500  83.8961754  44.1613651  15.7667388
  83.4847885  45.1035691  14.6554816  86.6437033  42.7751915  18.7043220
  86.6658730  42.8391249  17.7495200  87.0605092  41.9356424  18.8983726
  97.0220657  52.5107175  16.7422443  97.4651803  51.7614500  16.3441566
  96.1447167  52.5017311  16.3596175  92.1556438  59.0637516  12.2229041
  92.8507343  59.6844209  12.4416356  92.4979589  58.2132868  12.4981419
  77.7724248  50.8855317  26.0825859  77.0305984  51.0337953  26.6690489
  77.4516992  51.1463583  25.2192608  94.0547862  56.5137222  13.7516372
  94.5799186  56.8524495  13.0265692  93.9670214  55.5784237  13.5679507
  85.7167910  60.4271296  25.8806249  86.0255037  60.1820442  26.7528948
  86.5143392  60.6317934  25.3925119  85.7388522  62.5809205  18.1111625
  85.2993513  62.0885584  18.8044482  86.4896639  62.0382173  17.8703700
  78.2180861  58.7720746  18.1136253  79.0438881  58.4724518  17.7334897
  77.8674913  58.0028369  18.5626042  83.1862394  58.1247214  20.1833927
  82.5642404  57.4617919  19.8836155  83.8567261  58.1508346  19.5007575
  76.4189466  56.6907073  19.0725187  75.5821375  56.2629247  18.8909188
  76.3913112  56.8839516  20.0095978  83.2586922  46.6029002  29.7766433
  83.3075077  47.4791125  29.3944202  83.8009436  46.0606395  29.2038076
  93.7441768  57.1470126  29.0567570  92.9537311  57.1294265  28.5172069
  93.5075122  57.6858419  29.8116606  93.8639643  53.9962592  26.3700298
  93.9137648  53.8312599  27.3115821  93.7553566  53.1289851  25.9798179
  82.7475901  56.6751138  13.6592387  82.8964022  57.3586602  13.0059060
  83.5542345  56.6556228  14.1741843  91.1543405  49.9793520  27.6859605
  92.0553268  49.8399985  27.3943603  91.2291380  50.1447975  28.6257783
  85.4886210  47.3560375  26.5312791  84.6189520  47.6493941  26.2595380
  85.7245691  47.9400820  27.2520055  95.3657839  56.4159534  26.6142320
  95.0742648  56.7789514  27.4505781  94.7529971  55.7026542  26.4355652
  96.5653522  53.9812413  19.1344890  97.4000413  54.4202217  19.2982451
  96.7012651  53.5051067  18.3153136  93.6145028  51.5392148  25.0822378
  94.0899149  51.7319794  24.2741229  92.6910593  51.5951334  24.8365762
  80.5028534  52.7016315  14.6653456  80.2574576  51.7978645  14.8633666
  80.6724449  52.7033466  13.7232934  88.1925244  43.5739992  24.0478212
  88.7107188  44.3101019  23.7224700  87.8380377  43.8803985  24.8824971
  79.7724182  48.4344673  12.1639618  79.0793427  48.5089028  11.5079654
  79.5275934  47.6705017  12.6861135  88.4437838  39.9940274  19.5679108
  88.7239592  39.3263463  20.1939535  89.2288445  40.1869370  19.0553772
  86.2471307  59.1699268  11.1304135  85.6745274  59.7889455  10.6774607
  86.8204101  59.7198630  11.6644057  92.3146697  48.4157908  23.3150684
  93.2664120  48.5156006  23.3362908  92.1450147  47.6236177  23.8248768
  90.3361076  45.5013491  23.5010084  89.7411008  45.7818504  22.8056573
  90.0510773  45.9907392  24.2726826  89.4668567  59.4536418  12.2612717
  90.3999240  59.3881980  12.4645593  89.3791779  60.2892685  11.8027250
  92.0956583  58.7702289   9.2216665  92.0170215  58.4362152  10.1152422
  92.9166250  59.2624057   9.2208137  94.7934774  51.6364028  22.4292983
  94.7611095  50.6980029  22.6152667  95.4035398  51.7148065  21.6958808
  86.6318105  50.5060081   8.4720187  87.5777210  50.3766289   8.5408605
  86.2532350  49.7674743   8.9489615  94.9429263  48.4275071  22.4751266
  94.4268312  47.6433528  22.2881195  95.8269211  48.0993788  22.6397786
  92.6039990  42.1716087  18.4347079  92.4064811  41.8631175  19.3190411
  93.2139695  42.8977726  18.5645009 100.6111324  52.6980035  21.5699020
 101.3414713  52.4365323  22.1306723 100.0018270  51.9608757  21.6101088
  98.6926621  50.8387897  22.1673471  97.9659785  50.7043862  21.5589963
  98.2773908  51.1464726  22.9730189  86.5156798  54.5577827  29.9320844
  87.4359807  54.7356426  30.1260891  86.4806381  53.6133872  29.7800543
  84.8161022  48.4310057   8.4075072  83.9092478  48.1343170   8.4837786
  85.0937003  48.1339875   7.5409359  75.7338963  49.7516421  18.8574119
  75.4141747  48.8981729  18.5648493  75.1872391  49.9664999  19.6132086
  79.5118870  52.4678862  22.5743625  79.7304880  53.3995970  22.5931659
  79.9244644  52.1086836  23.3598429  86.4323088  42.9746947  14.5619314
  85.6223817  42.6294032  14.9374560  87.1207505  42.6654491  15.1506925
  88.3613637  42.0524994  16.1843610  88.9144675  42.4720447  16.8433633
  88.5983723  41.1260742  16.2266566  84.3846736  48.0412067  31.9646374
  84.2843463  48.9906424  31.8958465  84.1668278  47.7130306  31.0922444
  83.5859807  45.2896993   8.5487052  84.4478971  45.6151891   8.8082869
  83.7710151  44.5028488   8.0360117  75.6027223  53.3719332  20.8267240
  74.9090694  52.9573285  20.3137195  76.3500214  53.4139869  20.2300659
  91.7392444  44.1625519  15.6922275  91.1591113  44.8210323  15.3100327
  91.4728376  43.3402864  15.2809692  90.1896010  43.5630577  17.8943595
  90.6895788  43.6747111  17.0857914  90.8331618  43.2591630  18.5344403
  84.2478006  51.4709206  30.7811436  83.7645087  52.2709566  30.9875325
  84.3338945  51.4817151  29.8278880  77.5163965  53.3037586  18.7033255
  77.4934654  53.4025273  17.7515138  77.8264602  54.1502737  19.0250421
  80.1751343  55.3613741  22.8179870  81.1294597  55.3297683  22.7509801
  79.9763867  54.9004365  23.6330096  80.7650725  53.9314857  25.3850667
  81.5843614  54.4258936  25.4085505  81.0387533  53.0146825  25.3568235
  90.5217322  46.3225609  14.7478623  89.6343177  46.6075260  14.5298818
  90.9371311  46.1619373  13.9005900  93.8731858  46.3472130  18.4632962
  94.6492248  46.8368583  18.7357579  93.1479992  46.7730185  18.9204832
  96.3104416  47.0599750  19.5206903  96.9048907  46.8195486  18.8100211
  96.3831000  46.3406880  20.1480439  78.5301572  60.9033361  19.8350068
  78.3956040  60.1433761  19.2688066  78.1133634  61.6274260  19.3678856
  89.6660535  56.0870284   8.8426643  90.3696385  56.2920287   9.4584299
  88.9423184  56.6547046   9.1075726  90.4958345  51.8380145  14.9628913
  90.4393547  52.2948697  14.1236545  91.0486688  51.0770830  14.7851756
  94.3063151  47.6269877  15.7879033  94.0500086  47.2266513  16.6187240
  93.6816019  48.3413671  15.6629172  98.6175489  50.3665950  18.2950324
  98.0575047  50.4359140  19.0681886  98.0118992  50.1906935  17.5749820
  81.6870698  61.8002678  20.0468510  81.5703082  62.7448110  19.9447201
  80.8663144  61.4976239  20.4354309  91.5747232  56.5252813  10.8925103
  92.4092836  56.0934012  10.7102578  91.4131575  56.3534827  11.8201997
  91.2293125  53.0284927  12.2581442  91.1741928  52.8629198  11.3169886
  90.6039180  53.7360959  12.4143632  76.0185640  48.2652991  26.0842864
  76.6644503  47.7551945  26.5730090  75.8102791  49.0021673  26.6586290
  88.5439032  55.3333838  31.5835005  89.4130191  55.5074491  31.2221640
  88.0645783  56.1528255  31.4610734  84.5389250  42.5293036  11.8366761
  84.5267920  43.4734875  11.9935032  85.4312672  42.3463181  11.5426222
  82.7125212  62.4530939  23.2624439  83.6152459  62.4854550  23.5790934
  82.4862582  61.5231390  23.2770774  84.4678814  61.2061926  19.9234517
  83.5174445  61.2063788  19.8098890  84.7711300  60.4594661  19.4070552
  88.3541370  39.1235812  16.0912697  87.5873765  38.5694299  16.2369380
  88.7652075  39.1957681  16.9526849  80.3583131  45.4120608  30.1817879
  81.2214592  45.0557413  30.3921203  79.7848541  45.0734503  30.8693283
 100.2031508  67.0422464  20.9880280 100.8409918  66.9229212  20.2843620
 100.0852350  67.9903308  21.0468232  97.0121214  66.9949892  20.9241804
  96.6739725  66.8790957  20.0362339  97.8810982  66.5941058  20.9042811
  92.8708030  68.8485369  16.9138695  92.3072895  68.7575306  16.1454983
  92.7560425  68.0285273  17.3941188  97.4940997  68.1484744  26.8828010
  97.4829638  67.7537542  26.0108514  97.6561636  67.4150817  27.4761781
  90.4172461  70.3436560  19.7522916  91.2093753  70.0027385  19.3369215
  90.6569112  70.4531536  20.6725069  98.4507588  72.5156337  12.2253160
  97.7995568  73.1010417  11.8387174  99.2451951  73.0462531  12.2848198
  92.3763215  69.6045474  12.6240295  93.1494091  69.0574461  12.4853170
  92.7288614  70.4689723  12.8354756  94.2148258  70.9321856  25.8307194
  93.9238124  71.8367487  25.7153860  94.8505242  70.9738384  26.5451263
  95.1404465  68.3098705  22.4208554  95.7368037  68.0854727  21.7065516
  95.1979436  67.5683450  23.0234001  94.7129493  65.7638140  10.2558745
  94.9655014  65.2419661   9.4942208  93.7754052  65.6004285  10.3585428
  99.7572776  64.7673918  18.0633488 100.5435865  64.3493341  17.7123905
 100.0211480  65.6720010  18.2315136  99.9282853  70.2046769  12.7622145
  99.2928686  70.2781395  13.4743049  99.5980260  70.7940367  12.0841224
 105.1581203  64.7049151  18.9666466 105.8906375  64.1348368  19.2004296
 104.4020559  64.3170752  19.4072972  94.4325782  67.6666246  12.4583119
  94.3162040  66.9911149  13.1264204  94.5428042  67.1798620  11.6415273
  96.7757323  67.1276393  16.1629809  96.4115530  66.6007014  16.8742730
  97.6324439  66.7374862  15.9896294 102.6806624  58.4170726  23.4261075
 102.3489948  59.2866136  23.2022290 102.0852237  58.1007010  24.1055105
  96.4162810  62.1566293  11.1591157  96.5837212  63.0246529  11.5261628
  96.2259979  62.3193574  10.2352446  99.1738143  70.6183272  22.8256988
  98.8738866  71.5208310  22.7172795  98.8289203  70.3515455  23.6778140
  92.6250625  67.0697068  18.8593692  91.7001121  66.9373282  19.0671384
  92.8735038  67.8491288  19.3563634 102.5735287  63.1365812  20.5054425
 101.6652164  63.0681220  20.2113186 102.5222883  63.6137757  21.3336250
  96.3952031  64.6123950  12.1437824  96.2751656  65.0581001  12.9823304
  95.7004619  64.9609268  11.5851362  89.9859436  66.7130342  19.6937481
  90.1151817  66.9664821  20.6076893  89.3056887  67.3058050  19.3742136
  94.1558923  77.3827592  15.7927955  94.0782953  78.3335417  15.8716436
  93.5520566  77.0373464  16.4502882  96.6476153  64.5555457  28.4489322
  95.8709487  65.1149377  28.4392187  97.2866716  65.0412240  28.9704192
 104.4396933  61.3382250  22.2832299 103.7971314  61.6314783  21.6372093
 103.9351862  61.2235170  23.0885495 102.0937097  65.0845423  12.9718158
 103.0054953  65.3172810  12.7965856 101.5846744  65.6682467  12.4093237
  94.9022525  67.3640911  28.0107289  95.6437209  67.9025955  27.7342113
  94.1959510  67.9907199  28.1678841 100.3777865  69.5070051  26.6079451
 100.7861221  69.0652462  25.8634083  99.6555126  68.9322679  26.8613644
  96.7308935  64.4442658  23.9813008  97.5770130  64.8682071  24.1247657
  96.6707572  63.7876282  24.6751571 100.7006679  70.0671242  20.3631740
 100.0715542  70.2316956  19.6607807 100.3132341  70.4812851  21.1342704
 104.5795911  71.0025680  17.7176103 103.8946949  71.3824581  17.1673137
 104.6639760  71.6121006  18.4508051  99.8808380  62.1047026  25.6394181
  99.6369312  62.8589087  25.1028457 100.1568310  62.4832374  26.4741428
 101.8346843  68.6485639  24.3171447 102.0463738  69.2917398  23.6405828
 101.7876591  67.8147955  23.8493377  99.4373072  61.2603459  21.2208019
  98.5757551  61.5584713  21.5124757  99.4635506  61.4773858  20.2889052
  96.2534641  69.8045650  17.6281825  96.7172987  70.0833353  16.8386447
  95.9891439  68.9029094  17.4454915  93.1458722  69.3517131  20.5661588
  93.7160079  69.7804400  19.9279072  93.7366834  69.0699716  21.2645774
  95.1903527  65.9268802  14.4371390  95.8927571  66.3789846  14.9045316
  94.8584156  65.2852621  15.0651283  93.6383889  64.5180559  28.8122599
  93.0082549  65.1996840  29.0457996  93.5319977  64.4063640  27.8675737
  88.9328861  64.1852355  19.7388523  88.1427915  64.4409883  19.2628634
  89.4240108  65.0000693  19.8440564 102.9492671  71.5257594  22.4893804
 103.7710114  71.1237781  22.2076486 102.9455074  71.4225828  23.4409920
  90.8843607  64.5496934  16.6972000  90.0874770  64.6615628  17.2155496
  90.6569199  64.8883586  15.8312891  96.7149274  71.0741637  24.6454515
  96.7793707  71.5362045  25.4812687  96.0060198  70.4439002  24.7736825
  87.2166564  64.4382845  22.1703514  87.4674603  65.3229855  22.4361090
  87.7526113  64.2587447  21.3978606 111.0398664  67.8696343  18.8378776
 110.2862372  67.3003741  18.6822780 111.1746205  67.8359007  19.7849410
  96.4297292  72.7409745  14.5133495  96.2942967  73.5861281  14.9418343
  96.9707104  72.9429022  13.7499429  92.9164631  58.8201325  31.1747850
  92.5231577  58.2667523  31.8495494  93.7330772  59.1311903  31.5654368
  89.8826689  70.2585183  15.0861420  90.3951210  71.0528433  15.2366985
  90.5349402  69.5611473  15.0195022  91.6921574  73.3750939  17.1684173
  91.8688202  74.2968904  16.9805157  92.4878407  73.0609358  17.5978553
  95.8332592  60.2359204  28.7668107  96.5742306  60.8366357  28.6872569
  96.0650515  59.4936842  28.2086149  90.9773930  65.4215571  27.0446336
  90.8627446  64.5200828  27.3453435  90.1218448  65.6679268  26.6931153
  98.0565768  73.3633311  28.6433837  97.6129622  72.5769690  28.3254742
  98.7182982  73.5512462  27.9777728  92.8152889  74.8929113  23.1694516
  93.3660314  74.7646176  22.3971510  91.9764365  75.1924002  22.8189408
 100.1547006  73.6436111  26.6715238 100.1365482  74.4644992  26.1795508
 101.0766926  73.5190186  26.8965380  96.6120060  71.1580241  27.5138747
  97.1448397  70.3968529  27.2838055  96.0834141  70.8653893  28.2562901
  99.7789755  56.2640307  23.0432388  99.4354025  57.1541948  22.9671499
 100.1468718  56.0741964  22.1801973  87.8475606  68.5873837  15.8620991
  88.6850828  68.9970846  15.6454698  88.0253874  67.6473279  15.8321185
  99.7440038  66.2548918  11.5504824  99.2286662  67.0253522  11.7893211
  99.4717347  65.5814054  12.1737885  97.3287149  61.0998619  16.6090062
  96.4728745  60.7105469  16.4295701  97.7414101  61.1790579  15.7489847
  98.8586296  58.6344962  21.0081622  98.3551091  58.5975097  20.1949427
  99.1516903  59.5437705  21.0678278  95.1029182  58.7183692  20.0147803
  95.9682178  58.5226500  19.6553693  95.1706691  58.4894043  20.9417160
 104.7174312  69.0081272  13.4857997 103.9403755  68.6692432  13.0413159
 105.3965793  69.0133896  12.8112962  99.5326341  64.1276010  13.3764605
  99.2276477  64.4422159  14.2274748 100.4856783  64.2057430  13.4191938
  97.9772773  70.2866233  15.0257559  97.4494135  69.5518993  14.7130796
  97.4760276  71.0640910  14.7797527 102.9565619  68.4815254  20.1424605
 102.2989294  69.1714515  20.2304734 103.7606018  68.8711686  20.4858591
  92.7091501  60.9485899  17.3864170  93.2835253  60.7261081  16.6537363
  93.2962483  61.0174594  18.1392772 101.7671078  66.8359626  18.1928547
 102.2802960  67.4689618  18.6950257 102.4172302  66.2360822  17.8271907
  93.0361088  62.9790361  11.4060056  92.1998400  63.3165047  11.7269330
  92.8965857  62.8439340  10.4687193  95.0114168  57.8227148  16.1139240
  94.3578581  57.5076166  15.4895854  94.9694643  57.2002889  16.8399063
  96.1225373  68.1046443   8.0292532  95.2152435  67.8735697   8.2283681
  96.6196405  67.3084063   8.2166513  98.2451909  64.3109082  20.4386887
  97.3274470  64.5324029  20.2808575  98.6612052  64.3855392  19.5798595
  99.0286957  65.7100498  15.5689568  99.7758775  66.2221895  15.2596690
  99.2978546  65.3884550  16.4293961  97.3013607  68.2059038  12.5516522
  96.3924826  67.9218071  12.6488992  97.3308691  68.6258117  11.6919829
 102.5332874  71.8165628  16.3207689 102.0795201  70.9756538  16.3772880
 101.9026841  72.4527026  16.6582470 101.4765794  62.7457614  17.5508357
 100.7388550  62.2335000  17.8818599 101.7292567  62.3057995  16.7391634
 100.9765813  73.6542125  17.2557508 101.2688788  74.2147182  16.5369873
 101.4864434  73.9470686  18.0110667 101.5777421  55.5233866  18.1450126
 101.8836298  54.6631229  17.8576041 102.3030026  56.1151486  17.9449120
  87.8701777  65.9264552  16.5331724  87.6726177  65.3333913  15.8082791
  87.3148441  65.6216763  17.2507663  95.8498501  65.8187659  18.6526317
  95.9047111  64.8661495  18.5768794  95.0389703  65.9747098  19.1367616
  96.9989695  69.7467782   9.8904600  96.5609124  69.0303641   9.4310238
  97.7400135  69.9743897   9.3289692  93.7890861  64.4364719  16.4116696
  92.9758726  64.7358889  16.8181888  94.2849855  64.0420407  17.1291178
  95.9399439  74.4322476  18.3450961  95.8975617  74.6583322  17.4159493
  96.8562137  74.1985850  18.4936762  99.3865072  64.9006543  25.2431590
  99.7414460  65.1278016  26.1026056 100.0337204  65.2324920  24.6208845
 105.1162809  68.0224979  15.9480919 104.9780708  68.2126575  15.0202108
 104.7599028  68.7844362  16.4048970  93.2804935  62.0083074  22.0277931
  93.9204315  61.8671833  21.3300894  92.4482466  61.7217588  21.6516533
 105.1432189  70.0901506  20.9592191 105.5768696  69.9976795  21.8075245
 105.8563770  70.0659007  20.3212207  94.0565239  71.3085505  18.1412923
  94.8505838  70.8135825  17.9395498  93.3456932  70.7803368  17.7780629
  98.8760084  73.6903600  22.4925291  98.9297106  74.2594536  23.2603007
  98.0074865  73.8605485  22.1279328  90.3648003  65.4528586  14.2172676
  89.4345591  65.3913042  14.4342638  90.4605475  64.9304539  13.4209317
  90.2833552  61.9783399  16.8050918  90.5440369  62.8928732  16.6960078
  91.1050724  61.5107842  16.9547531  91.7558477  63.3921156  23.9749742
  92.4281531  63.1838519  23.3262391  90.9288264  63.1943242  23.5354975
 106.0047738  70.1325207  23.4925076 106.1983629  71.0371017  23.7384351
 105.9048357  69.6732626  24.3263661  97.6584049  60.0183097  25.9915403
  97.0111964  60.7173047  25.8979880  98.4285065  60.4519241  26.3591651
 101.0662847  70.2831949  29.0665957 100.9148354  70.0542501  28.1496040
 101.0567527  71.2402551  29.0797302  97.8348184  67.8563862  24.0512223
  98.7640244  68.0075022  23.8781190  97.4139214  67.9447883  23.1960869
  96.6336515  71.8814527  21.8210761  96.4947601  71.5133311  22.6936699
  95.8451112  72.3962166  21.6494718  97.2284667  76.9823623  13.1636297
  97.4036423  76.5111666  13.9781920  96.5417455  77.6089389  13.3917558
  98.1841730  71.2596129  19.2099598  97.8491563  71.2196899  20.1057248
  97.6845676  70.5940845  18.7370009  92.1585974  66.6663759  24.7352180
  92.0205772  65.9343998  25.3363719  93.0690898  66.5772659  24.4536367
  94.7868275  66.3783719  24.2235859  95.4967894  65.7376911  24.1822478
  94.7437583  66.6296614  25.1462040 102.7755054  73.3151072  27.1442438
 102.7167600  72.6310292  26.4773021 103.1774572  74.0570062  26.6923064
  93.4997209  63.3648937  26.0431499  92.9634566  62.9139675  26.6953095
  92.9113918  63.4994845  25.3001963  91.7945753  80.1312986  19.9376157
  92.0342351  80.7631510  20.6155176  90.9514949  79.7801026  20.2241517
  92.9099468  62.8237588   8.6057962  92.0328934  62.7026389   8.2420209
  93.3857221  62.0323666   8.3536851 102.7772461  71.2790656  25.3756418
 101.8899240  70.9416578  25.4982817 103.3471012  70.5473687  25.6125183
  84.4301608  67.6114748  18.6999469  85.1172648  67.2976478  18.1120485
  84.2749737  68.5156112  18.4266721  89.2336330  62.5004944  23.1284493
  89.1494519  61.8930614  22.3934903  88.4119037  62.9913963  23.1293989
  96.3073614  75.9392108  22.3417661  96.2343786  76.7447080  22.8536966
  95.8651008  76.1384074  21.5165683  96.0963394  75.1763878  15.8520483
  95.3130916  75.7185559  15.9458707  96.7956139  75.6937858  16.2514724
  99.4060044  60.9858508  18.4954688  99.9028744  60.2328470  18.1755758
  98.6347026  61.0222824  17.9297898 107.2589802  66.6898873  20.1372980
 107.2479678  67.5723589  19.7666913 106.3907181  66.3370424  19.9427517
  98.7672298  75.8378942  24.4975820  99.4800270  76.4726407  24.4251721
  98.2762327  75.9342808  23.6815822 100.4889825  69.7430195  16.0693112
  99.5546104  69.8631657  15.8997816 100.6666493  68.8402662  15.8053121
  95.9895013  63.1275891  18.2226373  95.6192800  62.5746931  18.9107278
  96.4854105  62.5234024  17.6701373 103.8762376  65.5847514  16.6043146
 104.3422828  66.4175506  16.5303448 104.3269877  65.1192496  17.3088404
  93.8184212  73.5873386  25.3181391  94.5193671  74.2209869  25.4710785
  93.3479326  73.9288117  24.5577030 101.9438607  71.9291336  13.6029298
 102.2198451  71.8147930  14.5123172 101.0743106  71.5308820  13.5641471
 101.8479039  57.9528101  20.6434047 100.9342119  58.1832328  20.8116254
 102.2772140  58.0366545  21.4948079 101.6185497  66.1417993  23.1433941
 100.9656948  66.3893901  22.4886394 101.9965877  65.3282131  22.8096418
  98.5792671  76.1777686  17.2462111  98.7615066  75.3599342  17.7089864
  99.4025657  76.3945379  16.8087001  98.9134837  75.1045872  14.5077160
  99.4422603  74.5938326  13.8947322  99.1763056  74.7888402  15.3722693
  97.6673070  66.8837804  29.6299978  96.9913708  66.7831934  30.3002353
  98.4900704  66.7277018  30.0935975  89.4151930  73.1209741  22.2512493
  90.0005366  72.3753429  22.3840398  89.2176768  73.4313698  23.1349157
  92.2690585  76.1560988  17.2674936  91.6000960  76.6407116  16.7838976
  92.1303454  76.4030209  18.1818314  84.0069584  65.6915341  20.9716937
  84.0453684  65.1578932  21.7654055  83.5009877  65.1650547  20.3527914
  96.4095853  78.1904732  23.8657594  96.9614161  78.3536353  24.6306679
  96.7502047  78.7809170  23.1937619  91.3860347  60.5379882  24.4679479
  91.4501673  61.3994712  24.0556877  91.3227467  59.9253883  23.7351837
  90.8612619  62.6103014  28.1152513  91.4884658  62.2280091  28.7290037
  90.0040538  62.3917216  28.4808206 101.2606728  73.0165989  29.7206249
 101.8046632  73.6295948  29.2261203 100.6793573  73.5745568  30.2373262
  87.6378162  64.4179443  14.0470868  87.9331603  63.5090122  13.9937922
  86.7366198  64.3967183  13.7251870  99.5464241  76.1386707  20.8521276
  99.4215380  75.3376447  20.3432222 100.2043332  76.6332901  20.3635246
  91.1672409  62.4935440  20.0298417  90.4458995  63.1071407  19.8905890
  91.9565665  63.0293205  19.9515063 101.6099149  73.9395727  22.4800826
 100.6629485  73.8201079  22.4079153 101.9581922  73.0518225  22.5627088
  93.9698722  59.8289866  26.3039068  94.4933124  60.0752163  27.0665378
  93.7511056  60.6609901  25.8842206  89.3666003  62.0993541  14.1710193
  89.0378710  61.2190920  13.9885299  89.7205374  62.0441210  15.0586582
  98.6145582  73.7348444  18.6805179  98.4670545  72.8065151  18.8612749
  99.4399076  73.7568534  18.1962254  92.4807827  62.3866511  14.5385671
  92.8203899  62.9152432  13.8164279  92.9279947  62.7246917  15.3144237
 102.2179704  74.5577002  19.7670051 103.1426252  74.3519864  19.6294503
 102.0495008  74.3093403  20.6759393  95.1751267  60.7703561  23.9888739
  94.8348088  59.9711374  24.3909419  94.4690274  61.0705272  23.4165572
  95.8267739  57.8552874  22.4416062  96.6493809  57.3813352  22.3194952
  96.0705803  58.6343358  22.9414748  94.4675974  60.8841132  12.7378964
  95.1884336  61.2622385  12.2342680  93.8441278  61.6030009  12.8413942
  98.6107097  61.5886281  13.6737296  98.8270711  62.4710919  13.3726124
  98.1301164  61.1972495  12.9442938  93.3506318  64.5471994  20.2508040
  93.2050899  64.8612298  21.1432322  92.8731522  65.1656895  19.6978939
  95.2102701  61.5374542  20.2988930  95.1964270  60.6415636  19.9621228
  95.9275129  61.5445206  20.9327216  97.0628832  61.9711883  22.3442057
  96.8046609  62.8928953  22.3426388  96.5313872  61.5742317  23.0342522
 102.0075020  75.0762670  15.1232143 102.1811898  74.5109092  14.3705995
 102.5003912  75.8763565  14.9411633  87.8251980  67.0877339  23.1895702
  87.2805448  67.8637147  23.3215976  88.7031330  67.4348143  23.0314823
  94.6139597  60.4188923  15.5676500  94.7355508  59.4905569  15.7667388
  94.3241639  60.4327609  14.6554816  97.4830787  58.1043833  18.7043220
  97.5052484  58.1683166  17.7495200  97.8998846  57.2648342  18.8983726
 107.8614412  67.8399093  16.7422443 108.3045558  67.0906418  16.3441566
 106.9840922  67.8309229  16.3596175  88.6118002  66.2147235  26.0825859
  87.8699738  66.3629870  26.6690489  88.2910746  66.4755501  25.2192608
  96.5561665  75.7563213  25.8806249  96.8648791  75.5112360  26.7528948
  97.3537147  75.9609852  25.3925119  96.5782277  77.9101123  18.1111625
  96.1387267  77.4177502  18.8044482  97.3290394  77.3674091  17.8703700
  89.0574616  74.1012664  18.1136253  89.8832636  73.8016436  17.7334897
  88.7068668  73.3320286  18.5626042  94.0256149  73.4539132  20.1833927
  93.4036158  72.7909837  19.8836155  94.6961016  73.4800264  19.5007575
  87.2583221  72.0198990  19.0725187  86.4215129  71.5921165  18.8909188
  87.2306866  72.2131434  20.0095978  94.0980676  61.9320920  29.7766433
  94.1468832  62.8083043  29.3944202  94.6403191  61.3898313  29.2038076
 104.5835522  72.4762043  29.0567570 103.7931066  72.4586182  28.5172069
 104.3468877  73.0150337  29.8116606 104.7033397  69.3254510  26.3700298
 104.7531402  69.1604517  27.3115821 104.5947320  68.4581769  25.9798179
  93.5869656  72.0043055  13.6592387  93.7357776  72.6878520  13.0059060
  94.3936099  71.9848145  14.1741843 101.9937160  65.3085438  27.6859605
 102.8947022  65.1691903  27.3943603 102.0685134  65.4739893  28.6257783
  96.3279965  62.6852292  26.5312791  95.4583274  62.9785859  26.2595380
  96.5639445  63.2692737  27.2520055 106.2051594  71.7451451  26.6142320
 105.9136402  72.1081432  27.4505781 105.5923725  71.0318460  26.4355652
 107.4047276  69.3104331  19.1344890 108.2394168  69.7494135  19.2982451
 107.5406405  68.8342984  18.3153136 104.4538782  66.8684066  25.0822378
 104.9292904  67.0611712  24.2741229 103.5304348  66.9243252  24.8365762
  91.3422289  68.0308233  14.6653456  91.0968331  67.1270563  14.8633666
  91.5118203  68.0325383  13.7232934  99.0318999  58.9031909  24.0478212
  99.5500943  59.6392936  23.7224700  98.6774131  59.2095903  24.8824971
  90.6117936  63.7636591  12.1639618  89.9187181  63.8380946  11.5079654
  90.3669688  62.9996934  12.6861135  99.2831593  55.3232192  19.5679108
  99.5633347  54.6555381  20.1939535 100.0682200  55.5161288  19.0553772
 103.1540451  63.7449826  23.3150684 104.1057874  63.8447924  23.3362908
 102.9843902  62.9528094  23.8248768 101.1754831  60.8305409  23.5010084
 100.5804763  61.1110422  22.8056573 100.8904527  61.3199310  24.2726826
 105.6328529  66.9655946  22.4292983 105.6004849  66.0271946  22.6152667
 106.2429153  67.0439982  21.6958808  97.4711860  65.8351999   8.4720187
  98.4170965  65.7058207   8.5408605  97.0926105  65.0966661   8.9489615
 105.7823017  63.7566989  22.4751266 105.2662066  62.9725446  22.2881195
 106.6662966  63.4285706  22.6397786 103.4433744  57.5008005  18.4347079
 103.2458566  57.1923093  19.3190411 104.0533450  58.2269644  18.5645009
 111.4505079  68.0271952  21.5699020 112.1808467  67.7657241  22.1306723
 110.8412024  67.2900674  21.6101088 109.5320376  66.1679815  22.1673471
 108.8053540  66.0335780  21.5589963 109.1167663  66.4756644  22.9730189
  97.3550552  69.8869745  29.9320844  98.2753562  70.0648344  30.1260891
  97.3200135  68.9425790  29.7800543  95.6554777  63.7601975   8.4075072
  94.7486232  63.4635088   8.4837786  95.9330758  63.4631793   7.5409359
  86.5732717  65.0808338  18.8574119  86.2535502  64.2273647  18.5648493
  86.0266146  65.2956917  19.6132086  90.3512625  67.7970779  22.5743625
  90.5698635  68.7287887  22.5931659  90.7638399  67.4378754  23.3598429
  97.2716843  58.3038865  14.5619314  96.4617571  57.9585950  14.9374560
  97.9601260  57.9946408  15.1506925  99.2007391  57.3816912  16.1843610
  99.7538430  57.8012365  16.8433633  99.4377477  56.4552660  16.2266566
  95.2240490  63.3703985  31.9646374  95.1237217  64.3198342  31.8958465
  95.0062032  63.0422224  31.0922444  94.4253562  60.6188910   8.5487052
  95.2872726  60.9443809   8.8082869  94.6103906  59.8320406   8.0360117
  86.4420977  68.7011250  20.8267240  85.7484449  68.2865203  20.3137195
  87.1893968  68.7431786  20.2300659 102.5786198  59.4917437  15.6922275
 101.9984867  60.1502241  15.3100327 102.3122131  58.6694781  15.2809692
 101.0289764  58.8922494  17.8943595 101.5289543  59.0039029  17.0857914
 101.6725372  58.5883547  18.5344403  95.0871760  66.8001124  30.7811436
  94.6038842  67.6001484  30.9875325  95.1732699  66.8109069  29.8278880
  88.3557720  68.6329504  18.7033255  88.3328408  68.7317191  17.7515138
  88.6658356  69.4794654  19.0250421  91.0145098  70.6905659  22.8179870
  91.9688351  70.6589601  22.7509801  90.8157621  70.2296282  23.6330096
  91.6044480  69.2606775  25.3850667  92.4237369  69.7550853  25.4085505
  91.8781288  68.3438743  25.3568235 101.3611076  61.6517527  14.7478623
 100.4736931  61.9367178  14.5298818 101.7765065  61.4911290  13.9005900
 104.7125612  61.6764048  18.4632962 105.4886002  62.1660500  18.7357579
 103.9873746  62.1022102  18.9204832 107.1498171  62.3891667  19.5206903
 107.7442662  62.1487403  18.8100211 107.2224755  61.6698798  20.1480439
  89.3695327  76.2325278  19.8350068  89.2349794  75.4725679  19.2688066
  88.9527389  76.9566178  19.3678856 101.3352100  67.1672063  14.9628913
 101.2787301  67.6240614  14.1236545 101.8880442  66.4062748  14.7851756
 105.1456906  62.9561795  15.7879033 104.8893840  62.5558431  16.6187240
 104.5209774  63.6705589  15.6629172 109.4569244  65.6957868  18.2950324
 108.8968802  65.7651057  19.0681886 108.8512747  65.5198853  17.5749820
  92.5264452  77.1294595  20.0468510  92.4096837  78.0740028  19.9447201
  91.7056899  76.8268157  20.4354309 102.0686879  68.3576844  12.2581442
 102.0135683  68.1921116  11.3169886 101.4432934  69.0652877  12.4143632
  86.8579394  63.5944909  26.0842864  87.5038258  63.0843863  26.5730090
  86.6496545  64.3313590  26.6586290  99.3832786  70.6625756  31.5835005
 100.2523946  70.8366408  31.2221640  98.9039538  71.4820173  31.4610734
  95.3783005  57.8584953  11.8366761  95.3661674  58.8026793  11.9935032
  96.2706426  57.6755099  11.5426222  93.5518967  77.7822857  23.2624439
  94.4546213  77.8146467  23.5790934  93.3256337  76.8523308  23.2770774
  95.3072569  76.5353844  19.9234517  94.3568200  76.5355705  19.8098890
  95.6105055  75.7886578  19.4070552  99.1935124  54.4527730  16.0912697
  98.4267520  53.8986217  16.2369380  99.6045829  54.5249599  16.9526849
  91.1976885  60.7412526  30.1817879  92.0608347  60.3849331  30.3921203
  90.6242296  60.4026421  30.8693283 107.8514968  82.3241810  20.9241804
 107.5133480  82.2082875  20.0362339 108.7204737  81.9232975  20.9042811
 108.3334751  83.4776662  26.8828010 108.3223392  83.0829460  26.0108514
 108.4955391  82.7442734  27.4761781 105.0542012  86.2613774  25.8307194
 104.7631878  87.1659405  25.7153860 105.6898997  86.3030301  26.5451263
 105.9798219  83.6390622  22.4208554 106.5761792  83.4146645  21.7065516
 106.0373191  82.8975368  23.0234001 113.5200378  73.7462643  23.4261075
 113.1883703  74.6158054  23.2022290 112.9245991  73.4298927  24.1055105
 103.4644379  82.3988986  18.8593692 102.5394876  82.2665200  19.0671384
 103.7128792  83.1783205  19.3563634 113.4129041  78.4657729  20.5054425
 112.5045919  78.3973138  20.2113186 113.3616637  78.9429674  21.3336250
 100.8253190  82.0422260  19.6937481 100.9545571  82.2956739  20.6076893
 100.1450641  82.6349968  19.3742136 107.4869907  79.8847375  28.4489322
 106.7103241  80.4441295  28.4392187 108.1260470  80.3704158  28.9704192
 115.2790688  76.6674168  22.2832299 114.6365068  76.9606701  21.6372093
 114.7745616  76.5527088  23.0885495 105.7416279  82.6932828  28.0107289
 106.4830964  83.2317872  27.7342113 105.0353265  83.3199117  28.1678841
 111.2171619  84.8361969  26.6079451 111.6254975  84.3944379  25.8634083
 110.4948881  84.2614596  26.8613644 107.5702689  79.7734576  23.9813008
 108.4163884  80.1973989  24.1247657 107.5101327  79.1168200  24.6751571
 110.7202134  77.4338944  25.6394181 110.4763066  78.1881004  25.1028457
 110.9962065  77.8124292  26.4741428 112.6740597  83.9777556  24.3171447
 112.8857492  84.6209316  23.6405828 112.6270345  83.1439873  23.8493377
 110.2766826  76.5895377  21.2208019 109.4151305  76.8876630  21.5124757
 110.3029261  76.8065776  20.2889052 104.4777643  79.8472476  28.8122599
 103.8476304  80.5288757  29.0457996 104.3713731  79.7355558  27.8675737
  99.7722616  79.5144273  19.7388523  98.9821670  79.7701801  19.2628634
 100.2633863  80.3292610  19.8440564 107.5543029  86.4033555  24.6454515
 107.6187461  86.8653962  25.4812687 106.8453952  85.7730920  24.7736825
  98.0560319  79.7674763  22.1703514  98.3068357  80.6521773  22.4361090
  98.5919867  79.5879365  21.3978606 103.7558386  74.1493242  31.1747850
 103.3625331  73.5959441  31.8495494 104.5724526  74.4603821  31.5654368
 106.6726347  75.5651121  28.7668107 107.4136060  76.1658275  28.6872569
 106.9044270  74.8228759  28.2086149 101.8167685  80.7507489  27.0446336
 101.7021200  79.8492746  27.3453435 100.9612203  80.9971185  26.6931153
 108.8959523  88.6925229  28.6433837 108.4523377  87.9061608  28.3254742
 109.5576736  88.8804379  27.9777728 110.9940761  88.9728029  26.6715238
 110.9759236  89.7936910  26.1795508 111.9160681  88.8482104  26.8965380
 107.4513815  86.4872158  27.5138747 107.9842152  85.7260447  27.2838055
 106.9227896  86.1945810  28.2562901 110.6183510  71.5932224  23.0432388
 110.2747779  72.4833866  22.9671499 110.9862472  71.4033882  22.1801973
 109.6980050  73.9636880  21.0081622 109.1944846  73.9267015  20.1949427
 109.9910657  74.8729622  21.0678278 105.9422936  74.0475609  20.0147803
 106.8075933  73.8518418  19.6553693 106.0100445  73.8185961  20.9417160
 103.5485255  76.2777817  17.3864170 104.1229007  76.0552999  16.6537363
 104.1356238  76.3466512  18.1392772 105.8507923  73.1519066  16.1139240
 105.1972335  72.8368083  15.4895854 105.8088397  72.5294807  16.8399063
 109.0845663  79.6401000  20.4386887 108.1668225  79.8615947  20.2808575
 109.5005807  79.7147310  19.5798595 112.4171175  70.8525784  18.1450126
 112.7230052  69.9923147  17.8576041 113.1423780  71.4443404  17.9449120
  98.7095532  81.2556470  16.5331724  98.5119931  80.6625831  15.8082791
  98.1542196  80.9508680  17.2507663 110.2258827  80.2298461  25.2431590
 110.5808215  80.4569934  26.1026056 110.8730958  80.5616838  24.6208845
 104.1198690  77.3374992  22.0277931 104.7598069  77.1963751  21.3300894
 103.2876220  77.0509505  21.6516533 101.1227306  77.3075317  16.8050918
 101.3834124  78.2220650  16.6960078 101.9444479  76.8399759  16.9547531
 102.5952232  78.7213074  23.9749742 103.2675285  78.5130436  23.3262391
 101.7682018  78.5235160  23.5354975 108.4977804  75.3475015  25.9915403
 107.8505719  76.0464965  25.8979880 109.2678819  75.7811159  26.3591651
 111.9056602  85.6123867  29.0665957 111.7542108  85.3834419  28.1496040
 111.8961281  86.5694469  29.0797302 108.6741938  83.1855780  24.0512223
 109.6033998  83.3366939  23.8781190 108.2532968  83.2739801  23.1960869
 102.9979729  81.9955677  24.7352180 102.8599527  81.2635916  25.3363719
 103.9084652  81.9064577  24.4536367 105.6262030  81.7075636  24.2235859
 106.3361648  81.0668829  24.1822478 105.5831338  81.9588531  25.1462040
 104.3390964  78.6940854  26.0431499 103.8028321  78.2431593  26.6953095
 103.7507672  78.8286763  25.3001963 113.6166216  86.6082574  25.3756418
 112.7292994  86.2708495  25.4982817 114.1864767  85.8765605  25.6125183
  95.2695363  82.9406665  18.6999469  95.9566402  82.6268395  18.1120485
  95.1143491  83.8448030  18.4266721 100.0730085  77.8296862  23.1284493
  99.9888274  77.2222531  22.3934903  99.2512791  78.3205880  23.1293989
 110.2453799  76.3150425  18.4954688 110.7422498  75.5620388  18.1755758
 109.4740780  76.3514742  17.9297898 106.8288767  78.4567808  18.2226373
 106.4586555  77.9038849  18.9107278 107.3247860  77.8525942  17.6701373
 104.6577966  88.9165303  25.3181391 105.3587425  89.5501786  25.4710785
 104.1873081  89.2580035  24.5577030 112.6872793  73.2820019  20.6434047
 111.7735873  73.5124246  20.8116254 113.1165895  73.3658463  21.4948079
 112.4579252  81.4709911  23.1433941 111.8050702  81.7185818  22.4886394
 112.8359632  80.6574049  22.8096418 108.5066825  82.2129722  29.6299978
 107.8307462  82.1123851  30.3002353 109.3294459  82.0568936  30.0935975
 100.2545684  88.4501659  22.2512493 100.8399121  87.7045346  22.3840398
 100.0570523  88.7605615  23.1349157  94.8463339  81.0207259  20.9716937
  94.8847438  80.4870849  21.7654055  94.3403632  80.4942464  20.3527914
 102.2254101  75.8671799  24.4679479 102.2895428  76.7286630  24.0556877
 102.1621221  75.2545801  23.7351837 101.7006374  77.9394932  28.1152513
 102.3278412  77.5572009  28.7290037 100.8434292  77.7209134  28.4808206
 112.1000482  88.3457907  29.7206249 112.6440386  88.9587865  29.2261203
 111.5187327  88.9037485  30.2373262 102.0066163  77.8227357  20.0298417
 101.2852749  78.4363325  19.8905890 102.7959419  78.3585122  19.9515063
 104.8092477  75.1581784  26.3039068 105.3326879  75.4044080  27.0665378
 104.5904810  75.9901819  25.8842206 106.0145022  76.0995479  23.9888739
 105.6741842  75.3003292  24.3909419 105.3084028  76.3997190  23.4165572
 106.6661494  73.1844791  22.4416062 107.4887563  72.7105270  22.3194952
 106.9099557  73.9635275  22.9414748 104.1900073  79.8763912  20.2508040
 104.0444653  80.1904215  21.1432322 103.7125276  80.4948812  19.6978939
 106.0496455  76.8666460  20.2988930 106.0358024  75.9707553  19.9621228
 106.7668884  76.8737124  20.9327216 107.9022586  77.3003800  22.3442057
 107.6440364  78.2220871  22.3426388 107.3707626  76.9034235  23.0342522
  98.6645735  82.4169257  23.1895702  98.1199203  83.1929064  23.3215976
  99.5425085  82.7640061  23.0314823 108.3224542  73.4335751  18.7043220
 108.3446239  73.4975084  17.7495200 108.7392601  72.5940259  18.8983726
  99.4511757  81.5439153  26.0825859  98.7093493  81.6921788  26.6690489
  99.1304501  81.8047418  25.2192608 104.9374431  77.2612838  29.7766433
 104.9862586  78.1374961  29.3944202 105.4796945  76.7190231  29.2038076
 115.4229277  87.8053961  29.0567570 114.6324820  87.7878100  28.5172069
 115.1862631  88.3442255  29.8116606 115.5427152  84.6546427  26.3700298
 115.5925157  84.4896435  27.3115821 115.4341075  83.7873686  25.9798179
 112.8330914  80.6377355  27.6859605 113.7340777  80.4983820  27.3943603
 112.9078889  80.8031810  28.6257783 107.1673719  78.0144210  26.5312791
 106.2977029  78.3077776  26.2595380 107.4033200  78.5984655  27.2520055
 115.2932537  82.1975984  25.0822378 115.7686658  82.3903630  24.2741229
 114.3698102  82.2535169  24.8365762 109.8712753  74.2323827  24.0478212
 110.3894697  74.9684854  23.7224700 109.5167886  74.5387820  24.8824971
 110.1225347  70.6524110  19.5679108 110.4027101  69.9847299  20.1939535
 110.9075954  70.8453205  19.0553772 113.9934206  79.0741744  23.3150684
 114.9451629  79.1739841  23.3362908 113.8237656  78.2820012  23.8248768
 112.0148585  76.1597327  23.5010084 111.4198517  76.4402340  22.8056573
 111.7298282  76.6491228  24.2726826 116.6216772  79.0858907  22.4751266
 116.1055821  78.3017363  22.2881195 117.5056720  78.7577623  22.6397786
 114.2827499  72.8299922  18.4347079 114.0852320  72.5215010  19.3190411
 114.8927204  73.5561561  18.5645009 108.1944307  85.2161662  29.9320844
 109.1147316  85.3940261  30.1260891 108.1593890  84.2717708  29.7800543
  97.4126472  80.4100256  18.8574119  97.0929256  79.5565564  18.5648493
  96.8659900  80.6248834  19.6132086 101.1906379  83.1262697  22.5743625
 101.4092389  84.0579805  22.5931659 101.6032153  82.7670671  23.3598429
 110.0401145  72.7108829  16.1843610 110.5932184  73.1304283  16.8433633
 110.2771232  71.7844577  16.2266566 106.0634245  78.6995903  31.9646374
 105.9630972  79.6490260  31.8958465 105.8455787  78.3714142  31.0922444
  97.2814732  84.0303168  20.8267240  96.5878203  83.6157120  20.3137195
  98.0287723  84.0723704  20.2300659 105.9265515  82.1293042  30.7811436
 105.4432596  82.9293402  30.9875325 106.0126454  82.1400987  29.8278880
  99.1951474  83.9621421  18.7033255  99.1722162  84.0609109  17.7515138
  99.5052111  84.8086572  19.0250421 101.8538852  86.0197576  22.8179870
 102.8082106  85.9881519  22.7509801 101.6551376  85.5588200  23.6330096
 102.4438234  84.5898692  25.3850667 103.2631123  85.0842771  25.4085505
 102.7175042  83.6730661  25.3568235  97.6973149  78.9236826  26.0842864
  98.3432012  78.4135780  26.5730090  97.4890300  79.6605508  26.6586290
 110.2226541  85.9917674  31.5835005 111.0917700  86.1658326  31.2221640
 109.7433292  86.8112091  31.4610734 110.0328879  69.7819648  16.0912697
 109.2661274  69.2278134  16.2369380 110.4439584  69.8541516  16.9526849
 102.0370640  76.0704443  30.1817879 102.9002101  75.7141248  30.3921203
 101.4636050  75.7318338  30.8693283 114.5952140  89.4785160  31.1747850
 114.2019086  88.9251359  31.8495494 115.4118281  89.7895738  31.5654368
 116.9027999  94.0287821  31.9646374 116.8024726  94.9782177  31.8958465
 116.6849541  93.7006059  31.0922444 112.8764394  91.3996361  30.1817879
 113.7395856  91.0433166  30.3921203 112.3029805  91.0610256  30.8693283
  68.7425465   4.0352359  16.4451555  69.2865369   4.6482317  15.9506510
  68.1612310   4.5931937  16.9618568  72.0654260   3.4948413  15.7812877
  71.2749804   3.4772552  15.2417376  71.8287614   4.0336707  16.5361913
  66.8651524   1.6812126  18.3080312  67.7342684   1.8552778  17.9466947
  66.3858276   2.5006542  18.1856041  78.5244000  13.3900752   7.7125586
  79.1622410  13.2707499   7.0088926  78.4064843  14.3381596   7.7713538
  75.8153489  14.4963031  13.6073317  75.8042130  14.1015830  12.7353820
  75.9774129  13.7629104  14.2007088  72.5360750  17.2800143  12.5552501
  72.2450616  18.1845774  12.4399167  73.1717735  17.3216671  13.2696570
  73.4616957  14.6576992   9.1453860  74.0580529  14.4333014   8.4310823
  73.5191929  13.9161737   9.7479308  77.4950635  16.9661559   9.5502294
  77.1951358  17.8686598   9.4418101  77.1501695  16.6993742  10.4023447
  72.4771415  23.7305879   2.5173262  72.3995445  24.6813704   2.5961742
  71.8733059  23.3851752   3.1748188  74.9688645  10.9033745  15.1734629
  74.1921979  11.4627665  15.1637493  75.6079208  11.3890527  15.6949499
  73.2235017  13.7119198  14.7352596  73.9649702  14.2504242  14.4587419
  72.5172003  14.3385487  14.8924148  78.6990357  15.8548338  13.3324757
  79.1073713  15.4130749  12.5879390  77.9767618  15.2800966  13.5858950
  75.0521427  10.7920945  10.7058314  75.8982622  11.2160359  10.8492963
  74.9920065  10.1354569  11.3996877  79.0219172  16.4149529   7.0877046
  78.3928034  16.5795243   6.3853114  78.6344834  16.8291139   7.8588010
  78.2020872   8.4525313  12.3639488  77.9581804   9.2067374  11.8273764
  78.4780803   8.8310661  13.1986735  80.1559335  14.9963926  11.0416753
  80.3676230  15.6395686  10.3651135  80.1089083  14.1626242  10.5738684
  71.9596381  10.8658846  15.5367906  71.3295042  11.5475127  15.7703303
  71.8532469  10.7541928  14.5921044  81.2705163  17.8735881   9.2139111
  82.0922607  17.4716069   8.9321792  81.2667566  17.7704115  10.1655227
  75.0361766  17.4219925  11.3699821  75.1006199  17.8840332  12.2057993
  74.3272690  16.7917289  11.4982131  71.2377124   5.1679612  17.8993157
  70.8444069   4.6145810  18.5740801  72.0543264   5.4790190  18.2899674
  74.1545085   6.5837491  15.4913413  74.8954798   7.1844644  15.4117876
  74.3863008   5.8415129  14.9331456  69.2986423  11.7693858  13.7691643
  69.1839938  10.8679115  14.0698742  68.4430940  12.0157555  13.4176460
  76.3778260  19.7111599  15.3679144  75.9342115  18.9247977  15.0500048
  77.0395474  19.8990749  14.7023035  71.1365382  21.2407400   9.8939822
  71.6872807  21.1124464   9.1216816  70.2976858  21.5402289   9.5434715
  78.4759499  19.9914398  13.3960545  78.4577974  20.8123280  12.9040814
  79.3979419  19.8668474  13.6210686  74.9332553  17.5058528  14.2384053
  75.4660889  16.7446816  14.0083361  74.4046634  17.2132180  14.9808208
  79.2978306  20.0020412   3.9802814  79.5901280  20.5625469   3.2615180
  79.8076926  20.2948973   4.7355973  74.2611931  20.7800763   5.0696267
  74.2188110  21.0061609   4.1404799  75.1774630  20.5464137   5.2182069
  77.7077565  11.2484830  11.9676897  78.0626952  11.4756304  12.8271362
  78.3549696  11.5803207  11.3454152  77.1972576  20.0381887   9.2170598
  77.2509598  20.6072824   9.9848314  76.3287357  20.2083772   8.8524635
  84.3260231  16.4803494  10.2170383  84.5196121  17.3849304  10.4629657
  84.2260849  16.0210913  11.0508968  75.9796541   6.3661385  12.7160710
  75.3324457   7.0651334  12.6225186  76.7497557   6.7997528  13.0836958
  79.3875339  16.6310237  15.7911263  79.2360846  16.4020788  14.8741347
  79.3780019  17.5880838  15.8042608  76.1560676  14.2042149  10.7757530
  77.0852736  14.3553309  10.6026497  75.7351706  14.2926170   9.9206176
  74.9549008  18.2292814   8.5456067  74.8160093  17.8611598   9.4182005
  74.1663604  18.7440453   8.3740025  76.5054223  17.6074417   5.9344905
  76.1704055  17.5675187   6.8302555  76.0058168  16.9419132   5.4615315
  70.4798467  13.0142047  11.4597486  70.3418265  12.2822285  12.0609025
  71.3903390  12.9250947  11.1781674  73.1080767  12.7262006  10.9481166
  73.8180386  12.0855198  10.9067784  73.0650076  12.9774901  11.8707347
  81.0967546  19.6629359  13.8687745  81.0380092  18.9788579  13.2018328
  81.4987064  20.4048349  13.4168371  71.8209701   9.7127224  12.7676805
  71.2847058   9.2617962  13.4198402  71.2326410   9.8473133  12.0247270
  70.1158245  26.4791273   6.6621464  70.3554843  27.1109797   7.3400482
  69.2727441  26.1279313   6.9486823  81.0984953  17.6268943  12.1001725
  80.2111732  17.2894865  12.2228124  81.6683504  16.8951974  12.3370490
  74.6286107  22.2870396   9.0662968  74.5556278  23.0925367   9.5782272
  74.1863500  22.4862361   8.2410989  77.0884790  22.1857230  11.2221127
  77.8012762  22.8204694  11.1497028  76.5974819  22.2821096  10.4061128
  72.1396704  19.9351673  12.0426697  72.8406163  20.5688156  12.1956092
  71.6691819  20.2766405  11.2822337  79.9397990  12.4896280   9.8679248
  79.2869440  12.7372188   9.2131700  80.3178370  11.6760419   9.5341725
  76.9005164  22.5255974   3.9707418  77.0827558  21.7077630   4.4335170
  77.7238150  22.7423666   3.5332308  75.9885563  13.2316092  16.3545285
  75.3126200  13.1310221  17.0247660  76.8113197  13.0755305  16.8181282
  67.7364422  19.4688028   8.9757800  68.3217859  18.7231716   9.1085704
  67.5389260  19.7791985   9.8594464  74.7308346  24.5383019  10.5902901
  75.2826654  24.7014640  11.3551986  75.0714539  25.1287457   9.9182926
  69.1825111   8.9581301  14.8397820  69.8097150   8.5758379  15.4535344
  68.3253030   8.7395503  15.2053512  79.5819220  19.3644276  16.4451555
  80.1259124  19.9774235  15.9506510  79.0006065  19.9223855  16.9618568
  77.8676733  22.4864995   7.5766583  77.7427872  21.6854734   7.0677528
  78.5255824  22.9811188   7.0880553  79.9311641  20.2874015   9.2046133
  78.9841977  20.1679366   9.1324460  80.2794414  19.3996513   9.2872394
  72.2911215   6.1768154  13.0284375  72.8145616   6.4230450  13.7910684
  72.0723548   7.0088188  12.6087512  76.9358075  20.0826731   5.4050485
  76.7883037  19.1543438   5.5858055  77.7611568  20.1046822   4.9207561
  80.5392196  20.9055290   6.4915358  81.4638744  20.6998151   6.3539809
  80.3707500  20.6571691   7.4004700  66.9330494  12.5625522  12.8071165
  66.1912230  12.7108158  13.3935796  66.6123239  12.8233788  11.9437915
  74.8774157  22.1041501  12.6051555  75.1861283  21.8590647  13.4774255
  75.6749639  22.3088139  12.1170425  74.8994769  24.2579410   4.8356932
  74.4599759  23.7655789   5.5289788  75.6502886  23.7152378   4.5949007
  72.3468641  19.8017419   6.9079233  71.7248650  19.1388124   6.6081461
  73.0173508  19.8278551   6.2252881  72.4193169   8.2799207  16.5011739
  72.4681324   9.1561330  16.1189509  72.9615683   7.7376600  15.9283383
  82.9048014  18.8240331  15.7812877  82.1143558  18.8064469  15.2417376
  82.6681369  19.3628624  16.5361913  83.0245889  15.6732797  13.0945605
  83.0743894  15.5082804  14.0361128  82.9159813  14.8060056  12.7043486
  80.3149652  11.6563725  14.4104912  81.2159515  11.5170190  14.1188910
  80.3897626  11.8218180  15.3503089  74.6492457   9.0330580  13.2558098
  73.7795767   9.3264146  12.9840687  74.8851937   9.6171025  13.9765362
  84.5264086  18.0929738  13.3387627  84.2348895  18.4559719  14.1751088
  83.9136217  17.3796747  13.1600959  82.7751274  13.2162353  11.8067685
  83.2505396  13.4089999  10.9986536  81.8516840  13.2721539  11.5611068
  79.4967323   7.1783696  10.2255391  78.9017255   7.4588709   9.5301880
  79.2117020   7.6677597  10.9972132  75.6763045  16.2348032  16.6566151
  76.5966054  16.4126631  16.8506197  75.6412628  15.2904077  16.5045850
  73.5452983   9.7182272  18.6891681  73.4449709  10.6676629  18.6203772
  73.3274525   9.3900511  17.8167751  73.4084253  13.1479411  17.5056743
  72.9251334  13.9479771  17.7120632  73.4945192  13.1587356  16.5524187
  69.3357590  17.0383946   9.5425176  70.2900844  17.0067888   9.4755108
  69.1370114  16.5774570  10.3575402  69.9256972  15.6085062  12.1095974
  70.7449861  16.1029141  12.1330811  70.1993780  14.6917030  12.0813542
  67.6907819  22.5803565   6.5595374  67.5562287  21.8203966   5.9933372
  67.2739881  23.3044465   6.0924163  70.8476945  23.4772882   6.7713817
  70.7309329  24.4218315   6.6692507  70.0269391  23.1746444   7.1599616
  77.7045279  17.0104043  18.3080312  78.5736438  17.1844696  17.9466947
  77.2252030  17.8298460  18.1856041  71.8731459  24.1301144   9.9869745
  72.7758706  24.1624755  10.3036240  71.6468829  23.2001595  10.0016081
  73.6285061  22.8832131   6.6479824  72.6780692  22.8833992   6.5344196
  73.9317547  22.1364865   6.1315859  69.5189377   7.0890813  16.9063185
  70.3820839   6.7327618  17.1166510  68.9454788   6.7504708  17.5938590
  89.3637754  28.7192669   7.7125586  90.0016164  28.5999417   7.0088926
  89.2458597  29.6673513   7.7713538  86.1727461  28.6720097   7.6487111
  85.8345972  28.5561162   6.7607646  87.0417229  28.2711262   7.6288117
  82.0314276  30.5255574   3.6384002  81.4679141  30.4345511   2.8700290
  81.9166671  29.7055478   4.1186495  86.6547244  29.8254949  13.6073317
  86.6435884  29.4307747  12.7353820  86.8167883  29.0921022  14.2007088
  79.5778708  32.0206765   6.4768222  80.3700000  31.6797590   6.0614522
  79.8175358  32.1301740   7.3970376  81.5369462  31.2815679  -0.6514399
  82.3100338  30.7344666  -0.7901523  81.8894861  32.1459928  -0.4399937
  83.3754505  32.6092061  12.5552501  83.0844371  33.5137692  12.4399167
  84.0111489  32.6508589  13.2696570  84.3010712  29.9868909   9.1453860
  84.8974284  29.7624932   8.4310823  84.3585683  29.2453655   9.7479308
  88.3344390  32.2953476   9.5502294  88.0345113  33.1978515   9.4418101
  87.9895449  32.0285660  10.4023447  81.7856871  28.7467273   5.5838999
  80.8607368  28.6143487   5.7916690  82.0341285  29.5261493   6.0808941
  79.1465682  28.3900547   6.4182788  79.2758064  28.6435026   7.3322199
  78.4663134  28.9828255   6.0987443  83.3165170  39.0597797   2.5173262
  83.2389199  40.0105622   2.5961742  82.7126813  38.7143669   3.1748188
  85.8082399  26.2325662  15.1734629  85.0315733  26.7919582  15.1637493
  86.4472962  26.7182445  15.6949499  84.0628772  29.0411116  14.7352596
  84.8043456  29.5796160  14.4587419  83.3565757  29.6677404  14.8924148
  89.5384111  31.1840256  13.3324757  89.9467467  30.7422667  12.5879390
  88.8161373  30.6092884  13.5858950  85.8915181  26.1212863  10.7058314
  86.7376377  26.5452276  10.8492963  85.8313819  25.4646487  11.3996877
  89.8612926  31.7441447   7.0877046  89.2321788  31.9087161   6.3853114
  89.4738588  32.1583056   7.8588010  89.0414627  23.7817231  12.3639488
  88.7975559  24.5359292  11.8273764  89.3174557  24.1602579  13.1986735
  90.9953090  30.3255844  11.0416753  91.2069985  30.9687603  10.3651135
  90.9482838  29.4918160  10.5738684  85.4140888  31.4815855   4.3527131
  85.8779233  31.7603558   3.5631754  85.1497686  30.5799299   4.1700222
  82.3064969  31.0287336   7.2906895  82.8766326  31.4574605   6.6524379
  82.8973081  30.7469921   7.9891080  82.7990135  26.1950764  15.5367906
  82.1688796  26.8767045  15.7703303  82.6926223  26.0833845  14.5921044
  78.0935108  25.8622560   6.4633830  77.3034162  26.1180088   5.9873941
  78.5846355  26.6770898   6.5685871  92.1098917  33.2027799   9.2139111
  92.9316361  32.8007986   8.9321792  92.1061320  33.0996033  10.1655227
  80.0449853  26.2267139   3.4217307  79.2481017  26.3385833   3.9400802
  79.8175445  26.5653791   2.5558197  85.8755521  32.7511842  11.3699821
  85.9399953  33.2132249  12.2057993  85.1666445  32.1209207  11.4982131
  76.3772811  26.1153050   8.8948821  76.6280849  27.0000060   9.1606397
  76.9132359  25.9357652   8.1223913  85.5903539  34.4179950   1.2378802
  85.4549213  35.2631485   1.6663649  86.1313351  34.6199227   0.4744735
  82.0770878  20.4971530  17.8993157  81.6837824  19.9437728  18.5740801
  82.8937019  20.8082108  18.2899674  79.0432936  31.9355388   1.8106727
  79.5557457  32.7298638   1.9612291  79.6955649  31.2381678   1.7440328
  80.8527821  35.0521144   3.8929480  81.0294449  35.9739109   3.7050464
  81.6484654  34.7379563   4.3223860  84.9938839  21.9129409  15.4913413
  85.7348553  22.5136562  15.4117876  85.2256762  21.1707046  14.9331456
  80.1380177  27.0985776  13.7691643  80.0233692  26.1971033  14.0698742
  79.2824695  27.3449473  13.4176460  87.2172015  35.0403516  15.3679144
  86.7735869  34.2539895  15.0500048  87.8789229  35.2282667  14.7023035
  81.9759136  36.5699318   9.8939822  82.5266561  36.4416381   9.1216816
  81.1370612  36.8694207   9.5434715  89.3153253  35.3206316  13.3960545
  89.2971728  36.1415197  12.9040814  90.2373173  35.1960391  13.6210686
  85.7726307  32.8350446  14.2384053  86.3054644  32.0738734  14.0083361
  85.2440388  32.5424097  14.9808208  77.0081853  30.2644042   2.5866297
  77.8457075  30.6741050   2.3700005  77.1860120  29.3243484   2.5566491
  87.4058156  25.9879287   7.1632194  86.4880717  26.2094234   7.0053882
  87.8218299  26.0625597   6.3043901  90.1372060  35.3312329   3.9802814
  90.4295035  35.8917387   3.2615180  90.6470681  35.6240890   4.7355973
  77.0308024  27.6034757   3.2577031  76.8332424  27.0104118   2.5328097
  76.4754688  27.2986968   3.9752970  85.0104748  27.4957864   5.3771624
  85.0653357  26.5431700   5.3014100  84.1995950  27.6517303   5.8612922
  82.9497107  26.1134924   3.1362003  82.1364973  26.4129094   3.5427195
  83.4456102  25.7190612   3.8536485  85.1005685  36.1092681   5.0696267
  85.0581864  36.3353527   4.1404799  86.0168384  35.8756055   5.2182069
  88.5471319  26.5776748  11.9676897  88.9020707  26.8048221  12.8271362
  89.1943450  26.9095125  11.3454152  82.4411182  23.6853279   8.7523238
  83.0810562  23.5442038   8.0546201  81.6088713  23.3987793   8.3761840
  83.2171486  32.9855710   4.8658230  84.0112085  32.4906030   4.6640805
  82.5063178  32.4573573   4.5025936  88.0366331  35.3673805   9.2170598
  88.0903353  35.9364741   9.9848314  87.1681112  35.5375690   8.8524635
  79.5254250  27.1298791   0.9417983  78.5951838  27.0683247   1.1587945
  79.6211722  26.6074744   0.1454624  79.4439799  23.6553604   3.5296224
  79.7046616  24.5698937   3.4205385  80.2656971  23.1878047   3.6792837
  80.9164724  25.0691361  10.6995049  81.5887777  24.8608723  10.0507698
  80.0894510  24.8713447  10.2600281  95.1653985  31.8095412  10.2170383
  95.3589875  32.7141222  10.4629657  95.0654603  31.3502831  11.0508968
  86.8190296  21.6953302  12.7160710  86.1718211  22.3943252  12.6225186
  87.5891311  22.1289446  13.0836958  90.2269094  31.9602154  15.7911263
  90.0754600  31.7312706  14.8741347  90.2173773  32.9172756  15.8042608
  86.9954430  29.5334067  10.7757530  87.9246490  29.6845227  10.6026497
  86.5745460  29.6218088   9.9206176  85.7942762  33.5584732   8.5456067
  85.6553848  33.1903516   9.4182005  85.0057358  34.0732371   8.3740025
  86.3890914  38.6593828  -0.1118396  86.5642670  38.1881871   0.7027226
  85.7023702  39.2859594   0.1162864  87.3447977  32.9366334   5.9344905
  87.0097810  32.8967104   6.8302555  86.8451923  32.2711050   5.4615315
  81.3192221  28.3433964  11.4597486  81.1812019  27.6114203  12.0609025
  82.2297145  28.2542864  11.1781674  83.9474522  28.0553924  10.9481166
  84.6574140  27.4147116  10.9067784  83.9043830  28.3066818  11.8707347
  91.9361301  34.9921277  13.8687745  91.8773847  34.3080497  13.2018328
  92.3380819  35.7340267  13.4168371  82.6603456  25.0419141  12.7676805
  82.1240813  24.5909880  13.4198402  82.0720164  25.1765050  12.0247270
  80.9551999  41.8083191   6.6621464  81.1948598  42.4401715   7.3400482
  80.1121196  41.4571231   6.9486823  91.9378708  32.9560861  12.1001725
  91.0505487  32.6186783  12.2228124  92.5077259  32.2243892  12.3370490
  73.5907855  29.2884953   5.4244776  74.2778895  28.9746683   4.8365791
  73.4355984  30.1926317   5.1512028  78.3942577  24.1775149   9.8529800
  78.3100766  23.5700819   9.1180210  77.5725283  24.6684167   9.8539296
  85.4679861  37.6162313   9.0662968  85.3950033  38.4217285   9.5782272
  85.0257254  37.8154279   8.2410989  85.2569641  36.8534083   2.5765789
  84.4737163  37.3955763   2.6704014  85.9562386  37.3708063   2.9760031
  87.9278545  37.5149147  11.2221127  88.6406517  38.1496612  11.1497028
  87.4368573  37.6113013  10.4061128  82.9790458  35.2643591  12.0426697
  83.6799918  35.8980074  12.1956092  82.5085573  35.6058322  11.2822337
  90.7791744  27.8188198   9.8679248  90.1263194  28.0664106   9.2131700
  91.1572124  27.0052336   9.5341725  87.7398918  37.8547891   3.9707418
  87.9221313  37.0369547   4.4335170  88.5631904  38.0715584   3.5332308
  88.0741084  36.7816076   1.2322467  88.6028850  36.2708531   0.6192629
  88.3369303  36.4658607   2.0968000  86.8279317  28.5608009  16.3545285
  86.1519954  28.4602139  17.0247660  87.6506951  28.4047223  16.8181282
  78.5758176  34.7979946   8.9757800  79.1611613  34.0523634   9.1085704
  78.3783015  35.1083902   9.8594464  81.4296832  37.8331193   3.9920242
  80.7607207  38.3177321   3.5084283  81.2909701  38.0800414   4.9063621
  73.1675831  27.3685546   7.6962243  73.2059931  26.8349137   8.4899361
  72.6616124  26.8420751   7.0773220  85.5702100  39.8674937  10.5902901
  86.1220408  40.0306558  11.3551986  85.9108294  40.4579374   9.9182926
  80.5466593  22.2150086  11.1924786  80.6107920  23.0764917  10.7802183
  80.4833714  21.6024088  10.4597144  80.0218866  24.2873219  14.8397820
  80.6490905  23.9050296  15.4535344  79.1646785  24.0687421  15.2053512
  90.4212974  34.6936194  16.4451555  90.9652878  35.3066152  15.9506510
  89.8399819  35.2515773  16.9618568  76.7984409  26.0949648   0.7716175
  77.0937850  25.1860327   0.7183228  75.8972444  26.0737388   0.4497177
  88.7070487  37.8156912   7.5766583  88.5821627  37.0146652   7.0677528
  89.3649579  38.3103106   7.0880553  80.3278656  24.1705645   6.7543723
  79.6065241  24.7841612   6.6151197  81.1171911  24.7063410   6.6760369
  90.7705396  35.6165932   9.2046133  89.8235731  35.4971283   9.1324460
  91.1188169  34.7288430   9.2872394  83.1304969  21.5060071  13.0284375
  83.6539371  21.7522368  13.7910684  82.9117302  22.3380106  12.6087512
  78.5272250  23.7763746   0.8955500  78.1984956  22.8961125   0.7130606
  78.8811621  23.7211414   1.7831889  87.7751829  35.4118648   5.4050485
  87.6276792  34.4835356   5.5858055  88.6005323  35.4338739   4.9207561
  91.3785951  36.2347207   6.4915358  92.3032498  36.0290069   6.3539809
  91.2101254  35.9863608   7.4004700  84.3357514  22.4473766  10.7134045
  83.9954335  21.6481579  11.1154725  83.6296520  22.7475477  10.1410879
  84.9873986  19.5323079   9.1661369  85.8100055  19.0583557   9.0440259
  85.2312050  20.3113562   9.6660055  82.5112565  26.2242199   6.9753347
  82.3657146  26.5382502   7.8677629  82.0337768  26.8427100   6.4224246
  84.3708948  23.2144747   7.0234237  84.3570516  22.3185841   6.6866535
  85.0881376  23.2215411   7.6572523  86.2235078  23.6482088   9.0687364
  85.9652856  24.5699158   9.0671695  85.6920119  23.2512522   9.7587828
  76.9858227  28.7647544   9.9141008  76.4411695  29.5407352  10.0461283
  77.8637577  29.1118348   9.7560130  77.7724249  27.8917440  12.8071165
  77.0305985  28.0400075  13.3935796  77.4516993  28.1525706  11.9437915
  85.7167911  37.4333418  12.6051555  86.0255038  37.1882565  13.4774255
  86.5143393  37.6380057  12.1170425  85.7388524  39.5871328   4.8356932
  85.2993514  39.0947707   5.5289788  86.4896640  39.0444296   4.5949007
  78.2180862  35.7782869   4.8381560  79.0438882  35.4786641   4.4580203
  77.8674914  35.0090491   5.2871348  83.1862396  35.1309337   6.9079233
  82.5642405  34.4680042   6.6081461  83.8567263  35.1570469   6.2252881
  76.4189468  33.6969195   5.7970493  75.5821376  33.2691370   5.6154495
  76.3913113  33.8901639   6.7341285  83.2586923  23.6091125  16.5011739
  83.3075079  24.4853248  16.1189509  83.8009437  23.0668518  15.9283383
  93.7441769  34.1532248  15.7812877  92.9537313  34.1356387  15.2417376
  93.5075123  34.6920542  16.5361913  93.8639644  31.0024715  13.0945605
  93.9137649  30.8374722  14.0361128  93.7553567  30.1351974  12.7043486
  82.7475903  33.6813260   0.3837694  82.8964023  34.3648725  -0.2695633
  83.5542346  33.6618350   0.8987150  91.1543406  26.9855643  14.4104912
  92.0553269  26.8462108  14.1188910  91.2291381  27.1510097  15.3503089
  85.4886212  24.3622497  13.2558098  84.6189521  24.6556063  12.9840687
  85.7245692  24.9462942  13.9765362  95.3657841  33.4221656  13.3387627
  95.0742649  33.7851637  14.1751088  94.7529972  32.7088664  13.1600959
  93.6145029  28.5454271  11.8067685  94.0899151  28.7381917  10.9986536
  92.6910594  28.6013457  11.5611068  80.5028536  29.7078438   1.3898763
  80.2574577  28.8040768   1.5878973  80.6724450  29.7095588   0.4478241
  88.1925245  20.5802114  10.7723518  88.7107189  21.3163141  10.4470007
  87.8380378  20.8866108  11.6070278  90.3361077  22.5075614  10.2255391
  89.7411010  22.7880627   9.5301880  90.0510774  22.9969515  10.9972132
  86.5156799  31.5639950  16.6566151  87.4359809  31.7418549  16.8506197
  86.4806382  30.6195995  16.5045850  75.7338964  26.7578543   5.5819425
  75.4141748  25.9043852   5.2893799  75.1872392  26.9727121   6.3377393
  79.5118872  29.4740984   9.2988932  79.7304881  30.4058092   9.3176966
  79.9244645  29.1148959  10.0843736  84.3846737  25.0474190  18.6891681
  84.2843464  25.9968547  18.6203772  84.1668279  24.7192429  17.8167751
  75.6027224  30.3781455   7.5512547  74.9090696  29.9635408   7.0382501
  76.3500215  30.4201991   6.9545966  84.2478007  28.4771329  17.5056743
  83.7645089  29.2771689  17.7120632  84.3338946  28.4879274  16.5524187
  77.5163967  30.3099709   5.4278562  77.4934655  30.4087396   4.4760445
  77.8264603  31.1564859   5.7495728  80.1751345  32.3675864   9.5425176
  81.1294598  32.3359806   9.4755108  79.9763868  31.9066487  10.3575402
  80.7650727  30.9376980  12.1095974  81.5843616  31.4321058  12.1330811
  81.0387534  30.0208948  12.0813542  78.5301573  37.9095483   6.5595374
  78.3956041  37.1495884   5.9933372  78.1133636  38.6336383   6.0924163
  81.6870699  38.8064800   6.7713817  81.5703083  39.7510233   6.6692507
  80.8663145  38.5038362   7.1599616  76.0185641  25.2715114  12.8088171
  76.6644505  24.7614068  13.2975396  75.8102792  26.0083795  13.3831596
  88.5439033  32.3395961  18.3080312  89.4130193  32.5136613  17.9466947
  88.0645785  33.1590378  18.1856041  82.7125213  39.4593062   9.9869745
  83.6152460  39.4916672  10.3036240  82.4862583  38.5293513  10.0016081
  84.4678815  38.2124049   6.6479824  83.5174446  38.2125910   6.5344196
  84.7711301  37.4656783   6.1315859  80.3583132  22.4182731  16.9063185
  81.2214593  22.0619535  17.1166510  79.7848543  22.0796625  17.5938590
 100.2031509  44.0484587   7.7125586 100.8409919  43.9291334   7.0088926
 100.0852352  44.9965431   7.7713538  97.0121215  44.0012015   7.6487111
  96.6739727  43.8853080   6.7607646  97.8810983  43.6003180   7.6288117
  92.8708031  45.8547491   3.6384002  92.3072896  45.7637428   2.8700290
  92.7560426  45.0347396   4.1186495  97.4940998  45.1546867  13.6073317
  97.4829639  44.7599665  12.7353820  97.6561638  44.4212939  14.2007088
  90.4172463  47.3498683   6.4768222  91.2093755  47.0089508   6.0614522
  90.6569113  47.4593658   7.3970376  92.3763217  46.6107596  -0.6514399
  93.1494093  46.0636583  -0.7901523  92.7288616  47.4751846  -0.4399937
  94.2148259  47.9383979  12.5552501  93.9238125  48.8429609  12.4399167
  94.8505244  47.9800506  13.2696570  95.1404466  45.3160827   9.1453860
  95.7368038  45.0916850   8.4310823  95.1979438  44.5745573   9.7479308
  99.1738144  47.6245394   9.5502294  98.8738867  48.5270433   9.4418101
  98.8289204  47.3577577  10.4023447  92.6250626  44.0759191   5.5838999
  91.7001122  43.9435405   5.7916690  92.8735039  44.8553410   6.0808941
  89.9859437  43.7192464   6.4182788  90.1151818  43.9726943   7.3322199
  89.3056888  44.3120172   6.0987443  94.1558924  54.3889714   2.5173262
  94.0782954  55.3397540   2.5961742  93.5520568  54.0435587   3.1748188
  96.6476154  41.5617580  15.1734629  95.8709488  42.1211500  15.1637493
  97.2866717  42.0474363  15.6949499  94.9022526  44.3703033  14.7352596
  95.6437211  44.9088077  14.4587419  94.1959512  44.9969322  14.8924148
 100.3777866  46.5132174  13.3324757 100.7861222  46.0714584  12.5879390
  99.6555127  45.9384801  13.5858950  96.7308936  41.4504780  10.7058314
  97.5770131  41.8744194  10.8492963  96.6707574  40.7938405  11.3996877
 100.7006680  47.0733364   7.0877046 100.0715543  47.2379078   6.3853114
 100.3132343  47.4874974   7.8588010  99.8808381  39.1109149  12.3639488
  99.6369313  39.8651209  11.8273764 100.1568312  39.4894496  13.1986735
 101.8346844  45.6547761  11.0416753 102.0463739  46.2979521  10.3651135
 101.7876592  44.8210078  10.5738684  96.2534642  46.8107772   4.3527131
  96.7172988  47.0895475   3.5631754  95.9891440  45.9091217   4.1700222
  93.1458723  46.3579254   7.2906895  93.7160080  46.7866522   6.6524379
  93.7366835  46.0761839   7.9891080  93.6383890  41.5242681  15.5367906
  93.0082551  42.2058962  15.7703303  93.5319978  41.4125763  14.5921044
  88.9328862  41.1914477   6.4633830  88.1427916  41.4472006   5.9873941
  89.4240110  42.0062815   6.5685871 102.9492672  48.5319717   9.2139111
 103.7710116  48.1299904   8.9321792 102.9455075  48.4287951  10.1655227
  90.8843608  41.5559057   3.4217307  90.0874771  41.6677751   3.9400802
  90.6569200  41.8945709   2.5558197  96.7149275  48.0803760  11.3699821
  96.7793708  48.5424167  12.2057993  96.0060199  47.4501125  11.4982131
  87.2166565  41.4444968   8.8948821  87.4674604  42.3291978   9.1606397
  87.7526114  41.2649569   8.1223913  96.4297293  49.7471867   1.2378802
  96.2942968  50.5923403   1.6663649  96.9707106  49.9491145   0.4744735
  92.9164633  35.8263447  17.8993157  92.5231578  35.2729646  18.5740801
  93.7330773  36.1374026  18.2899674  89.8826690  47.2647305   1.8106727
  90.3951211  48.0590556   1.9612291  90.5349403  46.5673596   1.7440328
  91.6921575  50.3813062   3.8929480  91.8688203  51.3031026   3.7050464
  92.4878409  50.0671481   4.3223860  95.8332594  37.2421326  15.4913413
  96.5742307  37.8428479  15.4117876  96.0650516  36.4998964  14.9331456
  90.9773932  42.4277694  13.7691643  90.8627447  41.5262951  14.0698742
  90.1218449  42.6741390  13.4176460  98.0565769  50.3695434  15.3679144
  97.6129624  49.5831812  15.0500048  98.7182983  50.5574584  14.7023035
  92.8152891  51.8991236   9.8939822  93.3660316  51.7708299   9.1216816
  91.9764367  52.1986125   9.5434715 100.1547007  50.6498234  13.3960545
 100.1365483  51.4707115  12.9040814 101.0766928  50.5252309  13.6210686
  96.6120062  48.1642363  14.2384053  97.1448398  47.4030652  14.0083361
  96.0834143  47.8716015  14.9808208  87.8475607  45.5935960   2.5866297
  88.6850829  46.0032968   2.3700005  88.0253875  44.6535402   2.5566491
  98.2451910  41.3171205   7.1632194  97.3274471  41.5386152   7.0053882
  98.6612054  41.3917515   6.3043901 100.9765815  50.6604247   3.9802814
 101.2688789  51.2209304   3.2615180 101.4864435  50.9532808   4.7355973
  87.8701778  42.9326675   3.2577031  87.6726178  42.3396036   2.5328097
  87.3148442  42.6278885   3.9752970  95.8498502  42.8249782   5.3771624
  95.9047112  41.8723618   5.3014100  95.0389704  42.9809221   5.8612922
  93.7890862  41.4426841   3.1362003  92.9758727  41.7421012   3.5427195
  94.2849856  41.0482530   3.8536485  95.9399440  51.4384598   5.0696267
  95.8975619  51.6645445   4.1404799  96.8562139  51.2047973   5.2182069
  99.3865074  41.9068666  11.9676897  99.7414461  42.1340139  12.8271362
 100.0337205  42.2387043  11.3454152  93.2804937  39.0145197   8.7523238
  93.9204316  38.8733956   8.0546201  92.4482467  38.7279710   8.3761840
  94.0565241  48.3147627   4.8658230  94.8505839  47.8197947   4.6640805
  93.3456933  47.7865490   4.5025936  98.8760085  50.6965723   9.2170598
  98.9297107  51.2656659   9.9848314  98.0074866  50.8667608   8.8524635
  90.3648004  42.4590709   0.9417983  89.4345592  42.3975164   1.1587945
  90.4605476  41.9366662   0.1454624  90.2833553  38.9845522   3.5296224
  90.5440370  39.8990855   3.4205385  91.1050725  38.5169964   3.6792837
  91.7558478  40.3983279  10.6995049  92.4281532  40.1900641  10.0507698
  90.9288265  40.2005365  10.2600281 106.0047740  47.1387329  10.2170383
 106.1983630  48.0433140  10.4629657 105.9048358  46.6794748  11.0508968
  97.6584050  37.0245220  12.7160710  97.0111965  37.7235170  12.6225186
  98.4285066  37.4581364  13.0836958 101.0662848  47.2894072  15.7911263
 100.9148355  47.0604624  14.8741347 101.0567528  48.2464673  15.8042608
  97.8348185  44.8625985  10.7757530  98.7640245  45.0137144  10.6026497
  97.4139215  44.9510006   9.9206176  96.6336517  48.8876649   8.5456067
  96.4947602  48.5195434   9.4182005  95.8451113  49.4024289   8.3740025
  97.2284669  53.9885746  -0.1118396  97.4036424  53.5173789   0.7027226
  96.5417457  54.6151512   0.1162864  98.1841732  48.2658252   5.9344905
  97.8491564  48.2259022   6.8302555  97.6845677  47.6002968   5.4615315
  92.1585976  43.6725882  11.4597486  92.0205774  42.9406121  12.0609025
  93.0690899  43.5834782  11.1781674  94.7868276  43.3845841  10.9481166
  95.4967895  42.7439033  10.9067784  94.7437585  43.6358736  11.8707347
 102.7755055  50.3213195  13.8687745 102.7167601  49.6372415  13.2018328
 103.1774573  51.0632185  13.4168371  93.4997210  40.3711059  12.7676805
  92.9634567  39.9201798  13.4198402  92.9113919  40.5056968  12.0247270
  91.7945754  57.1375108   6.6621464  92.0342352  57.7693633   7.3400482
  90.9514950  56.7863148   6.9486823 102.7772462  48.2852779  12.1001725
 101.8899241  47.9478700  12.2228124 103.3471013  47.5535810  12.3370490
  84.4301609  44.6176870   5.4244776  85.1172649  44.3038600   4.8365791
  84.2749738  45.5218235   5.1512028  89.2336332  39.5067067   9.8529800
  89.1494520  38.8992736   9.1180210  88.4119038  39.9976085   9.8539296
  96.3073616  52.9454231   9.0662968  96.2343787  53.7509202   9.5782272
  95.8651009  53.1446197   8.2410989  96.0963395  52.1826001   2.5765789
  95.3130917  52.7247681   2.6704014  96.7956141  52.6999981   2.9760031
  98.7672299  52.8441065  11.2221127  99.4800271  53.4788530  11.1497028
  98.2762328  52.9404931  10.4061128  93.8184213  50.5935508  12.0426697
  94.5193672  51.2271991  12.1956092  93.3479328  50.9350240  11.2822337
 101.6185499  43.1480116   9.8679248 100.9656949  43.3956023   9.2131700
 101.9965879  42.3344254   9.5341725  98.5792673  53.1839809   3.9707418
  98.7615067  52.3661465   4.4335170  99.4025659  53.4007501   3.5332308
  98.9134838  52.1107994   1.2322467  99.4422605  51.6000449   0.6192629
  99.1763058  51.7950524   2.0968000  97.6673072  43.8899927  16.3545285
  96.9913709  43.7894056  17.0247660  98.4900706  43.7339141  16.8181282
  89.4151931  50.1271863   8.9757800  90.0005368  49.3815551   9.1085704
  89.2176769  50.4375820   9.8594464  92.2690586  53.1623111   3.9920242
  91.6000961  53.6469238   3.5084283  92.1303456  53.4092331   4.9063621
  84.0069586  42.6977464   7.6962243  84.0453685  42.1641054   8.4899361
  83.5009878  42.1712669   7.0773220  96.4095855  55.1966854  10.5902901
  96.9614163  55.3598476  11.3551986  96.7502048  55.7871292   9.9182926
  91.3860348  37.5442004  11.1924786  91.4501674  38.4056835  10.7802183
  91.3227468  36.9316006  10.4597144  90.8612620  39.6165137  14.8397820
  91.4884659  39.2342214  15.4535344  90.0040539  39.3979339  15.2053512
 101.2606729  50.0228112  16.4451555 101.8046633  50.6358070  15.9506510
 100.6793574  50.5807690  16.9618568  87.6378163  41.4241566   0.7716175
  87.9331604  40.5152244   0.7183228  86.7366199  41.4029305   0.4497177
  99.5464242  53.1448830   7.5766583  99.4215381  52.3438570   7.0677528
 100.2043333  53.6395023   7.0880553  91.1672410  39.4997562   6.7543723
  90.4458996  40.1133530   6.6151197  91.9565666  40.0355327   6.6760369
 101.6099150  50.9457850   9.2046133 100.6629486  50.8263201   9.1324460
 101.9581923  50.0580348   9.2872394  93.9698724  36.8351989  13.0284375
  94.4933125  37.0814285  13.7910684  93.7511057  37.6672024  12.6087512
  89.3666005  39.1055663   0.8955500  89.0378711  38.2253042   0.7130606
  89.7205375  39.0503332   1.7831889  98.6145584  50.7410566   5.4050485
  98.4670546  49.8127274   5.5858055  99.4399077  50.7630657   4.9207561
 102.2179705  51.5639125   6.4915358 103.1426253  51.3581986   6.3539809
 102.0495009  51.3155526   7.4004700  95.1751269  37.7765684  10.7134045
  94.8348089  36.9773497  11.1154725  94.4690275  38.0767395  10.1410879
  95.8267741  34.8614996   9.1661369  96.6493810  34.3875475   9.0440259
  96.0705804  35.6405480   9.6660055  93.3506319  41.5534117   6.9753347
  93.2050900  41.8674420   7.8677629  92.8731523  42.1719017   6.4224246
  95.2102702  38.5436665   7.0234237  95.1964271  37.6477758   6.6866535
  95.9275130  38.5507329   7.6572523  97.0628833  38.9774005   9.0687364
  96.8046611  39.8991076   9.0671695  96.5313873  38.5804440   9.7587828
  87.8251981  44.0939461   9.9141008  87.2805450  44.8699269  10.0461283
  88.7031331  44.4410266   9.7560130  88.6118003  43.2209358  12.8071165
  87.8699739  43.3691993  13.3935796  88.2910748  43.4817623  11.9437915
  96.5561666  52.7625336  12.6051555  96.8648792  52.5174483  13.4774255
  97.3537148  52.9671974  12.1170425  96.5782278  54.9163246   4.8356932
  96.1387268  54.4239624   5.5289788  97.3290395  54.3736213   4.5949007
  89.0574617  51.1074786   4.8381560  89.8832637  50.8078558   4.4580203
  88.7068669  50.3382409   5.2871348  94.0256150  50.4601255   6.9079233
  93.4036159  49.7971960   6.6081461  94.6961017  50.4862387   6.2252881
  87.2583222  49.0261113   5.7970493  86.4215130  48.5983287   5.6154495
  87.2306867  49.2193556   6.7341285  94.0980678  38.9383043  16.5011739
  94.1468833  39.8145165  16.1189509  94.6403192  38.3960436  15.9283383
 104.5835523  49.4824166  15.7812877 103.7931067  49.4648305  15.2417376
 104.3468878  50.0212460  16.5361913 104.7033398  46.3316632  13.0945605
 104.7531403  46.1666640  14.0361128 104.5947322  45.4643891  12.7043486
  93.5869657  49.0105178   0.3837694  93.7357777  49.6940642  -0.2695633
  94.3936101  48.9910268   0.8987150 101.9937161  42.3147560  14.4104912
 102.8947024  42.1754025  14.1188910 102.0685135  42.4802015  15.3503089
  96.3279966  39.6914415  13.2558098  95.4583275  39.9847981  12.9840687
  96.5639446  40.2754860  13.9765362 106.2051595  48.7513574  13.3387627
 105.9136404  49.1143554  14.1751088 105.5923726  48.0380582  13.1600959
 104.4538783  43.8746188  11.8067685 104.9292905  44.0673835  10.9986536
 103.5304349  43.9305374  11.5611068  91.3422290  45.0370356   1.3898763
  91.0968332  44.1332686   1.5878973  91.5118205  45.0387506   0.4478241
  99.0319000  35.9094032  10.7723518  99.5500944  36.6455059  10.4470007
  98.6774133  36.2158025  11.6070278 101.1754832  37.8367532  10.2255391
 100.5804764  38.1172544   9.5301880 100.8904529  38.3261433  10.9972132
  97.3550554  46.8931867  16.6566151  98.2753563  47.0710466  16.8506197
  97.3200137  45.9487913  16.5045850  86.5732719  42.0870461   5.5819425
  86.2535503  41.2335769   5.2893799  86.0266147  42.3019039   6.3377393
  90.3512626  44.8032902   9.2988932  90.5698636  45.7350010   9.3176966
  90.7638400  44.4440876  10.0843736  95.2240491  40.3766108  18.6891681
  95.1237218  41.3260465  18.6203772  95.0062034  40.0484347  17.8167751
  86.4420979  45.7073372   7.5512547  85.7484450  45.2927325   7.0382501
  87.1893970  45.7493909   6.9545966  95.0871762  43.8063247  17.5056743
  94.6038843  44.6063607  17.7120632  95.1732701  43.8171191  16.5524187
  88.3557721  45.6391626   5.4278562  88.3328409  45.7379314   4.4760445
  88.6658358  46.4856777   5.7495728  91.0145099  47.6967781   9.5425176
  91.9688353  47.6651724   9.4755108  90.8157623  47.2358405  10.3575402
  91.6044481  46.2668897  12.1095974  92.4237370  46.7612976  12.1330811
  91.8781289  45.3500865  12.0813542  89.3695328  53.2387401   6.5595374
  89.2349796  52.4787802   5.9933372  88.9527390  53.9628301   6.0924163
  92.5264454  54.1356718   6.7713817  92.4096838  55.0802150   6.6692507
  91.7056900  53.8330279   7.1599616  86.8579395  40.6007031  12.8088171
  87.5038259  40.0905985  13.2975396  86.6496547  41.3375713  13.3831596
  99.3832788  47.6687879  18.3080312 100.2523947  47.8428531  17.9466947
  98.9039539  48.4882296  18.1856041  93.5518968  54.7884980   9.9869745
  94.4546215  54.8208590  10.3036240  93.3256338  53.8585431  10.0016081
  95.3072570  53.5415966   6.6479824  94.3568201  53.5417828   6.5344196
  95.6105056  52.7948701   6.1315859  91.1976886  37.7474648  16.9063185
  92.0608348  37.3911453  17.1166510  90.6242297  37.4088543  17.5938590
 107.8514970  59.3303933   7.6487111 107.5133481  59.2144997   6.7607646
 108.7204738  58.9295098   7.6288117 108.3334753  60.4838784  13.6073317
 108.3223393  60.0891583  12.7353820 108.4955392  59.7504857  14.2007088
 105.0542014  63.2675896  12.5552501 104.7631880  64.1721527  12.4399167
 105.6898998  63.3092424  13.2696570 105.9798221  60.6452745   9.1453860
 106.5761793  60.4208767   8.4310823 106.0373192  59.9037490   9.7479308
 103.4644380  59.4051109   5.5838999 102.5394877  59.2727323   5.7916690
 103.7128794  60.1845328   6.0808941 100.8253191  59.0484382   6.4182788
 100.9545573  59.3018861   7.3322199 100.1450643  59.6412090   6.0987443
 107.4869908  56.8909498  15.1734629 106.7103242  57.4503418  15.1637493
 108.1260471  57.3766281  15.6949499 105.7416281  59.6994951  14.7352596
 106.4830965  60.2379995  14.4587419 105.0353266  60.3261240  14.8924148
 111.2171620  61.8424091  13.3324757 111.6254976  61.4006502  12.5879390
 110.4948882  61.2676719  13.5858950 107.5702690  56.7796698  10.7058314
 108.4163886  57.2036112  10.8492963 107.5101328  56.1230322  11.3996877
 110.7202136  54.4401067  12.3639488 110.4763068  55.1943127  11.8273764
 110.9962066  54.8186414  13.1986735 112.6740598  60.9839679  11.0416753
 112.8857494  61.6271439  10.3651135 112.6270347  60.1501995  10.5738684
 104.4777644  56.8534599  15.5367906 103.8476305  57.5350880  15.7703303
 104.3713732  56.7417681  14.5921044  99.7722617  56.5206395   6.4633830
  98.9821671  56.7763924   5.9873941 100.2633864  57.3354733   6.5685871
 107.5543030  63.4095678  11.3699821 107.6187462  63.8716085  12.2057993
 106.8453954  62.7793043  11.4982131  98.0560320  56.7736886   8.8948821
  98.3068358  57.6583895   9.1606397  98.5919868  56.5941487   8.1223913
 103.7558387  51.1555365  17.8993157 103.3625333  50.6021563  18.5740801
 104.5724527  51.4665943  18.2899674 106.6726348  52.5713244  15.4913413
 107.4136062  53.1720397  15.4117876 106.9044271  51.8290882  14.9331456
 101.8167686  57.7569611  13.7691643 101.7021201  56.8554869  14.0698742
 100.9612204  58.0033308  13.4176460 108.8959524  65.6987352  15.3679144
 108.4523378  64.9123730  15.0500048 109.5576737  65.8866502  14.7023035
 110.9940762  65.9790152  13.3960545 110.9759237  66.7999033  12.9040814
 111.9160682  65.8544227  13.6210686 107.4513816  63.4934281  14.2384053
 107.9842153  62.7322569  14.0083361 106.9227897  63.2007933  14.9808208
 109.0845665  56.6463122   7.1632194 108.1668226  56.8678069   7.0053882
 109.5005808  56.7209433   6.3043901  98.7095533  58.2618593   3.2577031
  98.5119933  57.6687953   2.5328097  98.1542197  57.9570803   3.9752970
 110.2258828  57.2360583  11.9676897 110.5808216  57.4632057  12.8271362
 110.8730959  57.5678960  11.3454152 104.1198691  54.3437114   8.7523238
 104.7598070  54.2025874   8.0546201 103.2876222  54.0571628   8.3761840
 101.1227308  54.3137439   3.5296224 101.3834125  55.2282773   3.4205385
 101.9444480  53.8461882   3.6792837 102.5952233  55.7275197  10.6995049
 103.2675286  55.5192559  10.0507698 101.7682019  55.5297283  10.2600281
 108.4977805  52.3537138  12.7160710 107.8505720  53.0527087  12.6225186
 109.2678820  52.7873281  13.0836958 111.9056603  62.6185990  15.7911263
 111.7542109  62.3896541  14.8741347 111.8961282  63.5756591  15.8042608
 108.6741939  60.1917902  10.7757530 109.6033999  60.3429062  10.6026497
 108.2532969  60.2801923   9.9206176 102.9979730  59.0017800  11.4597486
 102.8599528  58.2698038  12.0609025 103.9084654  58.9126700  11.1781674
 105.6262031  58.7137759  10.9481166 106.3361649  58.0730951  10.9067784
 105.5831339  58.9650654  11.8707347 104.3390965  55.7002977  12.7676805
 103.8028322  55.2493715  13.4198402 103.7507673  55.8348886  12.0247270
 113.6166217  63.6144696  12.1001725 112.7292996  63.2770618  12.2228124
 114.1864768  62.8827727  12.3370490  95.2695364  59.9468788   5.4244776
  95.9566404  59.6330518   4.8365791  95.1143493  60.8510153   5.1512028
 100.0730086  54.8358985   9.8529800  99.9888275  54.2284654   9.1180210
  99.2512792  55.3268003   9.8539296 104.6577967  65.9227426  12.0426697
 105.3587427  66.5563909  12.1956092 104.1873082  66.2642158  11.2822337
 112.4579253  58.4772034   9.8679248 111.8050703  58.7247941   9.2131700
 112.8359633  57.6636172   9.5341725 108.5066826  59.2191845  16.3545285
 107.8307463  59.1185974  17.0247660 109.3294460  59.0631058  16.8181282
 100.2545685  65.4563781   8.9757800 100.8399122  64.7107469   9.1085704
 100.0570524  65.7667738   9.8594464  94.8463340  58.0269381   7.6962243
  94.8847440  57.4932972   8.4899361  94.3403633  57.5004587   7.0773220
 102.2254102  52.8733922  11.1924786 102.2895429  53.7348753  10.7802183
 102.1621223  52.2607923  10.4597144 101.7006375  54.9457054  14.8397820
 102.3278414  54.5634132  15.4535344 100.8434294  54.7271256  15.2053512
 112.1000483  65.3520030  16.4451555 112.6440387  65.9649988  15.9506510
 111.5187328  65.9099608  16.9618568 102.0066165  54.8289480   6.7543723
 101.2852750  55.4425448   6.6151197 102.7959420  55.3647245   6.6760369
 104.8092478  52.1643907  13.0284375 105.3326880  52.4106203  13.7910684
 104.5904811  52.9963941  12.6087512 106.0145023  53.1057602  10.7134045
 105.6741844  52.3065415  11.1154725 105.3084029  53.4059312  10.1410879
 106.6661495  50.1906914   9.1661369 107.4887564  49.7167392   9.0440259
 106.9099559  50.9697398   9.6660055 104.1900074  56.8826035   6.9753347
 104.0444654  57.1966338   7.8677629 103.7125277  57.5010935   6.4224246
 106.0496457  53.8728583   7.0234237 106.0358025  52.9769676   6.6866535
 106.7668885  53.8799246   7.6572523 107.9022587  54.3065923   9.0687364
 107.6440365  55.2282994   9.0671695 107.3707628  53.9096357   9.7587828
  98.6645736  59.4231379   9.9141008  98.1199204  60.1991187  10.0461283
  99.5425086  59.7702184   9.7560130  99.4511758  58.5501275  12.8071165
  98.7093494  58.6983911  13.3935796  99.1304502  58.8109541  11.9437915
 104.9374432  54.2674960  16.5011739 104.9862588  55.1437083  16.1189509
 105.4796946  53.7252353  15.9283383 115.4229278  64.8116084  15.7812877
 114.6324822  64.7940222  15.2417376 115.1862632  65.3504377  16.5361913
 115.5427153  61.6608550  13.0945605 115.5925158  61.4958557  14.0361128
 115.4341076  60.7935809  12.7043486 112.8330915  57.6439478  14.4104912
 113.7340778  57.5045943  14.1188910 112.9078890  57.8093933  15.3503089
 107.1673721  55.0206333  13.2558098 106.2977030  55.3139899  12.9840687
 107.4033201  55.6046778  13.9765362 115.2932538  59.2038106  11.8067685
 115.7686660  59.3965752  10.9986536 114.3698103  59.2597292  11.5611068
 109.8712754  51.2385950  10.7723518 110.3894698  51.9746977  10.4470007
 109.5167887  51.5449943  11.6070278 112.0148586  53.1659449  10.2255391
 111.4198519  53.4464462   9.5301880 111.7298283  53.6553350  10.9972132
 108.1944308  62.2223785  16.6566151 109.1147318  62.4002384  16.8506197
 108.1593891  61.2779830  16.5045850  97.4126473  57.4162379   5.5819425
  97.0929257  56.5627687   5.2893799  96.8659901  57.6310957   6.3377393
 101.1906381  60.1324820   9.2988932 101.4092390  61.0641927   9.3176966
 101.6032154  59.7732794  10.0843736 106.0634246  55.7058025  18.6891681
 105.9630973  56.6552382  18.6203772 105.8455788  55.3776264  17.8167751
  97.2814733  61.0365290   7.5512547  96.5878205  60.6219243   7.0382501
  98.0287724  61.0785827   6.9545966 105.9265516  59.1355164  17.5056743
 105.4432598  59.9355524  17.7120632 106.0126455  59.1463109  16.5524187
  99.1951476  60.9683544   5.4278562  99.1722164  61.0671231   4.4760445
  99.5052112  61.8148695   5.7495728 101.8538854  63.0259699   9.5425176
 102.8082107  62.9943641   9.4755108 101.6551377  62.5650323  10.3575402
 102.4438236  61.5960815  12.1095974 103.2631125  62.0904894  12.1330811
 102.7175043  60.6792783  12.0813542  97.6973150  55.9298949  12.8088171
  98.3432013  55.4197903  13.2975396  97.4890301  56.6667631  13.3831596
 110.2226542  62.9979796  18.3080312 111.0917702  63.1720449  17.9466947
 109.7433294  63.8174213  18.1856041 102.0370641  53.0766566  16.9063185
 102.9002102  52.7203371  17.1166510 101.4636052  52.7380461  17.5938590
 114.5952142  66.4847283  17.8993157 114.2019087  65.9313481  18.5740801
 115.4118282  66.7957861  18.2899674 116.9028000  71.0349943  18.6891681
 116.8024727  71.9844300  18.6203772 116.6849543  70.7068182  17.8167751
 112.8764395  68.4058484  16.9063185 113.7395857  68.0495288  17.1166510
 112.3029806  68.0672378  17.5938590   2.6461113  75.5342306  85.2152239
   1.8924821  74.9649704  85.0596244   2.7808654  75.5004970  86.1622874
   3.0567528  75.6917916  87.9472484   3.7870916  75.4303204  88.5080187
   2.4474473  74.9546638  87.9874552   1.1382825  73.8325778  88.5446935
   0.4115988  73.6981743  87.9363427   0.7230112  74.1402607  89.3503653
   1.0631692  73.3603831  84.6723788   0.5031250  73.4297021  85.4455350
   0.4575196  73.1844816  83.9523284   2.6487711  90.0360345  87.3653743
   3.2866121  89.9167093  86.6617084   2.5308554  90.9841189  87.4241696
   2.2028979  87.7611799  84.4406951   2.9892069  87.3431222  84.0897368
   2.4667684  88.6657891  84.6088600   2.3739057  93.1984649  79.1395608
   1.7384890  93.2719276  79.8516513   2.0436463  93.7878248  78.4614688
   7.6037407  87.6987032  85.3439930   8.3362578  87.1286249  85.5777759
   6.8476762  87.3108633  85.7846436   5.1262827  81.4108606  89.8034539
   4.7946152  82.2804017  89.5795754   4.5308440  81.0944890  90.4828569
   5.0191490  86.1303693  86.8827889   4.1108368  86.0619101  86.5886650
   4.9679086  86.6075638  87.7109714   6.8853137  84.3320131  88.6605763
   6.2427517  84.6252664  88.0145557   6.3808065  84.2173051  89.4658959
   4.5393300  88.0783304  79.3491622   5.4511156  88.3110691  79.1739319
   4.0302947  88.6620348  78.7866700   3.1462883  93.0609123  86.7405203
   2.5171745  93.2254837  86.0381271   2.7588545  93.4750732  87.5116167
   7.0252114  93.9963561  84.0949567   6.3403153  94.3762462  83.5446600
   7.1095964  94.6058887  84.8281515   2.3264583  85.0984907  92.0167645
   2.0825515  85.8526968  91.4801921   2.6024514  85.4770255  92.8514892
   4.2803046  91.6423520  90.6944911   4.4919941  92.2855279  90.0179292
   4.2332794  90.8085836  90.2266841   1.8829275  84.2541340  87.5981483
   1.0213754  84.5522594  87.8898220   1.9091710  84.4711739  86.6662515
   5.3948874  94.5195475  88.8667268   6.2166318  94.1175662  88.5849950
   5.3911277  94.4163709  89.8183384  13.4854867  90.8634223  85.2152239
  12.7318575  90.2941622  85.0596244  13.6202408  90.8296888  86.1622874
   2.2245959  79.2578188  89.4205852   1.8810228  80.1479829  89.3444963
   2.5924921  79.0679845  88.5575437   2.1896241  89.2486799  77.9278287
   1.6742865  90.0191403  78.1666675   1.9173550  88.5751935  78.5511349
   1.3042499  81.6282843  87.3855085   0.8007295  81.5912978  86.5722891
   1.5973106  82.5375586  87.4451742   7.1630516  92.0019153  79.8631461
   6.3859958  91.6630313  79.4186623   7.8421996  92.0071777  79.1886426
   1.9782545  87.1213891  79.7538068   1.6732680  87.4360040  80.6048212
   2.9312987  87.1995311  79.7965401   5.4021822  91.4753135  86.5198069
   4.7445497  92.1652396  86.6078197   6.2062222  91.8649567  86.8632055
   4.2127281  89.8297507  84.5702011   4.7259163  90.4627499  85.0723720
   4.8628505  89.2298703  84.2045371   1.4749655  99.8081832  77.3262682
   0.8011354 100.1113528  77.9347639   1.8615477 100.6110912  76.9768139
   1.4743160  88.7038379  81.9463031   2.2214979  89.2159776  81.6370153
   1.7434749  88.3822431  82.8067425   4.9789077  94.8103509  82.6981153
   4.5251405  93.9694419  82.7546344   4.3483044  95.4464907  83.0355933
   3.9221997  85.7395495  83.9281821   3.1844754  85.2272881  84.2592063
   4.1748771  85.2995876  83.1165097   3.4222017  96.6480005  83.6330971
   3.7144991  97.2085063  82.9143337   3.9320637  96.9408566  84.3884130
   4.0233624  78.5171747  84.5223590   4.3292501  77.6569110  84.2349505
   4.7486229  79.1089367  84.3222584   1.8321276  87.8944424  91.6205054
   2.1870663  88.1215897  92.4799519   2.4793407  88.2262801  90.9982309
   7.5619013  91.0162860  82.3254383   7.4236911  91.2064456  81.3975572
   7.2055231  91.7782243  82.7822434   7.5888392  93.0839387  87.3365654
   8.0224899  92.9914676  88.1848708   8.3019973  93.0596887  86.6985670
   8.4503942  93.1263088  89.8698540   8.6439832  94.0308898  90.1157815
   8.3504560  92.6670507  90.7037125   3.5657125  91.5990045  75.8610122
   2.9486296  90.8736873  75.7643174   3.0973614  92.3599405  75.5177196
   1.8516247  83.9796389  84.8728152   2.3484947  83.2266351  84.5529222
   1.0803229  84.0160705  84.3071361   9.7046005  89.6836754  86.5146443
   9.6935881  90.5661470  86.1440377   8.8363384  89.3308305  86.3200980
   2.9346028  92.7368076  82.4466575   2.0002307  92.8569538  82.2771280
   3.1122697  91.8340543  82.1826585   6.3218580  88.5785395  82.9816609
   6.7879032  89.4113387  82.9076912   6.7726080  88.1130377  83.6861868
   4.3894811  94.9229217  79.9802762   4.6654655  94.8085811  80.8896636
   3.5199309  94.5246701  79.9414935   4.2935242  80.9465982  87.0207511
   3.3798322  81.1770209  87.1889718   4.7228344  81.0304426  87.8721543
   4.0641701  89.1355874  89.5207405   3.4113151  89.3831782  88.8659858
   4.4422081  88.3220012  89.1869882   1.0248875  99.1715567  83.6235575
   1.2071269  98.3537223  84.0863327   1.8481861  99.3883260  83.1860465
   1.3591040  98.0983753  80.8850624   1.8878807  97.5876207  80.2720786
   1.6219260  97.7826283  81.7496157   1.0601786  96.7286325  85.0578642
   0.9126748  95.8003032  85.2386212   1.8855279  96.7506415  84.5735718
   4.6635907  97.5514883  86.1443515   5.5882455  97.3457745  86.0067966
   4.4951211  97.3031284  87.0532857   1.0563300  84.5824162  80.0510760
   1.2726914  85.4648800  79.7499588   0.5757367  84.1910376  79.3216402
   4.4531224  98.0700551  81.5005607   4.6268101  97.5046973  80.7479459
   4.9460115  98.8701446  81.3185097  10.3070615  90.8336974  83.1195906
  10.7501761  90.0844299  82.7215030   9.4297125  90.8247110  82.7369638
   5.4406396  97.3867315  78.6002505   6.1357301  98.0074008  78.8189820
   5.7829546  96.5362666  78.8754883   7.3397819  94.8367021  80.1289836
   7.8649143  95.1754293  79.4039156   7.2520172  93.9014036  79.9452970
   7.1489600  92.3192391  92.7473762   7.1987605  92.1542398  93.6889285
   7.0403524  91.4519650  92.3571643   9.8503480  92.3042212  85.5118354
  10.6850371  92.7432016  85.6755914   9.9862608  91.8280865  84.6926600
   6.8994985  89.8621947  91.4595842   7.3749107  90.0549593  90.6514693
   5.9760551  89.9181133  91.2139225   1.4775202  81.8969790  90.4251676
   1.9957146  82.6330817  90.0998164   1.1230335  82.2033784  91.2598435
   1.7287796  78.3170073  85.9452572   2.0089550  77.6493262  86.5712999
   2.5138403  78.5099169  85.4327236   5.5996654  86.7387707  89.6924147
   6.5514077  86.8385805  89.7136371   5.4300105  85.9465975  90.2022232
   3.6211034  83.8243290  89.8783548   3.0260966  84.1048303  89.1830037
   3.3360731  84.3137191  90.6500289   2.7518524  97.7766217  78.6386181
   3.6849198  97.7111779  78.8419056   2.6641737  98.6122484  78.1800713
   5.3806541  97.0932087  75.5990128   5.3020173  96.7591951  76.4925886
   6.2016208  97.5853855  75.5981601   8.0784732  89.9593827  88.8066447
   8.0461052  89.0209827  88.9926131   8.6885356  90.0377863  88.0732272
   8.2279221  86.7504870  88.8524730   7.7118269  85.9663327  88.6654659
   9.1119169  86.4223587  89.0171250   5.8889948  80.4945886  84.8120543
   5.6914769  80.1860974  85.6963875   6.4989653  81.2207524  84.9418473
  13.8961282  91.0209833  87.9472484  14.6264671  90.7595122  88.5080187
  13.2868228  90.2838555  87.9874552  11.9776579  89.1617696  88.5446935
  11.2509743  89.0273661  87.9363427  11.5623866  89.4694525  89.3503653
   1.6463594  80.3754792  82.5617074   2.1994633  80.7950246  83.2207097
   1.8833681  79.4490541  82.6040030   5.0242401  82.4855318  82.0695738
   4.4441070  83.1440122  81.6873791   4.7578334  81.6632662  81.6583156
   3.4745968  81.8860375  84.2717059   3.9745746  81.9976910  83.4631378
   4.1181576  81.5821428  84.9117867   3.8067279  84.6455408  81.1252087
   2.9193134  84.9305059  80.9072281   4.2221268  84.4849171  80.2779364
   7.1581816  84.6701929  84.8406426   7.9342206  85.1598381  85.1131043
   6.4329950  85.0959983  85.2978295   9.5954374  85.3829548  85.8980367
  10.1898865  85.1425284  85.1873675   9.6680958  84.6636679  86.5253903
   2.9510493  94.4100083  75.2200107   3.6546343  94.6150085  75.8357762
   2.2273142  94.9776845  75.4849190   3.7808303  90.1609944  81.3402377
   3.7243505  90.6178495  80.5010009   4.3336646  89.4000629  81.1625220
   7.5913109  85.9499676  82.1652496   7.3350043  85.5496311  82.9960704
   6.9665977  86.6643470  82.0402635  11.9025447  88.6895749  84.6723788
  11.3425005  88.7588938  85.4455350  11.2968950  88.5136734  83.9523284
   4.8597190  94.8482612  77.2698567   5.6942794  94.4163810  77.0876041
   4.6981533  94.6764626  78.1975461   4.5143082  91.3514725  78.6354906
   4.4591886  91.1858997  77.6943350   3.8889138  92.0590758  78.7917096
   1.6391327  77.4465611  82.4686161   0.8723723  76.8924098  82.6142844
   2.0502032  77.5187480  83.3300313  13.0422734 103.0903717  84.4406951
  13.8285823 102.6723140  84.0897368  13.3061438 103.9949809  84.6088600
  18.4431161 103.0278950  85.3439930  19.1756333 102.4578167  85.5777759
  17.6870517 102.6400550  85.7846436  15.9656581  96.7400524  89.8034539
  15.6339906  97.6095935  89.5795754  15.3702195  96.4236808  90.4828569
   9.7012768 100.4796091  77.5364621   9.8687170 101.3476328  77.9035092
   9.5109937 100.6423373  76.6125910  15.8585245 101.4595610  86.8827889
  14.9502122 101.3911019  86.5886650  15.8072840 101.9367555  87.7109714
   9.6801989 102.9353749  78.5211288   9.5601614 103.3810800  79.3596768
   8.9854577 103.2839066  77.9624826  17.7246891  99.6612049  88.6605763
  17.0821271  99.9544582  88.0145557  17.2201820  99.5464969  89.4658959
  15.3787055 103.4075222  79.3491622  16.2904911 103.6402609  79.1739319
  14.8696702 103.9912266  78.7866700  13.1658338 100.4276825  92.0167645
  12.9219270 101.1818885  91.4801921  13.4418268 100.8062172  92.8514892
  12.7223029  99.5833258  87.5981483  11.8607509  99.8814511  87.8898220
  12.7485464  99.8003657  86.6662515  24.3248622 106.1926141  85.2152239
  23.5712330 105.6233539  85.0596244  24.4596163 106.1588806  86.1622874
  13.0639713  94.5870105  89.4205852  12.7203983  95.4771747  89.3444963
  13.4318676  94.3971763  88.5575437  13.0289996 104.5778716  77.9278287
  12.5136619 105.3483321  78.1666675  12.7567304 103.9043853  78.5511349
  10.6137107  99.4228417  82.9863526   9.7578703  99.0335268  82.8069164
  11.0264059  99.5020378  82.1263311  12.1436254  96.9574760  87.3855085
  11.6401049  96.9204896  86.5722891  12.4366860  97.8667503  87.4451742
   8.3879139  97.0413490  86.3921267   9.2532136  96.8456299  86.0327157
   8.4556648  96.8123842  87.3190624  18.0024270 107.3311071  79.8631461
  17.2253713 106.9922231  79.4186623  18.6815751 107.3363694  79.1886426
  12.8176299 102.4505809  79.7538068  12.5126435 102.7651958  80.6048212
  13.7706741 102.5287228  79.7965401   5.9941458  99.2715698  83.7637634
   6.5685210  99.0490880  83.0310827   6.5812441  99.3404393  84.5166235
  15.0521036 105.1589425  84.5702011  15.5652917 105.7919417  85.0723720
  15.7022260 104.5590621  84.2045371   6.3211046 101.3020159  77.7833519
   5.4848358 101.6394846  78.1042794   6.1815815 101.1669139  76.8460656
   8.2964126  96.1456947  82.4912703   7.6428539  95.8305964  81.8669318
   8.2544600  95.5232687  83.2172526  11.5301867 102.6338881  86.8160351
  10.6124428 102.8553828  86.6582039  11.9462010 102.7085191  85.9572058
  12.3136914 104.0330296  81.9463031  13.0608733 104.5451693  81.6370153
  12.5828504 103.7114349  82.8067425  14.7615751 101.0687413  83.9281821
  14.0238508 100.5564799  84.2592063  15.0142525 100.6287794  83.1165097
  14.8627379  93.8463665  84.5223590  15.1686256  92.9861028  84.2349505
  15.5879984  94.4381285  84.3222584   7.0740818 102.7594517  82.7890160
   6.2608684 103.0588688  83.1955352   7.5699813 102.3650206  83.5064642
  12.6715030 103.2236342  91.6205054  13.0264418 103.4507815  92.4799519
  13.3187161 103.5554719  90.9982309  18.4012767 106.3454778  82.3254383
  18.2630666 106.5356374  81.3975572  18.0448986 107.1074161  82.7822434
   6.5654893 100.3312873  88.4051395   7.2054273 100.1901632  87.7074358
   5.7332424 100.0447386  88.0289997   3.5683510 100.3013198  83.1824382
   3.8290327 101.2158531  83.0733542   4.3900682  99.8337640  83.3320994
  10.9434007  98.3412896  92.3688867  10.2961922  99.0402846  92.2753343
  11.7135022  98.7749040  92.7365115   6.1949426 101.1467387  74.9831426
   5.3178892 101.0256187  74.6193673   6.6707179 100.3553465  74.7310315
  12.6910002  99.3088306  84.8728152  13.1878702  98.5558269  84.5529222
  11.9196983  99.3452623  84.3071361  20.5439759 105.0128672  86.5146443
  20.5329636 105.8953387  86.1440377  19.6757139 104.6600223  86.3200980
   9.2744971 101.4505689  84.5999837   8.9042758 100.8976730  85.2880742
   9.7704063 100.8463823  84.0474837  17.1612334 103.9077313  82.9816609
  17.6272786 104.7405305  82.9076912  17.6119835 103.4422294  83.6861868
  15.1328997  96.2757900  87.0207511  14.2192077  96.5062127  87.1889718
  15.5622098  96.3596344  87.8721543  14.9035455 104.4647792  89.5207405
  14.2506906 104.7123699  88.8659858  15.2815835 103.6511930  89.1869882
   2.6515961 100.4223339  80.5483657   2.3228667  99.5420718  80.3658763
   3.0055332 100.3671008  81.4360046   5.7657784 100.7096309  80.9159135
   6.1053857 101.2382231  80.1937743   6.2129905 101.0476715  81.6917701
   8.4601225  99.0933360  90.3662203   8.1198046  98.2941173  90.7682882
   7.7540232  99.3935071  89.7939036   9.1117697  96.1782672  88.8189526
   9.9343766  95.7043151  88.6968416   9.3555761  96.9573156  89.3188212
   7.7525932  99.2070931  79.1152427   8.4734294  99.5852184  78.6116144
   7.1291236  99.9259808  79.2187405  11.8957054  99.9116080  80.0510760
  12.1120669 100.7940718  79.7499588  11.4151122  99.5202293  79.3216402
   8.4952659  99.8604341  86.6762394   8.4814227  98.9645434  86.3394692
   9.2125087  99.8675005  87.3100680  10.3478789 100.2941681  88.7215521
  10.0896567 101.2158752  88.7199852   9.8163830  99.8972116  89.4115985
   7.8989555  98.7418721  81.9449964   8.0205466  97.8135368  82.1440851
   7.6091597  98.7557407  81.0328279  10.7680745  96.4273632  85.0816684
  10.7902442  96.4912965  84.1268663  11.1848804  95.5878140  85.2757190
  21.1464369 106.1628891  83.1195906  21.5895515 105.4136217  82.7215030
  20.2690880 106.1539028  82.7369638  20.6897234 107.6334130  85.5118354
  21.5244125 108.0723934  85.6755914  20.8256363 107.1572783  84.6926600
  17.7388740 105.1913864  91.4595842  18.2142862 105.3841511  90.6514693
  16.8154305 105.2473050  91.2139225  12.3168956  97.2261708  90.4251676
  12.8350900  97.9622735  90.0998164  11.9624089  97.5325701  91.2598435
   3.8967894 102.0866389  78.5413081   3.2037139 102.1610744  77.8853117
   3.6519646 101.3226733  79.0634598  12.5681551  93.6461991  85.9452572
  12.8483304  92.9785180  86.5712999  13.3532158  93.8391086  85.4327236
  16.4390409 102.0679625  89.6924147  17.3907832 102.1677722  89.7136371
  16.2693859 101.2757893  90.2022232  14.4604788  99.1535208  89.8783548
  13.8654721  99.4340221  89.1830037  14.1754485  99.6429109  90.6500289
  18.9178487 105.2885744  88.8066447  18.8854807 104.3501745  88.9926131
  19.5279110 105.3669781  88.0732272  10.7561818 104.1581797  74.8493651
  11.7020922 104.0288005  74.9182069  10.3776063 103.4196459  75.3263079
  19.0672975 102.0796788  88.8524730  18.5512024 101.2955244  88.6654659
  19.9512924 101.7515504  89.0171250  16.7283702  95.8237803  84.8120543
  16.5308523  95.5152891  85.6963875  17.3383408  96.5499442  84.9418473
  24.7355037 106.3501751  87.9472484  25.4658425 106.0887039  88.5080187
  24.1261982 105.6130473  87.9874552  22.8170334 104.4909614  88.5446935
  22.0903497 104.3565579  87.9363427  22.4017621 104.7986442  89.3503653
   8.9404735 102.0831774  74.7848536   8.0336190 101.7864886  74.8611250
   9.2180716 101.7861592  73.9182822  10.5566800  96.6268663  80.9392777
   9.7467529  96.2815748  81.3148024  11.2451217  96.3176207  81.5280389
  12.4857349  95.7046710  82.5617074  13.0388387  96.1242164  83.2207097
  12.7227435  94.7782458  82.6040030   7.7103519  98.9418709  74.9260515
   8.5722683  99.2673607  75.1856333   7.8953864  98.1550205  74.4133581
  15.8636156  97.8147235  82.0695738  15.2834825  98.4732039  81.6873791
  15.5972089  96.9924580  81.6583156  14.3139722  97.2152293  84.2717059
  14.8139501  97.3268828  83.4631378  14.9575330  96.9113346  84.9117867
  14.6461034  99.9747326  81.1252087  13.7586889 100.2596976  80.9072281
  15.0615023  99.8141089  80.2779364  17.9975570  99.9993847  84.8406426
  18.7735960 100.4890299  85.1131043  17.2723704 100.4251901  85.2978295
  20.4348129 100.7121466  85.8980367  21.0292619 100.4717202  85.1873675
  20.5074712  99.9928596  86.5253903  14.6202058 105.4901862  81.3402377
  14.5637259 105.9470413  80.5010009  15.1730400 104.7292546  81.1625220
  18.4306864 101.2791593  82.1652496  18.1743798 100.8788229  82.9960704
  17.8059732 101.9935387  82.0402635  22.7419201 104.0187667  84.6723788
  22.1818759 104.0880856  85.4455350  22.1362705 103.8428651  83.9523284
   8.6632962  96.1814752  78.2140224   8.6511632  97.1256592  78.3708495
   9.5556384  95.9984897  77.9199686  12.4785082  92.7757529  82.4686161
  11.7117478  92.2216015  82.6142844  12.8895787  92.8479397  83.3300313
  25.7021133 109.1755582  84.5223590  26.0080010 108.3152946  84.2349505
  26.4273738 109.7673202  84.3222584  23.4075305 108.9753908  85.9452572
  23.6877059 108.3077097  86.5712999  24.1925912 109.1683004  85.4327236
  23.3178836 108.1049446  82.4686161  22.5511232 107.5507933  82.6142844
  23.7289541 108.1771315  83.3300313   2.6461114  52.5404428  71.9397546
   1.8924822  51.9711826  71.7841550   2.7808655  52.5067093  72.8868181
   3.0567529  52.6980038  74.6717790   3.7870917  52.4365326  75.2325494
   2.4474474  51.9608760  74.7119858   1.1382826  50.8387901  75.2692242
   0.4115990  50.7043866  74.6608733   0.7230113  51.1464730  76.0748960
   1.0631694  50.3665954  71.3969094   0.5031252  50.4359143  72.1700656
   0.4575197  50.1906939  70.6768591   2.6487712  67.0422468  74.0899050
   3.2866122  66.9229215  73.3862390   2.5308555  67.9903312  74.1487002
   2.2028981  64.7673922  71.1652258   2.9892070  64.3493345  70.8142675
   2.4667685  65.6720014  71.3333906   2.3739058  70.2046772  65.8640915
   1.7384891  70.2781399  66.5761820   2.0436464  70.7940371  65.1859994
   7.6037408  64.7049155  72.0685237   8.3362580  64.1348372  72.3023066
   6.8476763  64.3170755  72.5091742   5.1262828  58.4170729  76.5279845
   4.7946153  59.2866140  76.3041060   4.5308441  58.1007013  77.2073876
   1.6194348  70.6183275  75.9275758   1.3195071  71.5208314  75.8191565
   1.2745407  70.3515458  76.7796911   5.0191491  63.1365815  73.6073195
   4.1108369  63.0681224  73.3131956   4.9679087  63.6137760  74.4355021
   6.8853138  61.3382254  75.3851069   6.2427518  61.6314787  74.7390864
   6.3808066  61.2235174  76.1904266   4.5393301  65.0845427  66.0736928
   5.4511158  65.3172814  65.8984626   4.0302949  65.6682471  65.5112007
   2.8234069  69.5070055  79.7098221   3.2317425  69.0652465  78.9652853
   2.1011331  68.9322682  79.9632414   3.1462884  70.0671245  73.4650510
   2.5171746  70.2316959  72.7626578   2.7588546  70.4812855  74.2361474
   7.0252116  71.0025683  70.8194874   6.3403154  71.3824584  70.2691907
   7.1095965  71.6121010  71.5526821   2.3264585  62.1047030  78.7412952
   2.0825516  62.8589090  78.2047227   2.6024515  62.4832377  79.5760199
   4.2803047  68.6485642  77.4190217   4.4919943  69.2917402  76.7424598
   4.2332796  67.8147959  76.9512147   1.8829276  61.2603463  74.3226789
   1.0213755  61.5584716  74.6143527   1.9091711  61.4773862  73.3907822
   5.3948875  71.5257598  75.5912575   6.2166319  71.1237785  75.3095256
   5.3911278  71.4225832  76.5428690  13.4854868  67.8696346  71.9397546
  12.7318577  67.3003744  71.7841550  13.6202410  67.8359011  72.8868181
   2.6003211  73.6436115  79.7734009   2.5821686  74.4644996  79.2814278
   3.5223131  73.5190190  79.9984150   2.2245960  56.2640310  76.1451159
   1.8810229  57.1541952  76.0690269   2.5924923  56.0741968  75.2820744
   2.1896243  66.2548921  64.6523594   1.6742866  67.0253526  64.8911981
   1.9173551  65.5814058  65.2756655   1.3042500  58.6344965  74.1100392
   0.8007296  58.5975101  73.2968197   1.5973107  59.5437708  74.1697049
   7.1630517  69.0081276  66.5876767   6.3859960  68.6692435  66.1431930
   7.8421998  69.0133899  65.9131732   1.9782546  64.1276013  66.4783375
   1.6732681  64.4422163  67.3293518   2.9312988  64.2057433  66.5210708
   5.4021824  68.4815257  73.2443375   4.7445498  69.1714519  73.3323504
   6.2062223  68.8711689  73.5877362   4.2127282  66.8359630  71.2947317
   4.7259164  67.4689622  71.7969027   4.8628506  66.2360825  70.9290677
   1.4749657  76.8143954  64.0507988   0.8011355  77.1175651  64.6592946
   1.8615479  77.6173035  63.7013445   1.4743161  65.7100501  68.6708338
   2.2214980  66.2221898  68.3615460   1.7434751  65.3884554  69.5312732
   4.9789079  71.8165631  69.4226460   4.5251406  70.9756541  69.4791650
   4.3483045  72.4527030  69.7601240   3.9221998  62.7457617  70.6527127
   3.1844755  62.2335004  70.9837370   4.1748772  62.3057999  69.8410404
   3.4222018  73.6542128  70.3576278   3.7144992  74.2147185  69.6388644
   3.9320639  73.9470689  71.1129437   4.0233626  55.5233869  71.2468897
   4.3292502  54.6631233  70.9594812   4.7486230  56.1151490  71.0467890
   1.8321277  64.9006547  78.3450360   2.1870665  65.1278020  79.2044826
   2.4793408  65.2324924  77.7227616   7.5619014  68.0224983  69.0499689
   7.4236912  68.2126579  68.1220879   7.2055233  68.7844365  69.5067741
   7.5888393  70.0901510  74.0610961   8.0224900  69.9976799  74.9094015
   8.3019974  70.0659010  73.4230977   1.3216288  73.6903604  75.5944061
   1.3753311  74.2594540  76.3621777   0.4531070  73.8605489  75.2298099
   8.4503943  70.1325210  76.5943846   8.6439833  71.0371021  76.8403121
   8.3504561  69.6732629  77.4282431   3.5119052  70.2831953  82.1684727
   3.3604558  70.0542505  81.2514811   3.5023731  71.2402554  82.1816072
   3.5657127  68.6052167  62.5855428   2.9486297  67.8798995  62.4888481
   3.0973615  69.3661527  62.2422503   5.2211258  73.3151076  80.2461209
   5.1623805  72.6310296  79.5791792   5.6230777  74.0570066  79.7941835
   5.2228666  71.2790660  78.4775188   4.3355444  70.9416581  78.6001587
   5.7927217  70.5473691  78.7143954   1.8516249  60.9858511  71.5973459
   2.3484948  60.2328474  71.2774529   1.0803230  61.0222828  71.0316668
   9.7046006  66.6898877  73.2391750   9.6935882  67.5723592  72.8685683
   8.8363386  66.3370428  73.0446287   1.2128503  75.8378946  77.5994590
   1.9256475  76.4726411  77.5270492   0.7218531  75.9342812  76.7834592
   2.9346029  69.7430199  69.1711882   2.0002308  69.8631661  69.0016586
   3.1122698  68.8402665  68.9071892   6.3218581  65.5847518  69.7061916
   6.7879033  66.4175509  69.6322219   6.7726081  65.1192499  70.4107175
   4.3894812  71.9291339  66.7048068   4.6654656  71.8147934  67.6141942
   3.5199311  71.5308824  66.6660241   4.2935244  57.9528105  73.7452817
   3.3798323  58.1832332  73.9135024   4.7228345  58.0366549  74.5966850
   4.0641702  66.1417997  76.2452711   3.4113152  66.3893904  75.5905164
   4.4422082  65.3282135  75.9115189   1.0248876  76.1777690  70.3480882
   1.2071270  75.3599346  70.8108634   1.8481862  76.3945382  69.9105772
   1.3591041  75.1045875  67.6095930   1.8878808  74.5938330  66.9966092
   1.6219261  74.7888405  68.4741463   3.7062932  73.0165993  82.8225019
   4.2502836  73.6295951  82.3279974   3.1249777  73.5745571  83.3392032
   1.9920445  76.1386711  73.9540047   1.8671585  75.3376451  73.4450992
   2.6499536  76.6332904  73.4654017   4.0555354  73.9395731  75.5819597
   3.1085689  73.8201082  75.5097924   4.4038127  73.0518229  75.6645858
   1.0601787  73.7348447  71.7823949   0.9126749  72.8065155  71.9631519
   1.8855280  73.7568538  71.2981024   4.6635909  74.5577006  72.8688822
   5.5882456  74.3519867  72.7313273   4.4951212  74.3093407  73.7778163
   1.0563301  61.5886285  66.7756066   1.2726916  62.4710923  66.4744894
   0.5757368  61.1972498  66.0461708   4.4531225  75.0762673  68.2250913
   4.6268102  74.5109096  67.4724766   4.9460116  75.8763568  68.0430403
  10.3070616  67.8399096  69.8441213  10.7501762  67.0906421  69.4460336
   9.4297126  67.8309233  69.4614945   5.4406397  74.3929438  65.3247812
   6.1357302  75.0136130  65.5435126   5.7829548  73.5424789  65.6000189
   7.3397821  71.8429143  66.8535142   7.8649145  72.1816416  66.1284462
   7.2520173  70.9076159  66.6698277   7.0291727  72.4762047  82.1586340
   6.2387270  72.4586186  81.6190840   6.7925081  73.0150341  82.9135377
   7.1489602  69.3254513  79.4719069   7.1987607  69.1604521  80.4134592
   7.0403525  68.4581772  79.0816950   4.4393364  65.3085441  80.7878375
   5.3403227  65.1691906  80.4962373   4.5141339  65.4739896  81.7276553
   8.6507799  71.7451455  79.7161090   8.3592607  72.1081435  80.5524551
   8.0379930  71.0318463  79.5374422   9.8503481  69.3104335  72.2363661
  10.6850372  69.7494139  72.4001221   9.9862610  68.8342988  71.4171906
   6.8994987  66.8684069  78.1841148   7.3749108  67.0611716  77.3760000
   5.9760552  66.9243255  77.9384532   1.4775203  58.9031913  77.1496982
   1.9957147  59.6392940  76.8243471   1.1230336  59.2095906  77.9843741
   1.7287797  55.3232196  72.6697879   2.0089551  54.6555385  73.2958305
   2.5138404  55.5161291  72.1572543   5.5996656  63.7449829  76.4169454
   6.5514079  63.8447927  76.4381678   5.4300106  62.9528098  76.9267538
   3.6211035  60.8305413  76.6028855   3.0260967  61.1110425  75.9075343
   3.3360732  61.3199314  77.3745596   2.7518526  74.7828340  65.3631487
   3.6849199  74.7173901  65.5664363   2.6641739  75.6184606  64.9046020
   5.3806542  74.0994210  62.3235435   5.3020174  73.7654073  63.2171193
   6.2016209  74.5915978  62.3226907   8.0784734  66.9655949  75.5311754
   8.0461054  66.0271950  75.7171437   8.6885357  67.0439986  74.7977578
   8.2279222  63.7566993  75.5770037   7.7118271  62.9725449  75.3899966
   9.1119171  63.4285709  75.7416556   5.8889949  57.5008008  71.5365849
   5.6914770  57.1923096  72.4209181   6.4989655  58.2269647  71.6663779
  13.8961283  68.0271956  74.6717790  14.6264672  67.7657244  75.2325494
  13.2868229  67.2900678  74.7119858  11.9776581  66.1679819  75.2692242
  11.2509744  66.0335784  74.6608733  11.5623867  66.4756647  76.0748960
   1.6463596  57.3816915  69.2862381   2.1994634  57.8012368  69.9452404
   1.8833682  56.4552663  69.3285337   5.0242403  59.4917440  68.7941045
   4.4441072  60.1502244  68.4119097   4.7578335  58.6694785  68.3828463
   3.4745969  58.8922498  70.9962365   3.9745747  59.0039032  70.1876684
   4.1181577  58.5883551  71.6363174   3.8067281  61.6517531  67.8497393
   2.9193136  61.9367181  67.6317588   4.2221270  61.4911294  67.0024670
   7.1581817  61.6764052  71.5651733   7.9342207  62.1660504  71.8376349
   6.4329951  62.1022106  72.0223602   9.5954375  62.3891671  72.6225673
  10.1898866  62.1487407  71.9118981   9.6680959  61.6698801  73.2499209
   2.9510494  71.4162205  61.9445413   3.6546344  71.6212208  62.5603069
   2.2273143  71.9838967  62.2094497   3.7808304  67.1672067  68.0647683
   3.7243506  67.6240618  67.2255316   4.3336647  66.4062751  67.8870526
   7.5913110  62.9561798  68.8897803   7.3350045  62.5558434  69.7206011
   6.9665978  63.6705592  68.7647942  11.9025448  65.6957872  71.3969094
  11.3425006  65.7651061  72.1700656  11.2968952  65.5198856  70.6768591
   4.8597192  71.8544734  63.9943873   5.6942795  71.4225933  63.8121348
   4.6981534  71.6826748  64.9220768   4.5143084  68.3576848  65.3600213
   4.4591888  68.1921119  64.4188657   3.8889139  69.0652881  65.5162402
   1.8288991  70.6625760  84.6853775   2.6980151  70.8366412  84.3240410
   1.3495742  71.4820176  84.5629505   1.6391329  54.4527733  69.1931468
   0.8723724  53.8986220  69.3388150   2.0502034  54.5249602  70.0545619
  13.4881467  82.3714386  74.0899050  14.1259877  82.2521133  73.3862390
  13.3702310  83.3195230  74.1487002  10.2971173  82.3241814  74.0260575
   9.9589684  82.2082878  73.1381110  11.1660941  81.9232979  74.0061581
   6.1557989  84.1777290  70.0157466   5.5922854  84.0867227  69.2473753
   6.0410384  83.3577195  70.4959958  10.7790956  83.4776665  79.9846780
  10.7679597  83.0829464  79.1127284  10.9411595  82.7442738  80.5780552
   3.7022421  85.6728482  72.8541686   4.4943712  85.3319306  72.4387985
   3.9419071  85.7823457  73.7743839  11.7357547  87.8448258  65.3271931
  11.0845527  88.4302338  64.9405944  12.5301910  88.3754453  65.3866968
   5.6613174  84.9337395  65.7259065   6.4344050  84.3866382  65.5871941
   6.0138573  85.7981644  65.9373526   7.4998217  86.2613777  78.9325964
   7.2088083  87.1659408  78.8172631   8.1355201  86.3030305  79.6470034
   8.4254424  83.6390626  75.5227324   9.0217996  83.4146648  74.8084287
   8.4829395  82.8975371  76.1252772   7.9979452  81.0930061  63.3577515
   8.2504973  80.5711582  62.5960978   7.0604011  80.9296207  63.4604198
  13.0422735  80.0965839  71.1652258  13.8285824  79.6785263  70.8142675
  13.3061439  81.0011932  71.3333906  13.2132812  85.5338690  65.8640915
  12.5778645  85.6073316  66.5761820  12.8830219  86.1232289  65.1859994
  18.4431162  80.0341073  72.0685237  19.1756334  79.4640289  72.3023066
  17.6870518  79.6462673  72.5091742   7.7175741  82.9958167  65.5601890
   7.6011999  82.3203070  66.2282974   7.8278001  82.5090541  64.7434043
  10.0607282  82.4568314  69.2648579   9.6965489  81.9298935  69.9761501
  10.9174398  82.0666783  69.0915064  15.9656583  73.7462647  76.5279845
  15.6339907  74.6158058  76.3041060  15.3702196  73.4298931  77.2073876
   9.7012769  77.4858214  64.2609928   9.8687171  78.3538450  64.6280399
   9.5109938  77.6485496  63.3371217  12.4588102  85.9475193  75.9275758
  12.1588825  86.8500232  75.8191565  12.1139162  85.6807376  76.7796911
   5.9100584  82.3988990  71.9612462   4.9851080  82.2665204  72.1690154
   6.1584997  83.1783209  72.4582405  15.8585246  78.4657733  73.6073195
  14.9502123  78.3973141  73.3131956  15.8072842  78.9429678  74.4355021
   9.6801990  79.9415871  65.2456594   9.5601615  80.3872922  66.0842075
   8.9854578  80.2901189  64.6870133   3.2709395  82.0422263  72.7956251
   3.4001776  82.2956742  73.7095663   2.5906846  82.6349971  72.4760907
   7.4408882  92.7119513  68.8946726   7.3632912  93.6627338  68.9735206
   6.8370526  92.3665386  69.5521652   9.9326112  79.8847379  81.5508093
   9.1559446  80.4441299  81.5410957  10.5716675  80.3704161  82.0722963
  17.7246892  76.6674171  75.3851069  17.0821273  76.9606704  74.7390864
  17.2201821  76.5527092  76.1904266  15.3787056  80.4137345  66.0736928
  16.2904912  80.6464731  65.8984626  14.8696703  80.9974389  65.5112007
   8.1872484  82.6932832  81.1126060   8.9287168  83.2317876  80.8360883
   7.4809469  83.3199121  81.2697611  13.6627824  84.8361972  79.7098221
  14.0711180  84.3944383  78.9652853  12.9405085  84.2614600  79.9632414
  10.0158894  79.7734579  77.0831778  10.8620089  80.1973993  77.2266427
   9.9557531  79.1168203  77.7770341  13.9856638  85.3963163  73.4650510
  13.3565501  85.5608877  72.7626578  13.5982300  85.8104773  74.2361474
  17.8645870  86.3317601  70.8194874  17.1796908  86.7116502  70.2691907
  17.9489719  86.9412927  71.5526821  13.1658339  77.4338947  78.7412952
  12.9219271  78.1881008  78.2047227  13.4418270  77.8124295  79.5760199
  15.1196802  83.9777560  77.4190217  15.3313697  84.6209320  76.7424598
  15.0726550  83.1439876  76.9512147  12.7223031  76.5895380  74.3226789
  11.8607510  76.8876634  74.6143527  12.7485465  76.8065779  73.3907822
   9.5384600  85.1337571  70.7300595  10.0022946  85.4125274  69.9405218
   9.2741398  84.2321016  70.5473686   6.4308681  84.6809053  73.6680358
   7.0010038  85.1096321  73.0297843   7.0216793  84.3991637  74.3664544
   8.4753486  81.2560723  67.5390160   9.1777530  81.7081767  68.0064087
   8.1434115  80.6144542  68.1670053   6.9233848  79.8472480  81.9141370
   6.2932508  80.5288761  82.1476766   6.8169936  79.7355562  80.9694508
   2.2178820  79.5144276  72.8407294   1.4277874  79.7701805  72.3647404
   2.7090068  80.3292614  72.9459334  16.2342630  86.8549515  75.5912575
  17.0560073  86.4529703  75.3095256  16.2305033  86.7517749  76.5428690
   4.1693566  79.8788855  69.7990770   3.3724729  79.9907550  70.3174266
   3.9419158  80.2175508  68.9331661   9.9999233  86.4033559  77.7473285
  10.0643666  86.8653966  78.5831457   9.2910157  85.7730923  77.8755595
   0.5016523  79.7674767  75.2722285   0.7524562  80.6521776  75.5379860
   1.0376072  79.5879368  74.4997376  24.3248623  83.1988264  71.9397546
  23.5712331  82.6295662  71.7841550  24.4596164  83.1650928  72.8868181
   9.7147251  88.0701666  67.6152265   9.5792926  88.9153202  68.0437113
  10.2557063  88.2720944  66.8518199   6.2014590  74.1493246  84.2766621
   5.8081536  73.5959444  84.9514265   7.0180731  74.4603824  84.6673138
   3.1676648  85.5877104  68.1880190   3.6801169  86.3820354  68.3385755
   3.8199361  84.8903395  68.1213792   4.9771533  88.7042860  70.2702944
   5.1538161  89.6260825  70.0823928   5.7728366  88.3901280  70.6997323
   9.1182551  75.5651125  81.8686877   9.8592265  76.1658278  81.7891340
   9.3500474  74.8228763  81.3104920   4.2623889  80.7507492  80.1465107
   4.1477405  79.8492749  80.4472206   3.4068407  80.9971189  79.7949923
  11.3415727  88.6925233  81.7452607  10.8979581  87.9061611  81.4273512
  12.0032941  88.8804383  81.0796498   6.1002848  90.2221034  76.2713286
   6.6510274  90.0938098  75.4990280   5.2614324  90.5215923  75.9208179
  13.4396965  88.9728032  79.7734009  13.4215441  89.7936914  79.2814278
  14.3616885  88.8482108  79.9984150   9.8970019  86.4872162  80.6157517
  10.4298356  85.7260450  80.3856825   9.3684101  86.1945814  81.3581672
  13.0639714  71.5932228  76.1451159  12.7203984  72.4833870  76.0690269
  13.4318677  71.4033886  75.2820744   1.1325565  83.9165758  68.9639761
   1.9700787  84.3262767  68.7473469   1.3103833  82.9765201  68.9339955
  13.0289997  81.5840839  64.6523594  12.5136621  82.3545444  64.8911981
  12.7567306  80.9105975  65.2756655  10.6137108  76.4290540  69.7108832
   9.7578704  76.0397390  69.5314471  11.0264060  76.5082501  68.8508618
  12.1436255  73.9636883  74.1100392  11.6401050  73.9267018  73.2968197
  12.4366862  74.8729626  74.1697049   8.3879141  74.0475613  73.1166574
   9.2532137  73.8518421  72.7572463   8.4556650  73.8185965  74.0435931
  18.0024271  84.3373194  66.5876767  17.2253714  83.9984353  66.1431930
  18.6815752  84.3425817  65.9131732  12.8176300  79.4567931  66.4783375
  12.5126436  79.7714080  67.3293518  13.7706742  79.5349351  66.5210708
  11.2622732  85.6158154  68.1276329  10.7344094  84.8810914  67.8149567
  10.7610235  86.3932831  67.8816297  16.2415578  83.8107175  73.2443375
  15.5839253  84.5006436  73.3323504  17.0455977  84.2003607  73.5877362
   5.9941460  76.2777821  70.4882941   6.5685212  76.0553002  69.7556134
   6.5812442  76.3466515  71.2411542  15.0521037  82.1651548  71.2947317
  15.5652919  82.7981539  71.7969027  15.7022261  81.5652743  70.9290677
   6.3211047  78.3082282  64.5078826   5.4848359  78.6456968  64.8288101
   6.1815817  78.1731262  63.5705963   8.2964127  73.1519070  69.2158010
   7.6428540  72.8368087  68.5914625   8.2544602  72.5294810  69.9417833
   9.4075332  83.4338365  61.1311302   8.5002394  83.2027618  61.3302451
   9.9046364  82.6375984  61.3185284  12.3143411  92.1435872  64.0507988
  11.6405110  92.4467569  64.6592946  12.7009233  92.9464952  63.7013445
  11.5301868  79.6401003  73.5405658  10.6124429  79.8615950  73.3827346
  11.9462011  79.7147314  72.6817365  12.3136916  81.0392419  68.6708338
  13.0608735  81.5513816  68.3615460  12.5828505  80.7176472  69.5312732
  10.5863566  83.5350960  65.6535292   9.6774785  83.2509992  65.7507762
  10.6158650  83.9550038  64.7938599  15.8182833  87.1457549  69.4226460
  15.3645160  86.3048459  69.4791650  15.1876800  87.7818947  69.7601240
  14.7615753  78.0749535  70.6527127  14.0238510  77.5626921  70.9837370
  15.0142526  77.6349917  69.8410404  14.2615772  88.9834046  70.3576278
  14.5538747  89.5439103  69.6388644  14.7714393  89.2762607  71.1129437
  14.8627380  70.8525787  71.2468897  15.1686257  69.9923151  70.9594812
  15.5879985  71.4443407  71.0467890   1.1551736  81.2556474  69.6350494
   0.9576136  80.6625834  68.9101561   0.5998400  80.9508684  70.3526433
   9.1348460  81.1479580  71.7545088   9.1897070  80.1953417  71.6787564
   8.3239662  81.3039019  72.2386386  10.2839654  85.0759703  62.9923371
   9.8459083  84.3595562  62.5329008  11.0250094  85.3035818  62.4308462
   7.0740820  79.7656640  69.5135466   6.2608685  80.0650810  69.9200659
   7.5699814  79.3712329  70.2309949   9.2249398  89.7614397  71.4469731
   9.1825576  89.9875243  70.5178263  10.1412096  89.5277771  71.5955532
  12.6715031  80.2298464  78.3450360  13.0264419  80.4569938  79.2044826
  13.3187163  80.5616841  77.7227616  18.4012768  83.3516900  69.0499689
  18.2630667  83.5418496  68.1220879  18.0448987  84.1136283  69.5067741
   6.5654894  77.3374995  75.1296701   7.2054274  77.1963755  74.4319665
   5.7332425  77.0509509  74.7535303  18.4282148  85.4193427  74.0610961
  18.8618655  85.3268716  74.9094015  19.1413729  85.3950928  73.4230977
   7.3415198  86.6377426  71.2431694   8.1355797  86.1427746  71.0414269
   6.6306891  86.1095289  70.8799399  12.1610043  89.0195521  75.5944061
  12.2147065  89.5886458  76.3621777  11.2924824  89.1897406  75.2298099
   3.6497962  80.7820508  67.3191447   2.7195550  80.7204963  67.5361409
   3.7455434  80.2596460  66.5228088   3.5683511  77.3075320  69.9069688
   3.8290328  78.2220654  69.7978849   4.3900683  76.8399763  70.0566301
   5.0408436  78.7213078  77.0768513   5.7131490  78.5130440  76.4281162
   4.2138223  78.5235164  76.6373745  19.2897698  85.4617128  76.5943846
  19.4833588  86.3662938  76.8403121  19.1898316  85.0024547  77.4282431
  10.9434008  75.3475019  79.0934174  10.2961923  76.0464968  78.9998650
  11.7135024  75.7811162  79.4610422  14.3512806  85.6123871  82.1684727
  14.1998313  85.3834422  81.2514811  14.3417486  86.5694472  82.1816072
  11.1198143  83.1855783  77.1530993  12.0490203  83.3366943  76.9799961
  10.6989173  83.2739804  76.2979640   9.9186474  87.2106448  74.9229531
   9.7797560  86.8425232  75.7955469   9.1301071  87.7254087  74.7513489
  10.5134626  92.3115544  66.2655067  10.6886382  91.8403588  67.0800690
   9.8267414  92.9381311  66.4936328  11.4691690  86.5888051  72.3118369
  11.1341522  86.5488821  73.2076019  10.9695635  85.9232766  71.8388779
   5.4435933  81.9955681  77.8370950   5.3055731  81.2635919  78.4382489
   6.3540857  81.9064581  77.5555138  14.4050881  83.9344085  62.5855428
  13.7880052  83.2090913  62.4888481  13.9367370  84.6953445  62.2422503
   8.0718234  81.7075640  77.3254630   8.7817853  81.0668832  77.2841248
   8.0287542  81.9588535  78.2480810  16.0605013  88.6442993  80.2461209
  16.0017559  87.9602213  79.5791792  16.4624531  89.3861983  79.7941835
   6.7847168  78.6940858  79.1450269   6.2484525  78.2431596  79.7971865
   6.1963877  78.8286767  78.4020733   5.0795712  95.4604907  73.0394928
   5.3192310  96.0923431  73.7173946   4.2364908  95.1092947  73.3260287
   6.1949427  78.1529509  61.7076733   5.3178893  78.0318310  61.3438979
   6.6707180  77.3615587  61.4555621  16.0622420  86.6082577  78.4775188
  15.1749199  86.2708499  78.6001587  16.6320971  85.8765608  78.7143954
   2.5186289  77.8296865  76.2303264   2.4344478  77.2222535  75.4953673
   1.6968996  78.3205884  76.2312760   9.5923574  91.2684030  75.4436432
   9.5193745  92.0739001  75.9555736   9.1500967  91.4675995  74.6184453
   9.3813353  90.5055800  68.9539253   8.5980875  91.0477480  69.0477478
  10.0806098  91.0229779  69.3533494  12.6910003  76.3150429  71.5973459
  13.1878703  75.5620391  71.2774529  11.9196985  76.3514746  71.0316668
  20.5439761  82.0190795  73.2391750  20.5329637  82.9015510  72.8685683
  19.6757140  81.6662345  73.0446287  12.0522257  91.1670864  77.5994590
  12.7650229  91.8018328  77.5270492  11.5612286  91.2634730  76.7834592
  13.7739784  85.0722116  69.1711882  12.8396063  85.1923579  69.0016586
  13.9516452  84.1694583  68.9071892   9.2744972  78.4567812  71.3245143
   8.9042760  77.9038852  72.0126049   9.7704064  77.8525945  70.7720143
  17.1612335  80.9139436  69.7061916  17.6272787  81.7467427  69.6322219
  17.6119836  80.4484417  70.4107175   7.1034171  88.9165307  78.4200161
   7.8043630  89.5501790  78.5729555   6.6329286  89.2580039  77.6595800
  15.2288566  87.2583257  66.7048068  15.5048410  87.1439851  67.6141942
  14.3593065  86.8600742  66.6660241  15.1328998  73.2820023  73.7452817
  14.2192078  73.5124249  73.9135024  15.5622099  73.3658467  74.5966850
  14.9035457  81.4709914  76.2452711  14.2506907  81.7185822  75.5905164
  15.2815836  80.6574053  75.9115189  11.8642630  91.5069608  70.3480882
  12.0465025  90.6891264  70.8108634  12.6875616  91.7237300  69.9105772
  12.1984796  90.4337793  67.6095930  12.7272562  89.9230247  66.9966092
  12.4613015  90.1180323  68.4741463  10.9523030  82.2129726  82.7318749
  10.2763667  82.1123855  83.4021124  11.7750663  82.0568939  83.1954746
   2.7001889  88.4501662  75.3531264   3.2855325  87.7045350  75.4859168
   2.5026727  88.7605619  76.2367928   5.5540544  91.4852909  70.3693706
   4.8850919  91.9699037  69.8857746   5.4153414  91.7322130  71.2837085
   9.6945812  93.5196653  76.9676365  10.2464120  93.6828274  77.7325450
  10.0352006  94.1101091  76.2956389   4.6710306  75.8671803  77.5698249
   4.7351632  76.7286634  77.1575647   4.6077426  75.2545804  76.8370608
   4.1462578  77.9394935  81.2171284   4.7734617  77.5572013  81.8308808
   3.2890497  77.7209137  81.5826976  14.5456687  88.3457910  82.8225019
  15.0896591  88.9587869  82.3279974  13.9643532  88.9037489  83.3392032
  12.8314200  91.4678629  73.9540047  12.7065339  90.6668368  73.4450992
  13.4893291  91.9624822  73.4654017   4.4522368  77.8227361  73.1317187
   3.7308954  78.4363329  72.9924660   5.2415624  78.3585126  73.0533833
  14.8949108  89.2687649  75.5819597  13.9479444  89.1493000  75.5097924
  15.2431881  88.3810147  75.6645858   7.2548681  75.1581788  79.4057839
   7.7783083  75.4044084  80.1684148   7.0361015  75.9901822  78.9860976
   2.6515963  77.4285462  67.2728963   2.3228669  76.5482841  67.0904069
   3.0055333  77.3733131  68.1605353  11.8995541  89.0640365  71.7823949
  11.7520504  88.1357072  71.9631519  12.7249035  89.0860456  71.2981024
   5.7657786  77.7158432  67.6404441   6.1053858  78.2444353  66.9183050
   6.2129906  78.0538838  68.4163008  15.5029663  89.8868924  72.8688822
  16.4276211  89.6811785  72.7313273  15.3344967  89.6385325  73.7778163
   8.4601227  76.0995483  77.0907509   8.1198047  75.3003296  77.4928189
   7.7540233  76.3997193  76.5184342   9.1117698  73.1844795  75.5434832
   9.9343768  72.7105273  75.4213723   9.3555762  73.9635279  76.0433519
   7.7525933  76.2133053  65.8397734   8.4734295  76.5914306  65.3361451
   7.1291237  76.9321930  65.9432712  11.8957056  76.9178202  66.7756066
  12.1120670  77.8002840  66.4744894  11.4151123  76.5264416  66.0461708
   6.6356277  79.8763916  73.3526811   6.4900858  80.1904219  74.2451092
   6.1581481  80.4948816  72.7997710   8.4952660  76.8666464  73.4007700
   8.4814229  75.9707557  73.0639998   9.2125088  76.8737127  74.0345986
  10.3478791  77.3003804  75.4460828  10.0896569  78.2220875  75.4445158
   9.8163831  76.9034238  76.1361292  15.2924979  90.4054591  68.2250913
  15.4661857  89.8401013  67.4724766  15.7853871  91.2055486  68.0430403
   1.1101939  82.4169260  76.2914472   0.5655407  83.1929068  76.4234746
   1.9881289  82.7640065  76.1333593   7.8989556  75.7480844  68.6695271
   8.0205467  74.8197490  68.8686158   7.6091598  75.7619530  67.7573586
  10.7680746  73.4335754  71.8061990  10.7902443  73.4975087  70.8513970
  11.1848805  72.5940263  72.0002497  21.1464371  83.1691014  69.8441213
  21.5895517  82.4198339  69.4460336  20.2690881  83.1601150  69.4614945
  16.2800152  89.7221355  65.3247812  16.9751057  90.3428048  65.5435126
  16.6223302  88.8716707  65.6000189   1.8967961  81.5439156  79.1844629
   1.1549697  81.6921792  79.7709259   1.5760705  81.8047422  78.3211378
  18.1791575  87.1721061  66.8535142  18.7042899  87.5108334  66.1284462
  18.0913928  86.2368076  66.6698277   9.8411624  91.0855135  78.9825019
  10.1498750  90.8404281  79.8547719  10.6387106  91.2901773  78.4943889
   9.8632236  93.2393044  71.2130395   9.4237226  92.7469423  71.9063252
  10.6140353  92.6966012  70.9722471   2.3424575  89.4304585  71.2155024
   3.1682595  89.1308357  70.8353667   1.9918627  88.6612207  71.6644812
   7.3106108  88.7831053  73.2852697   6.6886117  88.1201758  72.9854925
   7.9810975  88.8092185  72.6026345   7.3830635  77.2612841  82.8785203
   7.4318791  78.1374964  82.4962973   7.9253150  76.7190234  82.3056846
  17.8685481  87.8053965  82.1586340  17.0781025  87.7878103  81.6190840
  17.6318836  88.3442258  82.9135377  17.9883356  84.6546431  79.4719069
  18.0381361  84.4896438  80.4134592  17.8797280  83.7873690  79.0816950
   6.8719615  87.3334977  66.7611158   7.0207735  88.0170441  66.1077830
   7.6786058  87.3140067  67.2760613  15.2787119  80.6377359  80.7878375
  16.1796981  80.4983824  80.4962373  15.3535093  80.8031814  81.7276553
   9.6129924  78.0144214  79.6331562   8.7433233  78.3077780  79.3614150
   9.8489404  78.5984659  80.3538825  19.4901553  87.0743372  79.7161090
  19.1986361  87.4373353  80.5524551  18.8773684  86.3610381  79.5374422
  20.6897235  84.6396252  72.2363661  21.5244127  85.0786056  72.4001221
  20.8256364  84.1634905  71.4171906  17.7388741  82.1975987  78.1841148
  18.2142863  82.3903633  77.3760000  16.8154307  82.2535173  77.9384532
   4.6272248  83.3600154  67.7672227   4.3818290  82.4562484  67.9652437
   4.7968162  83.3617305  66.8251705  12.3168958  74.2323831  77.1496982
  12.8350902  74.9684858  76.8243471  11.9624090  74.5387824  77.9843741
   3.8967895  79.0928512  65.2658388   3.2037140  79.1672867  64.6098424
   3.6519647  78.3288855  65.7879905  12.5681552  70.6524113  72.6697879
  12.8483306  69.9847302  73.2958305  13.3532159  70.8453209  72.1572543
  10.3715020  89.8283107  64.2322905   9.7988987  90.4473294  63.7793377
  10.9447814  90.3782469  64.7662827  16.4390410  79.0741747  76.4169454
  17.3907833  79.1739845  76.4381678  16.2693861  78.2820016  76.9267538
  14.4604790  76.1597330  76.6028855  13.8654722  76.4402343  75.9075343
  14.1754486  76.6491231  77.3745596  13.5912280  90.1120257  65.3631487
  14.5242953  90.0465819  65.5664363  13.5035493  90.9476524  64.9046020
  16.2200297  89.4286128  62.3235435  16.1413928  89.0945991  63.2171193
  17.0409964  89.9207895  62.3226907  18.9178488  82.2947867  75.5311754
  18.8854808  81.3563868  75.7171437  19.5279112  82.3731904  74.7977578
  10.7561819  81.1643920  61.5738958  11.7020924  81.0350128  61.6427376
  10.3776064  80.4258582  62.0508386  19.0672977  79.0858910  75.5770037
  18.5512025  78.3017367  75.3899966  19.9512925  78.7577627  75.7416556
  16.7283703  72.8299926  71.5365849  16.5308525  72.5215014  72.4209181
  17.3383409  73.5561565  71.6663779  24.7355038  83.3563874  74.6717790
  25.4658426  83.0949162  75.2325494  24.1261983  82.6192596  74.7119858
  22.8170335  81.4971736  75.2692242  22.0903499  81.3627701  74.6608733
  22.4017622  81.8048565  76.0748960  10.6400511  85.2161666  83.0339615
  11.5603521  85.3940265  83.2279661  10.6050094  84.2717711  82.8819314
   8.9404736  79.0893896  61.5093843   8.0336191  78.7927009  61.5856556
   9.2180717  78.7923714  60.6428129   3.6362584  83.1262701  75.6762396
   3.8548594  84.0579808  75.6950430   4.0488358  82.7670675  76.4617200
  10.5566802  73.6330786  67.6638084   9.7467530  73.2877871  68.0393330
  11.2451219  73.3238330  68.2525696  12.4857350  72.7108833  69.2862381
  13.0388389  73.1304286  69.9452404  12.7227436  71.7844581  69.3285337
   8.5090449  78.6995906  85.0665145   8.4087176  79.6490263  84.9977236
   8.2911991  78.3714145  84.1941215   7.7103521  75.9480831  61.6505822
   8.5722685  76.2735730  61.9101639   7.8953865  75.1612327  61.1378888
  15.8636157  74.8209358  68.7941045  15.2834826  75.4794162  68.4119097
  15.5972090  73.9986702  68.3828463  14.3139724  74.2214416  70.9962365
  14.8139502  74.3330950  70.1876684  14.9575331  73.9175468  71.6363174
   8.3721719  82.1293045  83.8830206   7.8888801  82.9293405  84.0894095
   8.4582658  82.1400990  82.9297650   1.6407679  83.9621425  71.8052026
   1.6178367  84.0609112  70.8533909   1.9508315  84.8086576  72.1269192
   4.2995057  86.0197580  75.9198640   5.2538310  85.9881522  75.8528572
   4.1007580  85.5588204  76.7348866   4.8894439  84.5898696  78.4869438
   5.7087328  85.0842775  78.5104275   5.1631247  83.6730664  78.4587005
  14.6461035  76.9809448  67.8497393  13.7586890  77.2659099  67.6317588
  15.0615024  76.8203212  67.0024670  17.9975571  77.0055969  71.5651733
  18.7735961  77.4952422  71.8376349  17.2723705  77.4314023  72.0223602
  20.4348130  77.7183588  72.6225673  21.0292621  77.4779324  71.9118981
  20.5074714  76.9990719  73.2499209   2.6545286  91.5617199  72.9368838
   2.5199754  90.8017600  72.3706836   2.2377348  92.2858099  72.4697627
  13.7904249  86.7454123  61.9445413  14.4940099  86.9504125  62.5603069
  13.0666897  87.3130885  62.2094497  14.6202059  82.4963984  68.0647683
  14.5637260  82.9532536  67.2255316  15.1730401  81.7354669  67.8870526
  18.4306865  78.2853716  68.8897803  18.1743799  77.8850352  69.7206011
  17.8059733  78.9997510  68.7647942  22.7419203  81.0249789  71.3969094
  22.1818761  81.0942979  72.1700656  22.1362706  80.8490774  70.6768591
   5.8114411  92.4586516  73.1487281   5.6946796  93.4031949  73.0465971
   4.9906858  92.1560078  73.5373080  15.6990946  87.1836652  63.9943873
  16.5336550  86.7517851  63.8121348  15.5375289  87.0118666  64.9220768
  15.3536838  83.6868765  65.3600213  15.2985642  83.5213037  64.4188657
  14.7282893  84.3944798  65.5162402  12.6682745  85.9917677  84.6853775
  13.5373905  86.1658330  84.3240410  12.1889497  86.8112094  84.5629505
   8.6632964  73.1876874  64.9385531   8.6511633  74.1318714  65.0953802
   9.5556386  73.0047020  64.6444992   6.8368926  93.1114778  76.3643209
   7.7396172  93.1438389  76.6809704   6.6106296  92.1815229  76.3789545
   8.5922528  91.8645765  73.0253288   7.6418159  91.8647626  72.9117660
   8.8955014  91.1178499  72.5089322  12.4785083  69.7819651  69.1931468
  11.7117479  69.2278138  69.3388150  12.8895788  69.8541520  70.0545619
   4.4826844  76.0704447  83.2836649   5.3458306  75.7141252  83.4939974
   3.9092255  75.7318342  83.9712053  24.3275221  97.7006303  74.0899050
  24.9653631  97.5813051  73.3862390  24.2096064  98.6487147  74.1487002
  21.1364927  97.6533731  74.0260575  20.7983439  97.5374796  73.1381110
  22.0054696  97.2524896  74.0061581  16.9951743  99.5069208  70.0157466
  16.4316608  99.4159145  69.2473753  16.8804138  98.6869112  70.4959958
  21.6184710  98.8068583  79.9846780  21.6073351  98.4121381  79.1127284
  21.7805350  98.0734656  80.5780552  14.5416175 101.0020399  72.8541686
  15.3337467 100.6611224  72.4387985  14.7812825 101.1115374  73.7743839
  22.5751302 103.1740175  65.3271931  21.9239282 103.7594256  64.9405944
  23.3695665 103.7046370  65.3866968  16.5006929 100.2629313  65.7259065
  17.2737805  99.7158300  65.5871941  16.8532328 101.1273562  65.9373526
  18.3391972 101.5905695  78.9325964  18.0481838 102.4951326  78.8172631
  18.9748956 101.6322223  79.6470034  19.2648178  98.9682543  75.5227324
  19.8611751  98.7438566  74.8084287  19.3223150  98.2267289  76.1252772
  18.8373207  96.4221979  63.3577515  19.0898727  95.9003500  62.5960978
  17.8997766  96.2588124  63.4604198  23.8816490  95.4257757  71.1652258
  24.6679579  95.0077180  70.8142675  24.1455194  96.3303849  71.3333906
  24.0526567 100.8630607  65.8640915  23.4172400 100.9365234  66.5761820
  23.7223973 101.4524206  65.1859994  29.2824917  95.3632990  72.0685237
  30.0150089  94.7932207  72.3023066  28.5264272  94.9754591  72.5091742
  18.5569496  98.3250085  65.5601890  18.4405754  97.6494988  66.2282974
  18.6671755  97.8382459  64.7434043  20.9001036  97.7860232  69.2648579
  20.5359244  97.2590853  69.9761501  21.7568152  97.3958701  69.0915064
  26.8050337  89.0754564  76.5279845  26.4733662  89.9449975  76.3041060
  26.2095950  88.7590848  77.2073876  20.5406523  92.8150132  64.2609928
  20.7080926  93.6830368  64.6280399  20.3503693  92.9777413  63.3371217
  23.2981857 101.2767110  75.9275758  22.9982580 102.1792149  75.8191565
  22.9532916 101.0099294  76.7796911  16.7494338  97.7280907  71.9612462
  15.8244835  97.5957121  72.1690154  16.9978751  98.5075126  72.4582405
  26.6979000  93.7949651  73.6073195  25.7895878  93.7265059  73.3131956
  26.6466596  94.2721596  74.4355021  20.5195744  95.2707789  65.2456594
  20.3995370  95.7164840  66.0842075  19.8248333  95.6193107  64.6870133
  14.1103149  97.3714181  72.7956251  14.2395530  97.6248660  73.7095663
  13.4300600  97.9641889  72.4760907  20.7719866  95.2139296  81.5508093
  19.9953200  95.7733216  81.5410957  21.4110429  95.6996079  82.0722963
  28.5640647  91.9966089  75.3851069  27.9215027  92.2898622  74.7390864
  28.0595575  91.8819009  76.1904266  26.2180810  95.7429262  66.0736928
  27.1298667  95.9756649  65.8984626  25.7090458  96.3266306  65.5112007
  19.0266238  98.0224750  81.1126060  19.7680923  98.5609794  80.8360883
  18.3203224  98.6491038  81.2697611  24.5021578 100.1653890  79.7098221
  24.9104934  99.7236301  78.9652853  23.7798840  99.5906518  79.9632414
  20.8552648  95.1026497  77.0831778  21.7013843  95.5265910  77.2266427
  20.7951286  94.4460121  77.7770341  24.8250393 100.7255081  73.4650510
  24.1959255 100.8900795  72.7626578  24.4376055 101.1396690  74.2361474
  28.7039625 101.6609518  70.8194874  28.0190663 102.0408420  70.2691907
  28.7883474 102.2704845  71.5526821  24.0052094  92.7630865  78.7412952
  23.7613025  93.5172926  78.2047227  24.2812024  93.1416213  79.5760199
  25.9590556  99.3069478  77.4190217  26.1707452  99.9501237  76.7424598
  25.9120305  98.4731794  76.9512147  23.5616785  91.9187298  74.3226789
  22.7001264  92.2168552  74.6143527  23.5879220  92.1357697  73.3907822
  20.3778355 100.4629489  70.7300595  20.8416700 100.7417192  69.9405218
  20.1135153  99.5612933  70.5473686  17.2702436 100.0100970  73.6680358
  17.8403793 100.4388239  73.0297843  17.8610548  99.7283555  74.3664544
  19.3147241  96.5852641  67.5390160  20.0171284  97.0373685  68.0064087
  18.9827869  95.9436460  68.1670053  17.7627602  95.1764398  81.9141370
  17.1326263  95.8580679  82.1476766  17.6563690  95.0647479  80.9694508
  13.0572575  94.8436194  72.8407294  12.2671629  95.0993722  72.3647404
  13.5483822  95.6584532  72.9459334  27.0736384 102.1841433  75.5912575
  27.8953828 101.7821620  75.3095256  27.0698787 102.0809667  76.5428690
  15.0087320  95.2080773  69.7990770  14.2118483  95.3199467  70.3174266
  14.7812912  95.5467425  68.9331661  20.8392988 101.7325476  77.7473285
  20.9037420 102.1945883  78.5831457  20.1303912 101.1022841  77.8755595
  11.3410278  95.0966684  75.2722285  11.5918316  95.9813694  75.5379860
  11.8769826  94.9171286  74.4997376  35.1642377  98.5280181  71.9397546
  34.4106086  97.9587579  71.7841550  35.2989918  98.4942846  72.8868181
  20.5541005 103.3993584  67.6152265  20.4186680 104.2445119  68.0437113
  21.0950818 103.6012861  66.8518199  17.0408345  89.4785164  84.2766621
  16.6475291  88.9251362  84.9514265  17.8574485  89.7895742  84.6673138
  14.0070403 100.9169022  68.1880190  14.5194923 101.7112272  68.3385755
  14.6593116 100.2195312  68.1213792  15.8165287 104.0334778  70.2702944
  15.9931916 104.9552743  70.0823928  16.6122121 103.7193197  70.6997323
  19.9576306  90.8943043  81.8686877  20.6986019  91.4950196  81.7891340
  20.1894229  90.1520680  81.3104920  15.1017644  96.0799410  80.1465107
  14.9871159  95.1784667  80.4472206  14.2462162  96.3263107  79.7949923
  22.1809482 104.0217150  81.7452607  21.7373336 103.2353529  81.4273512
  22.8426695 104.2096301  81.0796498  16.9396603 105.5512952  76.2713286
  17.4904028 105.4230015  75.4990280  16.1008079 105.8507841  75.9208179
  24.2790720 104.3019950  79.7734009  24.2609195 105.1228831  79.2814278
  25.2010640 104.1774025  79.9984150  20.7363774 101.8164080  80.6157517
  21.2692111 101.0552368  80.3856825  20.2077855 101.5237731  81.3581672
  23.9033469  86.9224146  76.1451159  23.5597738  87.8125787  76.0690269
  24.2712431  86.7325803  75.2820744  11.9719320  99.2457676  68.9639761
  12.8094542  99.6554684  68.7473469  12.1497587  98.3057118  68.9339955
  23.8683752  96.9132757  64.6523594  23.3530375  97.6837361  64.8911981
  23.5961060  96.2397893  65.2756655  21.4530863  91.7582457  69.7108832
  20.5972459  91.3689308  69.5314471  21.8657814  91.8374418  68.8508618
  22.9830009  89.2928801  74.1100392  22.4794805  89.2558936  73.2968197
  23.2760616  90.2021543  74.1697049  19.2272895  89.3767530  73.1166574
  20.0925892  89.1810339  72.7572463  19.2950404  89.1477882  74.0435931
  28.8418026  99.6665111  66.5876767  28.0647469  99.3276271  66.1431930
  29.5209507  99.6717735  65.9131732  23.6570055  94.7859849  66.4783375
  23.3520190  95.1005998  67.3293518  24.6100497  94.8641269  66.5210708
  22.1016487 100.9450072  68.1276329  21.5737848 100.2102832  67.8149567
  21.6003989 101.7224748  67.8816297  27.0809333  99.1399093  73.2443375
  26.4233007  99.8298354  73.3323504  27.8849732  99.5295525  73.5877362
  16.8335214  91.6069738  70.4882941  17.4078966  91.3844920  69.7556134
  17.4206197  91.6758433  71.2411542  25.8914791  97.4943465  71.2947317
  26.4046673  98.1273457  71.7969027  26.5416015  96.8944661  70.9290677
  17.1604801  93.6374199  64.5078826  16.3242114  93.9748886  64.8288101
  17.0209571  93.5023179  63.5705963  19.1357882  88.4810987  69.2158010
  18.4822294  88.1660004  68.5914625  19.0938356  87.8586728  69.9417833
  20.2469087  98.7630282  61.1311302  19.3396149  98.5319536  61.3302451
  20.7440119  97.9667902  61.3185284  23.1537166 107.4727790  64.0507988
  22.4798864 107.7759486  64.6592946  23.5402988 108.2756870  63.7013445
  22.3695622  94.9692921  73.5405658  21.4518184  95.1907868  73.3827346
  22.7855766  95.0439231  72.6817365  23.1530670  96.3684337  68.6708338
  23.9002489  96.8805734  68.3615460  23.4222260  96.0468389  69.5312732
  21.4257320  98.8642877  65.6535292  20.5168540  98.5801910  65.7507762
  21.4552404  99.2841956  64.7938599  26.6576588 102.4749467  69.4226460
  26.2038915 101.6340377  69.4791650  26.0270554 103.1110865  69.7601240
  25.6009507  93.4041453  70.6527127  24.8632264  92.8918839  70.9837370
  25.8536281  92.9641834  69.8410404  25.1009527 104.3125963  70.3576278
  25.3932501 104.8731021  69.6388644  25.6108147 104.6054524  71.1129437
  25.7021135  86.1817705  71.2468897  26.0080011  85.3215068  70.9594812
  26.4273739  86.7735325  71.0467890  11.9945491  96.5848391  69.6350494
  11.7969890  95.9917752  68.9101561  11.4392155  96.2800602  70.3526433
  19.9742214  96.4771498  71.7545088  20.0290824  95.5245334  71.6787564
  19.1633416  96.6330937  72.2386386  21.1233408 100.4051621  62.9923371
  20.6852838  99.6887480  62.5329008  21.8643849 100.6327736  62.4308462
  17.9134574  95.0948558  69.5135466  17.1002440  95.3942728  69.9200659
  18.4093568  94.7004246  70.2309949  20.0643152 105.0906315  71.4469731
  20.0219331 105.3167161  70.5178263  20.9805851 104.8569689  71.5955532
  23.5108786  95.5590382  78.3450360  23.8658174  95.7861855  79.2044826
  24.1580917  95.8908759  77.7227616  29.2406523  98.6808818  69.0499689
  29.1024421  98.8710414  68.1220879  28.8842742  99.4428201  69.5067741
  17.4048649  92.6666913  75.1296701  18.0448028  92.5255672  74.4319665
  16.5726180  92.3801427  74.7535303  29.2675902 100.7485345  74.0610961
  29.7012409 100.6560634  74.9094015  29.9807483 100.7242845  73.4230977
  18.1808953 101.9669344  71.2431694  18.9749551 101.4719664  71.0414269
  17.4700645 101.4387207  70.8799399  23.0003797 104.3487439  75.5944061
  23.0540820 104.9178375  76.3621777  22.1318579 104.5189324  75.2298099
  14.4891716  96.1112425  67.3191447  13.5589304  96.0496881  67.5361409
  14.5849188  95.5888378  66.5228088  14.4077265  92.6367238  69.9069688
  14.6684083  93.5512571  69.7978849  15.2294438  92.1691681  70.0566301
  15.8802191  94.0504995  77.0768513  16.5525244  93.8422357  76.4281162
  15.0531977  93.8527081  76.6373745  30.1291452 100.7909046  76.5943846
  30.3227342 101.6954856  76.8403121  30.0292070 100.3316465  77.4282431
  21.7827763  90.6766936  79.0934174  21.1355678  91.3756886  78.9998650
  22.5528778  91.1103080  79.4610422  25.1906561 100.9415788  82.1684727
  25.0392067 100.7126340  81.2514811  25.1811240 101.8986390  82.1816072
  21.9591897  98.5147701  77.1530993  22.8883957  98.6658861  76.9799961
  21.5382927  98.6031722  76.2979640  20.7580229 102.5398366  74.9229531
  20.6191315 102.1717150  75.7955469  19.9694825 103.0546005  74.7513489
  21.3528381 107.6407462  66.2655067  21.5280137 107.1695505  67.0800690
  20.6661169 108.2673228  66.4936328  22.3085444 101.9179968  72.3118369
  21.9735277 101.8780738  73.2076019  21.8089390 101.2524684  71.8388779
  16.2829688  97.3247598  77.8370950  16.1449486  96.5927837  78.4382489
  17.1934611  97.2356498  77.5555138  25.2444636  99.2636003  62.5855428
  24.6273806  98.5382831  62.4888481  24.7761124 100.0245363  62.2422503
  18.9111989  97.0367558  77.3254630  19.6211607  96.3960750  77.2841248
  18.8681297  97.2880452  78.2480810  26.8998767 103.9734911  80.2461209
  26.8411313 103.2894131  79.5791792  27.3018286 104.7153901  79.7941835
  17.6240923  94.0232775  79.1450269  17.0878280  93.5723514  79.7971865
  17.0357631  94.1578684  78.4020733  17.0343182  93.4821427  61.7076733
  16.1572648  93.3610228  61.3438979  17.5100935  92.6907505  61.4555621
  26.9016175 101.9374495  78.4775188  26.0142953 101.6000417  78.6001587
  27.4714726 101.2057526  78.7143954   8.5545322  98.2698587  71.8018240
   9.2416362  97.9560317  71.2139255   8.3993450  99.1739951  71.5285491
  13.3580044  93.1588783  76.2303264  13.2738233  92.5514453  75.4953673
  12.5362750  93.6497801  76.2312760  20.4317328 106.5975947  75.4436432
  20.3587499 107.4030919  75.9555736  19.9894721 106.7967913  74.6184453
  20.2207108 105.8347717  68.9539253  19.4374630 106.3769397  69.0477478
  20.9199853 106.3521697  69.3533494  23.5303758  91.6442347  71.5973459
  24.0272457  90.8912309  71.2774529  22.7590739  91.6806663  71.0316668
  31.3833515  97.3482712  73.2391750  31.3723391  98.2307428  72.8685683
  30.5150895  96.9954263  73.0446287  22.8916012 106.4962781  77.5994590
  23.6043984 107.1310246  77.5270492  22.4006040 106.5926647  76.7834592
  24.6133538 100.4014034  69.1711882  23.6789817 100.5215496  69.0016586
  24.7910207  99.4986501  68.9071892  20.1138726  93.7859730  71.3245143
  19.7436514  93.2330770  72.0126049  20.6097819  93.1817863  70.7720143
  28.0006090  96.2431353  69.7061916  28.4666542  97.0759345  69.6322219
  28.4513590  95.7776335  70.4107175  17.9427925 104.2457225  78.4200161
  18.6437385 104.8793708  78.5729555  17.4723040 104.5871956  77.6595800
  26.0682321 102.5875174  66.7048068  26.3442165 102.4731769  67.6141942
  25.1986820 102.1892659  66.6660241  25.9722753  88.6111940  73.7452817
  25.0585832  88.8416167  73.9135024  26.4015854  88.6950384  74.5966850
  25.7429211  96.8001832  76.2452711  25.0900661  97.0477740  75.5905164
  26.1209591  95.9865970  75.9115189  22.7036385 106.8361525  70.3480882
  22.8858779 106.0183181  70.8108634  23.5269371 107.0529218  69.9105772
  23.0378550 105.7629710  67.6095930  23.5666317 105.2522165  66.9966092
  23.3006770 105.4472241  68.4741463  21.7916784  97.5421643  82.7318749
  21.1157421  97.4415773  83.4021124  22.6144418  97.3860857  83.1954746
  13.5395643 103.7793580  75.3531264  14.1249080 103.0337268  75.4859168
  13.3420482 104.0897536  76.2367928   8.1313298  96.3499180  74.0735707
   8.1697397  95.8162771  74.8672825   7.6253591  95.8234385  73.4546684
  15.5104060  91.1963720  77.5698249  15.5745387  92.0578551  77.1575647
  15.4471180  90.5837722  76.8370608  14.9856333  93.2686853  81.2171284
  15.6128371  92.8863930  81.8308808  14.1284252  93.0501055  81.5826976
  25.3850441 103.6749828  82.8225019  25.9290345 104.2879786  82.3279974
  24.8037286 104.2329407  83.3392032  11.7621875  95.0763282  67.1489638
  12.0575317  94.1673961  67.0956692  10.8609911  95.0551022  66.8270641
  23.6707954 106.7970546  73.9540047  23.5459094 105.9960286  73.4450992
  24.3287045 107.2916740  73.4654017  15.2916122  93.1519279  73.1317187
  14.5702708  93.7655246  72.9924660  16.0809378  93.6877044  73.0533833
  25.7342863 104.5979566  75.5819597  24.7873198 104.4784917  75.5097924
  26.0825636 103.7102064  75.6645858  18.0942436  90.4873705  79.4057839
  18.6176838  90.7336002  80.1684148  17.8754769  91.3193740  78.9860976
  13.4909717  92.7577380  67.2728963  13.1622423  91.8774759  67.0904069
  13.8449088  92.7025048  68.1605353  22.7389296 104.3932282  71.7823949
  22.5914258 103.4648990  71.9631519  23.5642789 104.4152373  71.2981024
  16.6051540  93.0450350  67.6404441  16.9447613  93.5736271  66.9183050
  17.0523661  93.3830756  68.4163008  26.3423418 105.2160841  72.8688822
  27.2669965 105.0103703  72.7313273  26.1738721 104.9677242  73.7778163
  19.2994981  91.4287400  77.0907509  18.9591801  90.6295213  77.4928189
  18.5933987  91.7289111  76.5184342  19.9511453  88.5136713  75.5434832
  20.7737522  88.0397191  75.4213723  20.1949516  89.2927196  76.0433519
  18.5919687  91.5424971  65.8397734  19.3128050  91.9206224  65.3361451
  17.9684991  92.2613848  65.9432712  22.7350810  92.2470120  66.7756066
  22.9514425  93.1294758  66.4744894  22.2544877  91.8556334  66.0461708
  17.4750032  95.2055833  73.3526811  17.3294612  95.5196136  74.2451092
  16.9975235  95.8240734  72.7997710  19.3346414  92.1958381  73.4007700
  19.3207983  91.2999475  73.0639998  20.0518843  92.2029045  74.0345986
  21.1872545  92.6295722  75.4460828  20.9290323  93.5512792  75.4445158
  20.6557586  92.2326156  76.1361292  26.1318734 105.7346509  68.2250913
  26.3055611 105.1692931  67.4724766  26.6247625 106.5347404  68.0430403
  11.9495694  97.7461178  76.2914472  11.4049162  98.5220986  76.4234746
  12.8275044  98.0931982  76.1333593  18.7383310  91.0772762  68.6695271
  18.8599222  90.1489408  68.8686158  18.4485353  91.0911448  67.7573586
  21.6074501  88.7627672  71.8061990  21.6296198  88.8267005  70.8513970
  22.0242560  87.9232181  72.0002497  31.9858125  98.4982932  69.8441213
  32.4289271  97.7490257  69.4460336  31.1084635  98.4893068  69.4614945
  27.1193906 105.0513273  65.3247812  27.8144811 105.6719966  65.5435126
  27.4617057 104.2008624  65.6000189  12.7361716  96.8731074  79.1844629
  11.9943452  97.0213709  79.7709259  12.4154460  97.1339340  78.3211378
  29.0185330 102.5012979  66.8535142  29.5436654 102.8400251  66.1284462
  28.9307682 101.5659994  66.6698277  20.6805378 106.4147052  78.9825019
  20.9892505 106.1696199  79.8547719  21.4780860 106.6193691  78.4943889
  13.1818329 104.7596503  71.2155024  14.0076349 104.4600275  70.8353667
  12.8312381 103.9904125  71.6644812  18.1499862 104.1122971  73.2852697
  17.5279872 103.4493676  72.9854925  18.8204729 104.1384103  72.6026345
  11.3826934 102.6782829  72.1743957  10.5458843 102.2505004  71.9927958
  11.3550580 102.8715273  73.1114748  18.2224390  92.5904759  82.8785203
  18.2712545  93.4666882  82.4962973  18.7646904  92.0482152  82.3056846
  28.7079236 103.1345882  82.1586340  27.9174779 103.1170021  81.6190840
  28.4712590 103.6734176  82.9135377  28.8277111  99.9838349  79.4719069
  28.8775116  99.8188356  80.4134592  28.7191034  99.1165608  79.0816950
  17.7113369 102.6626894  66.7611158  17.8601490 103.3462359  66.1077830
  18.5179813 102.6431984  67.2760613  26.1180873  95.9669277  80.7878375
  27.0190736  95.8275741  80.4962373  26.1928848  96.1323731  81.7276553
  20.4523678  93.3436131  79.6331562  19.5826988  93.6369697  79.3614150
  20.6883159  93.9276576  80.3538825  30.3295307 102.4035290  79.7161090
  30.0380116 102.7665271  80.5524551  29.7167439 101.6902298  79.5374422
  31.5290990  99.9688170  72.2363661  32.3637881 100.4077974  72.4001221
  31.6650119  99.4926823  71.4171906  28.5782496  97.5267905  78.1841148
  29.0536617  97.7195551  77.3760000  27.6548061  97.5827091  77.9384532
  15.4666002  98.6892072  67.7672227  15.2212044  97.7854402  67.9652437
  15.6361917  98.6909222  66.8251705  23.1562712  89.5615748  77.1496982
  23.6744656  90.2976775  76.8243471  22.8017845  89.8679742  77.9843741
  14.7361650  94.4220430  65.2658388  14.0430895  94.4964785  64.6098424
  14.4913402  93.6580773  65.7879905  23.4075306  85.9816031  72.6697879
  23.6877060  85.3139220  73.2958305  24.1925913  86.1745126  72.1572543
  21.2108775 105.1575025  64.2322905  20.6382742 105.7765212  63.7793377
  21.7841569 105.7074386  64.7662827  27.2784165  94.4033665  76.4169454
  28.2301588  94.5031763  76.4381678  27.1087615  93.6111933  76.9267538
  25.2998544  91.4889248  76.6028855  24.7048476  91.7694261  75.9075343
  25.0148241  91.9783149  77.3745596  24.4306035 105.4412175  65.3631487
  25.3636708 105.3757737  65.5664363  24.3429247 106.2768442  64.9046020
  27.0594051 104.7578045  62.3235435  26.9807683 104.4237909  63.2171193
  27.8803718 105.2499813  62.3226907  29.7572243  97.6239785  75.5311754
  29.7248563  96.6855785  75.7171437  30.3672866  97.7023821  74.7977578
  21.5955573  96.4935838  61.5738958  22.5414678  96.3642046  61.6427376
  21.2169818  95.7550499  62.0508386  29.9066731  94.4150828  75.5770037
  29.3905780  93.6309285  75.3899966  30.7906680  94.0869545  75.7416556
  27.5677458  88.1591844  71.5365849  27.3702279  87.8506932  72.4209181
  28.1777163  88.8853482  71.6663779  35.5748792  98.6855791  74.6717790
  36.3052181  98.4241080  75.2325494  34.9655738  97.9484513  74.7119858
  33.6564089  96.8263654  75.2692242  32.9297253  96.6919619  74.6608733
  33.2411376  97.1340483  76.0748960  21.4794266 100.5453584  83.0339615
  22.3997275 100.7232183  83.2279661  21.4443849  99.6009629  82.8819314
  19.7798491  94.4185814  61.5093843  18.8729946  94.1218927  61.5856556
  20.0574472  94.1215632  60.6428129  10.6976431  95.7392177  71.9592889
  10.3779215  94.8857485  71.6667263  10.1509859  95.9540755  72.7150857
  14.4756338  98.4554618  75.6762396  14.6942348  99.3871726  75.6950430
  14.8882112  98.0962593  76.4617200  21.3960556  88.9622704  67.6638084
  20.5861285  88.6169789  68.0393330  22.0844973  88.6530247  68.2525696
  23.3251105  88.0400750  69.2862381  23.8782143  88.4596204  69.9452404
  23.5621191  87.1136499  69.3285337  19.3484204  94.0287824  85.0665145
  19.2480931  94.9782181  84.9977236  19.1305746  93.7006063  84.1941215
  18.5497275  91.2772749  61.6505822  19.4116439  91.6027647  61.9101639
  18.7347619  90.4904245  61.1378888  10.5664691  99.3595089  73.9286011
   9.8728162  98.9449042  73.4155965  11.3137682  99.4015625  73.3319430
  26.7029912  90.1501276  68.7941045  26.1228581  90.8086080  68.4119097
  26.4365844  89.3278620  68.3828463  25.1533478  89.5506333  70.9962365
  25.6533256  89.6622868  70.1876684  25.7969086  89.2467386  71.6363174
  19.2115474  97.4584963  83.8830206  18.7282556  98.2585323  84.0894095
  19.2976413  97.4692908  82.9297650  12.4801433  99.2913343  71.8052026
  12.4572122  99.3901030  70.8533909  12.7902070 100.1378493  72.1269192
  15.1388811 101.3489498  75.9198640  16.0932065 101.3173440  75.8528572
  14.9401335 100.8880121  76.7348866  15.7288193  99.9190614  78.4869438
  16.5481082 100.4134692  78.5104275  16.0025001  99.0022582  78.4587005
  25.4854790  92.3101366  67.8497393  24.5980645  92.5951017  67.6317588
  25.9008779  92.1495129  67.0024670  28.8369326  92.3347887  71.5651733
  29.6129716  92.8244339  71.8376349  28.1117460  92.7605941  72.0223602
  31.2741884  93.0475506  72.6225673  31.8686375  92.8071242  71.9118981
  31.3468468  92.3282637  73.2499209  24.6298003 102.0746041  61.9445413
  25.3333853 102.2796043  62.5603069  23.9060652 102.6422803  62.2094497
  25.4595813  97.8255902  68.0647683  25.4031015  98.2824453  67.2255316
  26.0124156  97.0646586  67.8870526  29.2700619  93.6145634  68.8897803
  29.0137554  93.2142269  69.7206011  28.6453487  94.3289428  68.7647942
  33.5812957  96.3541707  71.3969094  33.0212515  96.4234896  72.1700656
  32.9756461  96.1782692  70.6768591  26.5384701 102.5128570  63.9943873
  27.3730304 102.0809768  63.8121348  26.3769043 102.3410584  64.9220768
  26.1930593  99.0160683  65.3600213  26.1379396  98.8504955  64.4188657
  25.5676648  99.7236716  65.5162402  10.9823108  94.2528748  79.1861635
  11.6281971  93.7427701  79.6748860  10.7740259  94.9897429  79.7605060
  23.5076500 101.3209595  84.6853775  24.3767660 101.4950247  84.3240410
  23.0283251 102.1404012  84.5629505  19.5026718  88.5168792  64.9385531
  19.4905388  89.4610632  65.0953802  20.3950140  88.3338938  64.6444992
  19.4316282 107.1937683  73.0253288  18.4811913 107.1939544  72.9117660
  19.7348768 106.4470417  72.5089322  23.3178838  85.1111569  69.1931468
  22.5511233  84.5570055  69.3388150  23.7289543  85.1833438  70.0545619
  15.3220599  91.3996365  83.2836649  16.1852060  91.0433169  83.4939974
  14.7486009  91.0610259  83.9712053  34.7210244 110.7549675  71.1652258
  35.5073333 110.3369098  70.8142675  34.9848948 111.6595767  71.3333906
  40.1218671 110.6924908  72.0685237  40.8543843 110.1224125  72.3023066
  39.3658027 110.3046508  72.5091742  37.6444092 104.4046482  76.5279845
  37.3127416 105.2741893  76.3041060  37.0489705 104.0882766  77.2073876
  31.3800278 108.1442049  64.2609928  31.5474680 109.0122286  64.6280399
  31.1897447 108.3069331  63.3371217  37.5372755 109.1241568  73.6073195
  36.6289632 109.0556977  73.3131956  37.4860351 109.6013513  74.4355021
  31.3589499 110.5999707  65.2456594  31.2389124 111.0456757  66.0842075
  30.6642087 110.9485024  64.6870133  31.6113621 110.5431214  81.5508093
  30.8346955 111.1025134  81.5410957  32.2504184 111.0287997  82.0722963
  39.4034401 107.3258007  75.3851069  38.7608782 107.6190540  74.7390864
  38.8989330 107.2110927  76.1904266  37.0574565 111.0721180  66.0736928
  37.9692421 111.3048567  65.8984626  36.5484212 111.6558224  65.5112007
  31.6946403 110.4318414  77.0831778  32.5407598 110.8557828  77.2266427
  31.6345040 109.7752039  77.7770341  34.8445848 108.0922783  78.7412952
  34.6006780 108.8464843  78.2047227  35.1205779 108.4708130  79.5760199
  34.4010540 107.2479216  74.3226789  33.5395019 107.5460469  74.6143527
  34.4272974 107.4649615  73.3907822  46.0036132 113.8572099  71.9397546
  45.2499840 113.2879497  71.7841550  46.1383673 113.8234764  72.8868181
  27.8802099 104.8077081  84.2766621  27.4869045 104.2543280  84.9514265
  28.6968240 105.1187660  84.6673138  30.7970060 106.2234960  81.8686877
  31.5379774 106.8242113  81.7891340  31.0287983 105.4812598  81.3104920
  34.7427223 102.2516063  76.1451159  34.3991493 103.1417705  76.0690269
  35.1106186 102.0617721  75.2820744  34.7077506 112.2424674  64.6523594
  34.1924130 113.0129279  64.8911981  34.4354815 111.5689811  65.2756655
  32.2924617 107.0874375  69.7108832  31.4366213 106.6981226  69.5314471
  32.7051569 107.1666336  68.8508618  33.8223764 104.6220718  74.1100392
  33.3188559 104.5850854  73.2968197  34.1154371 105.5313461  74.1697049
  30.0666650 104.7059448  73.1166574  30.9319646 104.5102257  72.7572463
  30.1344159 104.4769800  74.0435931  39.6811780 114.9957029  66.5876767
  38.9041223 114.6568189  66.1431930  40.3603261 115.0009652  65.9131732
  34.4963809 110.1151766  66.4783375  34.1913945 110.4297916  67.3293518
  35.4494251 110.1933186  66.5210708  27.6728969 106.9361656  70.4882941
  28.2472721 106.7136838  69.7556134  28.2599951 107.0050351  71.2411542
  36.7308546 112.8235383  71.2947317  37.2440428 113.4565375  71.7969027
  37.3809770 112.2236578  70.9290677  27.9998556 108.9666117  64.5078826
  27.1635868 109.3040804  64.8288101  27.8603325 108.8315097  63.5705963
  29.9751636 103.8102905  69.2158010  29.3216049 103.4951922  68.5914625
  29.9332111 103.1878645  69.9417833  33.2089377 110.2984839  73.5405658
  32.2911938 110.5199786  73.3827346  33.6249520 110.3731149  72.6817365
  33.9924425 111.6976254  68.6708338  34.7396244 112.2097651  68.3615460
  34.2616014 111.3760307  69.5312732  36.4403262 108.7333370  70.6527127
  35.7026019 108.2210757  70.9837370  36.6930035 108.2933752  69.8410404
  36.5414889 101.5109622  71.2468897  36.8473766 100.6506986  70.9594812
  37.2667494 102.1027243  71.0467890  28.7528329 110.4240475  69.5135466
  27.9396194 110.7234646  69.9200659  29.2487323 110.0296164  70.2309949
  34.3502540 110.8882300  78.3450360  34.7051928 111.1153773  79.2044826
  34.9974672 111.2200677  77.7227616  40.0800277 114.0100736  69.0499689
  39.9418176 114.2002332  68.1220879  39.7236496 114.7720118  69.5067741
  28.2442403 107.9958831  75.1296701  28.8841783 107.8547590  74.4319665
  27.4119934 107.7093344  74.7535303  25.2471020 107.9659156  69.9069688
  25.5077837 108.8804489  69.7978849  26.0688192 107.4983598  70.0566301
  26.7195945 109.3796913  77.0768513  27.3918999 109.1714275  76.4281162
  25.8925732 109.1818999  76.6373745  32.6221517 106.0058854  79.0934174
  31.9749432 106.7048804  78.9998650  33.3922533 106.4394998  79.4610422
  28.4634677 109.3524693  79.1450269  27.9272034 108.9015432  79.7971865
  27.8751386 109.4870602  78.4020733  27.8736936 108.8113345  61.7076733
  26.9966402 108.6902145  61.3438979  28.3494689 108.0199423  61.4555621
  24.1973798 108.4880701  76.2303264  24.1131987 107.8806370  75.4953673
  23.3756505 108.9789719  76.2312760  34.3697512 106.9734264  71.5973459
  34.8666212 106.2204227  71.2774529  33.5984494 107.0098581  71.0316668
  42.2227270 112.6774630  73.2391750  42.2117146 113.5599345  72.8685683
  41.3544649 112.3246181  73.0446287  30.9532481 109.1151647  71.3245143
  30.5830268 108.5622688  72.0126049  31.4491573 108.5109781  70.7720143
  38.8399844 111.5723271  69.7061916  39.3060296 112.4051262  69.6322219
  39.2907345 111.1068252  70.4107175  36.8116507 103.9403858  73.7452817
  35.8979587 104.1708085  73.9135024  37.2409608 104.0242302  74.5966850
  36.5822966 112.1293750  76.2452711  35.9294416 112.3769657  75.5905164
  36.9603345 111.3157888  75.9115189  26.3497815 106.5255638  77.5698249
  26.4139141 107.3870469  77.1575647  26.2864935 105.9129640  76.8370608
  25.8250087 108.5978771  81.2171284  26.4522126 108.2155848  81.8308808
  24.9678006 108.3792973  81.5826976  26.1309877 108.4811196  73.1317187
  25.4096463 109.0947164  72.9924660  26.9203133 109.0168961  73.0533833
  28.9336190 105.8165623  79.4057839  29.4570592 106.0627919  80.1684148
  28.7148524 106.6485658  78.9860976  24.3303472 108.0869297  67.2728963
  24.0016178 107.2066676  67.0904069  24.6842842 108.0316966  68.1605353
  27.4445295 108.3742267  67.6404441  27.7841367 108.9028188  66.9183050
  27.8917415 108.7122673  68.4163008  30.1388735 106.7579318  77.0907509
  29.7985556 105.9587131  77.4928189  29.4327742 107.0581029  76.5184342
  30.7905207 103.8428630  75.5434832  31.6131277 103.3689109  75.4213723
  31.0343271 104.6219114  76.0433519  29.4313442 106.8716889  65.8397734
  30.1521804 107.2498142  65.3361451  28.8078746 107.5905766  65.9432712
  33.5744565 107.5762038  66.7756066  33.7908179 108.4586676  66.4744894
  33.0938632 107.1848251  66.0461708  30.1740169 107.5250299  73.4007700
  30.1601738 106.6291392  73.0639998  30.8912597 107.5320963  74.0345986
  32.0266300 107.9587639  75.4460828  31.7684077 108.8804710  75.4445158
  31.4951340 107.5618074  76.1361292  29.5777065 106.4064679  68.6695271
  29.6992976 105.4781325  68.8686158  29.2879107 106.4203365  67.7573586
  32.4468255 104.0919590  71.8061990  32.4689952 104.1558923  70.8513970
  32.8636314 103.2524098  72.0002497  42.8251880 113.8274849  69.8441213
  43.2683026 113.0782174  69.4460336  41.9478390 113.8184986  69.4614945
  29.0618144 107.9196677  82.8785203  29.1106300 108.7958799  82.4962973
  29.6040659 107.3774070  82.3056846  36.9574628 111.2961194  80.7878375
  37.8584490 111.1567659  80.4962373  37.0322602 111.4615649  81.7276553
  31.2917433 108.6728049  79.6331562  30.4220742 108.9661615  79.3614150
  31.5276913 109.2568494  80.3538825  42.3684744 115.2980088  72.2363661
  43.2031636 115.7369892  72.4001221  42.5043873 114.8218741  71.4171906
  39.4176250 112.8559822  78.1841148  39.8930372 113.0487469  77.3760000
  38.4941816 112.9119008  77.9384532  33.9956467 104.8907666  77.1496982
  34.5138411 105.6268693  76.8243471  33.6411599 105.1971659  77.9843741
  25.5755404 109.7512347  65.2658388  24.8824649 109.8256702  64.6098424
  25.3307156 108.9872691  65.7879905  34.2469061 101.3107949  72.6697879
  34.5270815 100.6431138  73.2958305  35.0319668 101.5037044  72.1572543
  38.1177919 109.7325583  76.4169454  39.0695342 109.8323680  76.4381678
  37.9481370 108.9403851  76.9267538  36.1392299 106.8181166  76.6028855
  35.5442231 107.0986178  75.9075343  35.8541995 107.3075067  77.3745596
  40.5965997 112.9531702  75.5311754  40.5642317 112.0147703  75.7171437
  41.2066621 113.0315739  74.7977578  32.4349328 111.8227755  61.5738958
  33.3808433 111.6933963  61.6427376  32.0563573 111.0842417  62.0508386
  40.7460485 109.7442746  75.5770037  40.2299534 108.9601202  75.3899966
  41.6300434 109.4161462  75.7416556  38.4071212 103.4883761  71.5365849
  38.2096034 103.1798849  72.4209181  39.0170918 104.2145400  71.6663779
  46.4142547 114.0147709  74.6717790  47.1445935 113.7532997  75.2325494
  45.8049492 113.2776431  74.7119858  44.4957844 112.1555572  75.2692242
  43.7691008 112.0211537  74.6608733  44.0805131 112.4632400  76.0748960
  30.6192245 109.7477732  61.5093843  29.7123700 109.4510844  61.5856556
  30.8968226 109.4507550  60.6428129  32.2354311 104.2914621  67.6638084
  31.4255039 103.9461706  68.0393330  32.9238728 103.9822165  68.2525696
  34.1644859 103.3692668  69.2862381  34.7175898 103.7888122  69.9452404
  34.4014945 102.4428416  69.3285337  30.1877958 109.3579742  85.0665145
  30.0874685 110.3074099  84.9977236  29.9699500 109.0297981  84.1941215
  29.3891030 106.6064667  61.6505822  30.2510194 106.9319565  61.9101639
  29.5741374 105.8196163  61.1378888  37.5423666 105.4793193  68.7941045
  36.9622335 106.1377997  68.4119097  37.2759599 104.6570538  68.3828463
  35.9927232 104.8798251  70.9962365  36.4927011 104.9914785  70.1876684
  36.6362840 104.5759304  71.6363174  36.3248544 107.6393284  67.8497393
  35.4374399 107.9242934  67.6317588  36.7402533 107.4787047  67.0024670
  39.6763080 107.6639805  71.5651733  40.4523470 108.1536257  71.8376349
  38.9511214 108.0897859  72.0223602  42.1135639 108.3767424  72.6225673
  42.7080130 108.1363160  71.9118981  42.1862223 107.6574554  73.2499209
  36.2989568 113.1547820  68.0647683  36.2424769 113.6116371  67.2255316
  36.8517910 112.3938504  67.8870526  40.1094374 108.9437551  68.8897803
  39.8531308 108.5434187  69.7206011  39.4847242 109.6581345  68.7647942
  44.4206712 111.6833625  71.3969094  43.8606270 111.7526814  72.1700656
  43.8150215 111.5074609  70.6768591  30.3420473 103.8460710  64.9385531
  30.3299142 104.7902550  65.0953802  31.2343895 103.6630855  64.6444992
  34.1572592 100.4403486  69.1931468  33.3904988  99.8861973  69.3388150
  34.5683297 100.5125355  70.0545619  26.1614353 106.7288282  83.2836649
  27.0245815 106.3725087  83.4939974  25.5879764 106.3902177  83.9712053
  47.3808644 116.8401540  71.2468897  47.6867520 115.9798904  70.9594812
  48.1061248 117.4319160  71.0467890  45.0862815 116.6399866  72.6697879
  45.3664569 115.9723055  73.2958305  45.8713422 116.8328962  72.1572543
  44.9966347 115.7695404  69.1931468  44.2298742 115.2153891  69.3388150
  45.4077052 115.8417273  70.0545619   2.6461115  29.5466551  58.6642853
   1.8924823  28.9773949  58.5086857   2.7808656  29.5129215  59.6113487
   3.0567530  29.7042161  61.3963097   3.7870919  29.4427449  61.9570800
   2.4474476  28.9670883  61.4365165   1.1382827  27.8450024  61.9937548
   0.4115991  27.7105988  61.3854040   0.7230114  28.1526852  62.7994266
   1.0631695  27.3728077  58.1214401   0.5031253  27.4421266  58.8945963
   0.4575198  27.1969061  57.4013897   2.6487713  44.0484591  60.8144357
   3.2866123  43.9291338  60.1107697   2.5308556  44.9965434  60.8732309
   2.2028982  41.7736044  57.8897565   2.9892071  41.3555468  57.5387982
   2.4667686  42.6782137  58.0579213   2.3739059  47.2108895  52.5886222
   1.7384892  47.2843521  53.3007126   2.0436466  47.8002493  51.9105301
   7.6037409  41.7111278  58.7930543   8.3362581  41.1410494  59.0268373
   6.8476765  41.3232878  59.2337049   5.1262829  35.4232852  63.2525152
   4.7946154  36.2928263  63.0286367   4.5308443  35.1069136  63.9319182
   1.6194349  47.6245398  62.6521065   1.3195072  48.5270436  62.5436872
   1.2745408  47.3577581  63.5042217   5.0191493  40.1427938  60.3318502
   4.1108370  40.0743346  60.0377263   4.9679088  40.6199883  61.1600327
   6.8853139  38.3444376  62.1096376   6.2427519  38.6376909  61.4636170
   6.3808068  38.2297297  62.9149572   4.5393303  42.0907549  52.7982235
   5.4511159  42.3234936  52.6229933   4.0302950  42.6744594  52.2357314
   2.8234070  46.5132177  66.4343528   3.2317426  46.0714588  65.6898160
   2.1011332  45.9384805  66.6877721   3.1462885  47.0733368  60.1895817
   2.5171747  47.2379082  59.4871884   2.7588547  47.4874977  60.9606781
   7.0252117  48.0087806  57.5440180   6.3403155  48.3886707  56.9937214
   7.1095966  48.6183132  58.2772128   2.3264586  39.1109152  65.4658258
   2.0825518  39.8651213  64.9292534   2.6024516  39.4894500  66.3005505
   4.2803049  45.6547765  64.1435524   4.4919944  46.2979525  63.4669905
   4.2332797  44.8210081  63.6757454   1.8829278  38.2665585  61.0472096
   1.0213757  38.5646839  61.3388834   1.9091712  38.4835984  60.1153129
   5.3948877  48.5319720  62.3157881   6.2166320  48.1299907  62.0340563
   5.3911279  48.4287954  63.2673997  13.4854870  44.8758469  58.6642853
  12.7318578  44.3065867  58.5086857  13.6202411  44.8421133  59.6113487
   2.6003212  50.6498237  66.4979315   2.5821687  51.4707118  66.0059585
   3.5223132  50.5252313  66.7229457   2.2245961  33.2702433  62.8696465
   1.8810231  34.1604075  62.7935576   2.5924924  33.0804090  62.0066050
   2.1896244  43.2611044  51.3768901   1.6742867  44.0315649  51.6157288
   1.9173552  42.5876180  52.0001962   1.3042502  35.6407088  60.8345699
   0.8007297  35.6037223  60.0213504   1.5973108  36.5499831  60.8942355
   7.1630518  46.0143399  53.3122074   6.3859961  45.6754558  52.8677236
   7.8421999  46.0196022  52.6377039   1.9782547  41.1338136  53.2028682
   1.6732683  41.4484285  54.0538825   2.9312989  41.2119556  53.2456015
   5.4021825  45.4877380  59.9688682   4.7445499  46.1776641  60.0568811
   6.2062224  45.8773812  60.3122668   4.2127284  43.8421753  58.0192624
   4.7259165  44.4751744  58.5214334   4.8628508  43.2422948  57.6535984
   1.4749658  53.8206077  50.7753295   0.8011357  54.1237774  51.3838253
   1.8615480  54.6235157  50.4258752   1.4743162  42.7162624  55.3953645
   2.2214981  43.2284021  55.0860767   1.7434752  42.3946676  56.2558038
   4.9789080  48.8227754  56.1471766   4.5251407  47.9818664  56.2036957
   4.3483047  49.4589152  56.4846547   3.9222000  39.7519740  57.3772434
   3.1844756  39.2397126  57.7082676   4.1748773  39.3120122  56.5655711
   3.4222019  50.6604251  57.0821585   3.7144994  51.2209308  56.3633950
   3.9320640  50.9532812  57.8374744   4.0233627  32.5295992  57.9714203
   4.3292504  31.6693355  57.6840118   4.7486232  33.1213612  57.7713197
   1.8321278  41.9068669  65.0695667   2.1870666  42.1340142  65.9290133
   2.4793409  42.2387046  64.4472922   7.5619015  45.0287105  55.7744996
   7.4236914  45.2188701  54.8466185   7.2055234  45.7906488  56.2313047
   7.5888395  47.0963632  60.7856268   8.0224901  47.0038921  61.6339322
   8.3019975  47.0721133  60.1476284   1.3216290  50.6965726  62.3189368
   1.3753312  51.2656663  63.0867084   0.4531071  50.8667611  61.9543405
   8.4503944  47.1387333  63.3189153   8.6439834  48.0433143  63.5648428
   8.3504562  46.6794752  64.1527738   3.5119053  47.2894076  68.8930034
   3.3604559  47.0604627  67.9760117   3.5023732  48.2464677  68.9061379
   3.5657128  45.6114290  49.3100735   2.9486299  44.8861118  49.2133788
   3.0973616  46.3723650  48.9667809   5.2211260  50.3213198  66.9706515
   5.1623806  49.6372418  66.3037098   5.6230778  51.0632188  66.5187141
   5.2228667  48.2852782  65.2020495   4.3355446  47.9478704  65.3246894
   5.7927218  47.5535813  65.4389260   1.8516250  37.9920634  58.3218765
   2.3484950  37.2390596  58.0019835   1.0803232  38.0284951  57.7561975
   9.7046007  43.6960999  59.9637057   9.6935884  44.5785715  59.5930990
   8.8363387  43.3432550  59.7691594   1.2128504  52.8441068  64.3239897
   1.9256476  53.4788533  64.2515798   0.7218532  52.9404934  63.5079899
   2.9346031  46.7492321  55.8957189   2.0002309  46.8693784  55.7261893
   3.1122699  45.8464788  55.6317198   6.3218582  42.5909640  56.4307223
   6.7879034  43.4237632  56.3567525   6.7726083  42.1254622  57.1352481
   4.3894813  48.9353462  53.4293375   4.6654657  48.8210056  54.3387249
   3.5199312  48.5370947  53.3905548   4.2935245  34.9590227  60.4698124
   3.3798325  35.1894454  60.6380331   4.7228346  35.0428671  61.3212156
   4.0641703  43.1480119  62.9698018   3.4113154  43.3956027  62.3150471
   4.4422083  42.3344258  62.6360495   1.0248877  53.1839813  57.0726188
   1.2071272  52.3661468  57.5353941   1.8481863  53.4007505  56.6351078
   1.3591043  52.1107998  54.3341237   1.8878809  51.6000452  53.7211399
   1.6219262  51.7950528  55.1986770   3.7062934  50.0228115  69.5470326
   4.2502837  50.6358074  69.0525280   3.1249778  50.5807694  70.0637339
   1.9920446  53.1448833  60.6785353   1.8671586  52.3438573  60.1696299
   2.6499538  53.6395027  60.1899323   4.0555355  50.9457854  62.3064903
   3.1085690  50.8263205  62.2343230   4.4038128  50.0580352  62.3891165
   1.0601788  50.7410570  58.5069256   0.9126751  49.8127277  58.6876826
   1.8855282  50.7630660  58.0226331   4.6635910  51.5639128  59.5934128
   5.5882457  51.3581990  59.4558580   4.4951213  51.3155530  60.5023470
   1.0563302  38.5948407  53.5001373   1.2726917  39.4773045  53.1990201
   0.5757370  38.2034621  52.7707015   4.4531226  52.0824796  54.9496220
   4.6268104  51.5171218  54.1970072   4.9460117  52.8825691  54.7675710
  10.3070617  44.8461219  56.5686520  10.7501763  44.0968544  56.1705643
   9.4297128  44.8371355  56.1860252   5.4406399  51.3991560  52.0493118
   6.1357303  52.0198253  52.2680433   5.7829549  50.5486912  52.3245496
   7.3397822  48.8491266  53.5780449   7.8649146  49.1878539  52.8529769
   7.2520174  47.9138281  53.3943584   7.0291728  49.4824169  68.8831647
   6.2387272  49.4648308  68.3436146   6.7925082  50.0212463  69.6380683
   7.1489603  46.3316636  66.1964375   7.1987608  46.1666643  67.1379898
   7.0403526  45.4643895  65.8062256   4.4393365  42.3147564  67.5123682
   5.3403228  42.1754029  67.2207680   4.5141340  42.4802019  68.4521860
   8.6507800  48.7513577  66.4406397   8.3592608  49.1143558  67.2769858
   8.0379931  48.0380586  66.2619729   9.8503482  46.3166457  58.9608967
  10.6850373  46.7556261  59.1246528   9.9862611  45.8405110  58.1417213
   6.8994988  43.8746192  64.9086455   7.3749110  44.0673838  64.1005306
   5.9760553  43.9305378  64.6629839   1.4775204  35.9094036  63.8742289
   1.9957148  36.6455062  63.5488777   1.1230337  36.2158029  64.7089048
   1.7287799  32.3294318  59.3943185   2.0089552  31.6617507  60.0203612
   2.5138406  32.5223414  58.8817849   5.5996657  40.7511952  63.1414761
   6.5514080  40.8510050  63.1626985   5.4300107  39.9590221  63.6512845
   3.6211036  37.8367535  63.3274161   3.0260969  38.1172548  62.6320650
   3.3360733  38.3261436  64.0990903   2.7518527  51.7890462  52.0876794
   3.6849200  51.7236024  52.2909670   2.6641740  52.6246729  51.6291327
   5.3806544  51.1056332  49.0480742   5.3020175  50.7716196  49.9416499
   6.2016210  51.5978100  49.0472214   8.0784735  43.9718072  62.2557060
   8.0461055  43.0334073  62.4416744   8.6885358  44.0502108  61.5222885
   8.2279223  40.7629115  62.3015343   7.7118272  39.9787572  62.1145272
   9.1119172  40.4347832  62.4661863   5.8889950  34.5070131  58.2611156
   5.6914771  34.1985219  59.1454488   6.4989656  35.2331770  58.3909086
  13.8961285  45.0334079  61.3963097  14.6264673  44.7719367  61.9570800
  13.2868230  44.2962801  61.4365165  11.9776582  43.1741941  61.9937548
  11.2509745  43.0397906  61.3854040  11.5623869  43.4818770  62.7994266
   1.6463597  34.3879038  56.0107687   2.1994635  34.8074491  56.6697710
   1.8833683  33.4614786  56.0530643   5.0242404  36.4979563  55.5186352
   4.4441073  37.1564367  55.1364404   4.7578337  35.6756907  55.1073769
   3.4745970  35.8984621  57.7207672   3.9745749  36.0101155  56.9121991
   4.1181578  35.5945673  58.3608480   3.8067282  38.6579653  54.5742700
   2.9193137  38.9429304  54.3562895   4.2221271  38.4973417  53.7269977
   7.1581818  38.6826174  58.2897039   7.9342208  39.1722627  58.5621656
   6.4329952  39.1084228  58.7468909   9.5954377  39.3953793  59.3470980
  10.1898867  39.1549529  58.6364288   9.6680960  38.6760924  59.9744516
   2.9510495  48.4224328  48.6690720   3.6546346  48.6274330  49.2848376
   2.2273144  48.9901090  48.9339803   3.7808306  44.1734189  54.7892990
   3.7243507  44.6302741  53.9500622   4.3336648  43.4124874  54.6115833
   7.5913112  39.9623921  55.6143110   7.3350046  39.5620557  56.4451317
   6.9665980  40.6767715  55.4893249  11.9025449  42.7019994  58.1214401
  11.3425007  42.7713184  58.8945963  11.2968953  42.5260979  57.4013897
   4.8597193  48.8606857  50.7189180   5.6942797  48.4288056  50.5366655
   4.6981536  48.6888871  51.6466074   4.5143085  45.3638970  52.0845519
   4.4591889  45.1983242  51.1433963   3.8889140  46.0715003  52.2407709
   1.8288992  47.6687882  71.4099082   2.6980152  47.8428535  71.0485717
   1.3495744  48.4882299  71.2874811   1.6391330  31.4589856  55.9176774
   0.8723726  30.9048343  56.0633457   2.0502035  31.5311725  56.7790926
  13.4881468  59.3776508  60.8144357  14.1259878  59.2583256  60.1107697
  13.3702311  60.3257352  60.8732309  10.2971174  59.3303936  60.7505881
   9.9589686  59.2145001  59.8626416  11.1660942  58.9295101  60.7306888
   6.1557990  61.1839413  56.7402772   5.5922855  61.0929350  55.9719060
   6.0410385  60.3639317  57.2205265  10.7790957  60.4838788  66.7092087
  10.7679598  60.0891586  65.8372591  10.9411597  59.7504861  67.3025858
   3.7022422  62.6790604  59.5786993   4.4943714  62.3381429  59.1633292
   3.9419072  62.7885579  60.4989146  11.7357549  64.8510380  52.0517237
  11.0845528  65.4364461  51.6651251  12.5301911  65.3816575  52.1112275
   5.6613176  61.9399518  52.4504372   6.4344052  61.3928505  52.3117247
   6.0138575  62.8043767  52.6618833   7.4998218  63.2675900  65.6571271
   7.2088084  64.1721531  65.5417937   8.1355203  63.3092427  66.3715340
   8.4254425  60.6452748  62.2472631   9.0217997  60.4208771  61.5329593
   8.4829397  59.9037494  62.8498078   7.9979454  58.0992184  50.0822822
   8.2504974  57.5773705  49.3206285   7.0604013  57.9358329  50.1849505
  13.0422736  57.1027962  57.8897565  13.8285826  56.6847385  57.5387982
  13.3061441  58.0074054  58.0579213  13.2132814  62.5400812  52.5886222
  12.5778647  62.6135439  53.3007126  12.8830220  63.1294411  51.9105301
  18.4431164  57.0403195  58.7930543  19.1756335  56.4702412  59.0268373
  17.6870519  56.6524796  59.2337049   7.7175742  60.0020290  52.2847196
   7.6012000  59.3265193  52.9528281   7.8278002  59.5152664  51.4679350
  10.0607283  59.4630437  55.9893886   9.6965490  58.9361058  56.7006807
  10.9174399  59.0728906  55.8160371  15.9656584  50.7524769  63.2525152
  15.6339909  51.6220180  63.0286367  15.3702197  50.4361053  63.9319182
   9.7012770  54.4920336  50.9855234   9.8687173  55.3600573  51.3525705
   9.5109939  54.6547618  50.0616523  12.4588103  62.9537315  62.6521065
  12.1588826  63.8562354  62.5436872  12.1139163  62.6869499  63.5042217
   5.9100585  59.4051112  58.6857769   4.9851081  59.2727326  58.8935461
   6.1584998  60.1845331  59.1827711  15.8585247  55.4719856  60.3318502
  14.9502125  55.4035264  60.0377263  15.8072843  55.9491800  61.1600327
   9.6801991  56.9477994  51.9701901   9.5601616  57.3935045  52.8087381
   8.9854579  57.2963312  51.4115439   3.2709396  59.0484386  59.5201558
   3.4001777  59.3018865  60.4340970   2.5906847  59.6412094  59.2006213
   7.4408883  69.7181636  55.6192032   7.3632913  70.6689461  55.6980513
   6.8370527  69.3727508  56.2766959   9.9326113  56.8909501  68.2753399
   9.1559447  57.4503421  68.2656264  10.5716676  57.3766284  68.7968269
  17.7246894  53.6736294  62.1096376  17.0821274  53.9668827  61.4636170
  17.2201822  53.5589214  62.9149572  15.3787057  57.4199467  52.7982235
  16.2904913  57.6526854  52.6229933  14.8696704  58.0036511  52.2357314
   8.1872485  59.6994954  67.8371366   8.9287170  60.2379998  67.5606190
   7.4809471  60.3261243  67.9942918  13.6627825  61.8424095  66.4343528
  14.0711181  61.4006505  65.6898160  12.9405086  61.2676722  66.6877721
  10.0158895  56.7796702  63.8077085  10.8620090  57.2036115  63.9511734
   9.9557533  56.1230326  64.5015648  13.9856640  62.4025286  60.1895817
  13.3565502  62.5671000  59.4871884  13.5982302  62.8166895  60.9606781
  17.8645871  63.3379723  57.5440180  17.1796910  63.7178625  56.9937214
  17.9489721  63.9475050  58.2772128  13.1658340  54.4401070  65.4658258
  12.9219272  55.1943131  64.9292534  13.4418271  54.8186418  66.3005505
  15.1196803  60.9839682  64.1435524  15.3313698  61.6271442  63.4669905
  15.0726551  60.1501999  63.6757454  12.7223032  53.5957503  61.0472096
  11.8607511  53.8938757  61.3388834  12.7485467  53.8127902  60.1153129
   9.5384601  62.1399694  57.4545902  10.0022947  62.4187397  56.6650524
   9.2741400  61.2383138  57.2718992   6.4308682  61.6871175  60.3925665
   7.0010040  62.1158444  59.7543149   7.0216794  61.4053760  61.0909851
   8.4753487  58.2622846  54.2635467   9.1777531  58.7143890  54.7309393
   8.1434116  57.6206665  54.8915360   6.9233849  56.8534603  68.6386676
   6.2932510  57.5350884  68.8722073   6.8169937  56.7417684  67.6939814
   2.2178821  56.5206399  59.5652600   1.4277875  56.7763927  59.0892711
   2.7090069  57.3354737  59.6704641  16.2342631  63.8611638  62.3157881
  17.0560075  63.4591825  62.0340563  16.2305034  63.7579872  63.2673997
   4.1693567  56.8850978  56.5236077   3.3724730  56.9969672  57.0419573
   3.9419159  57.2237630  55.6576968   9.9999234  63.4095681  64.4718592
  10.0643667  63.8716088  65.3076764   9.2910158  62.7793046  64.6000902
   0.5016524  56.7736889  61.9967591   0.7524563  57.6583899  62.2625167
   1.0376073  56.5941491  61.2242683  24.3248624  60.2050386  58.6642853
  23.5712332  59.6357784  58.5086857  24.4596165  60.1713051  59.6113487
   9.7147252  65.0763789  54.3397572   9.5792927  65.9215324  54.7682420
  10.2557065  65.2783066  53.5763506   6.2014592  51.1555368  71.0011927
   5.8081537  50.6021567  71.6759571   7.0180732  51.4665947  71.3918445
   3.1676649  62.5939227  54.9125497   3.6801170  63.3882477  55.0631062
   3.8199362  61.8965517  54.8459099   4.9771534  65.7104983  56.9948250
   5.1538163  66.6322948  56.8069234   5.7728368  65.3963402  57.4242630
   9.1182553  52.5713248  68.5932184   9.8592266  53.1720401  68.5136646
   9.3500476  51.8290885  68.0350226   4.2623891  57.7569615  66.8710413
   4.1477406  56.8554872  67.1717512   3.4068408  58.0033312  66.5195230
  11.3415728  65.6987355  68.4697914  10.8979583  64.9123734  68.1518819
  12.0032942  65.8866506  67.8041805   6.1002850  67.2283157  62.9958593
   6.6510275  67.1000220  62.2235587   5.2614326  67.5278046  62.6453485
  13.4396967  65.9790155  66.4979315  13.4215442  66.7999036  66.0059585
  14.3616887  65.8544230  66.7229457   9.8970021  63.4934285  67.3402824
  10.4298357  62.7322573  67.1102132   9.3684102  63.2007936  68.0826978
  13.0639716  48.5994351  62.8696465  12.7203985  49.4895992  62.7935576
  13.4318678  48.4096008  62.0066050   1.1325566  60.9227881  55.6885068
   1.9700788  61.3324889  55.4718775   1.3103834  59.9827323  55.6585262
  13.0289998  58.5902962  51.3768901  12.5136622  59.3607566  51.6157288
  12.7567307  57.9168098  52.0001962  10.6137109  53.4352662  56.4354139
   9.7578706  53.0459513  56.2559778  11.0264061  53.5144623  55.5753924
  12.1436256  50.9699006  60.8345699  11.6401052  50.9329141  60.0213504
  12.4366863  51.8791748  60.8942355   8.3879142  51.0537735  59.8411880
   9.2532139  50.8580544  59.4817770   8.4556651  50.8248087  60.7681237
  18.0024273  61.3435316  53.3122074  17.2253715  61.0046476  52.8677236
  18.6815753  61.3487939  52.6377039  12.8176302  56.4630054  53.2028682
  12.5126437  56.7776203  54.0538825  13.7706744  56.5411474  53.2456015
  11.2622733  62.6220277  54.8521636  10.7344095  61.8873037  54.5394873
  10.7610236  63.3994953  54.6061604  16.2415579  60.8169298  59.9688682
  15.5839254  61.5068559  60.0568811  17.0455979  61.2065729  60.3122668
   5.9941461  53.2839943  57.2128247   6.5685213  53.0615125  56.4801440
   6.5812443  53.3528638  57.9656849  15.0521038  59.1713670  58.0192624
  15.5652920  59.8043662  58.5214334  15.7022262  58.5714866  57.6535984
   6.3211048  55.3144404  51.2324133   5.4848360  55.6519091  51.5533407
   6.1815818  55.1793384  50.2951270   8.2964129  50.1581192  55.9403317
   7.6428541  49.8430209  55.3159931   8.2544603  49.5356933  56.6663140
   9.4075334  60.4400487  47.8556609   8.5002395  60.2089741  48.0547758
   9.9046366  59.6438107  48.0430590  12.3143412  69.1497994  50.7753295
  11.6405111  69.4529691  51.3838253  12.7009234  69.9527075  50.4258752
  11.5301869  56.6463126  60.2650964  10.6124430  56.8678073  60.1072652
  11.9462013  56.7209436  59.4062672  12.3136917  58.0454541  55.3953645
  13.0608736  58.5575939  55.0860767  12.5828506  57.7238594  56.2558038
  10.5863567  60.5413082  52.3780599   9.6774786  60.2572115  52.4753069
  10.6158651  60.9612161  51.5183906  15.8182834  64.1519672  56.1471766
  15.3645162  63.3110582  56.2036957  15.1876801  64.7881070  56.4846547
  14.7615754  55.0811658  57.3772434  14.0238511  54.5689044  57.7082676
  15.0142528  54.6412039  56.5655711  14.2615774  65.9896168  57.0821585
  14.5538748  66.5501225  56.3633950  14.7714394  66.2824729  57.8374744
  14.8627381  47.8587910  57.9714203  15.1686258  46.9985273  57.6840118
  15.5879986  48.4505530  57.7713197   1.1551737  58.2618596  56.3595801
   0.9576137  57.6687957  55.6346868   0.5998401  57.9570806  57.0771740
   9.1348461  58.1541703  58.4790394   9.1897071  57.2015539  58.4032871
   8.3239663  58.3101142  58.9631693  10.2839655  62.0821826  49.7168677
   9.8459085  61.3657685  49.2574315  11.0250096  62.3097941  49.1553769
   7.0740821  56.7718763  56.2380773   6.2608687  57.0712933  56.6445965
   7.5699815  56.3774451  56.9555255   9.2249399  66.7676519  58.1715038
   9.1825578  66.9937366  57.2423570  10.1412098  66.5339894  58.3200839
  12.6715033  57.2360587  65.0695667  13.0264420  57.4632060  65.9290133
  13.3187164  57.5678964  64.4472922  18.4012770  60.3579023  55.7744996
  18.2630668  60.5480619  54.8466185  18.0448988  61.1198406  56.2313047
   6.5654896  54.3437118  61.8542008   7.2054275  54.2025877  61.1564971
   5.7332426  54.0571631  61.4780610  18.4282149  62.4255550  60.7856268
  18.8618656  62.3330839  61.6339322  19.1413730  62.4013050  60.1476284
   7.3415200  63.6439548  57.9677001   8.1355798  63.1489869  57.7659575
   6.6306892  63.1157412  57.6044706  12.1610044  66.0257644  62.3189368
  12.2147066  66.5948580  63.0867084  11.2924825  66.1959529  61.9543405
   3.6497963  57.7882630  54.0436753   2.7195551  57.7267086  54.2606715
   3.7455435  57.2658583  53.2473394   3.5683512  54.3137443  56.6314995
   3.8290329  55.2282776  56.5224155   4.3900684  53.8461886  56.7811608
   5.0408437  55.7275200  63.8013819   5.7131491  55.5192562  63.1526468
   4.2138224  55.5297286  63.3619052  19.2897699  62.4679251  63.3189153
  19.4833589  63.3725061  63.5648428  19.1898317  62.0086670  64.1527738
  10.9434010  52.3537141  65.8179480  10.2961925  53.0527091  65.7243957
  11.7135025  52.7873285  66.1855728  14.3512807  62.6185993  68.8930034
  14.1998314  62.3896545  67.9760117  14.3417487  63.5756595  68.9061379
  11.1198144  60.1917906  63.8776300  12.0490204  60.3429066  63.7045267
  10.6989174  60.2801927  63.0224946   9.9186476  64.2168570  61.6474838
   9.7797561  63.8487355  62.5200776   9.1301072  64.7316210  61.4758795
  10.5134628  69.3177667  52.9900374  10.6886383  68.8465710  53.8045997
   9.8267416  69.9443433  53.2181635  11.4691691  63.5950173  59.0363675
  11.1341523  63.5550943  59.9321325  10.9695636  62.9294889  58.5634086
   5.4435935  59.0017803  64.5616257   5.3055733  58.2698042  65.1627796
   6.3540858  58.9126703  64.2800444  14.4050882  60.9406207  49.3100735
  13.7880053  60.2153036  49.2133788  13.9367371  61.7015568  48.9667809
   8.0718235  58.7137762  64.0499936   8.7817854  58.0730955  64.0086555
   8.0287544  58.9650657  64.9726117  16.0605014  65.6505116  66.9706515
  16.0017560  64.9664336  66.3037098  16.4624532  66.3924106  66.5187141
   6.7847169  55.7002980  65.8695576   6.2484526  55.2493719  66.5217172
   6.1963878  55.8348889  65.1266040   5.0795713  72.4667030  59.7640234
   5.3192311  73.0985554  60.4419253   4.2364909  72.1155070  60.0505594
   6.1949428  55.1591632  48.4322039   5.3178895  55.0380433  48.0684286
   6.6707181  54.3677710  48.1800928  16.0622421  63.6144700  65.2020495
  15.1749200  63.2770622  65.3246894  16.6320972  62.8827731  65.4389260
   2.5186291  54.8358988  62.9548570   2.4344479  54.2284658  62.2198980
   1.6968997  55.3268006  62.9558066   9.5923575  68.2746152  62.1681738
   9.5193746  69.0801124  62.6801043   9.1500968  68.4738118  61.3429760
   9.3813354  67.5117922  55.6784560   8.5980876  68.0539602  55.7722784
  10.0806100  68.0291902  56.0778801  12.6910004  53.3212552  58.3218765
  13.1878704  52.5682514  58.0019835  11.9196986  53.3576868  57.7561975
  20.5439762  59.0252917  59.9637057  20.5329638  59.9077633  59.5930990
  19.6757141  58.6724468  59.7691594  12.0522258  68.1732986  64.3239897
  12.7650230  68.8080451  64.2515798  11.5612287  68.2696852  63.5079899
  13.7739785  62.0784239  55.8957189  12.8396064  62.1985701  55.7261893
  13.9516454  61.1756706  55.6317198   9.2744973  55.4629935  58.0490450
   8.9042761  54.9100975  58.7371355   9.7704066  54.8588068  57.4965450
  17.1612337  57.9201558  56.4307223  17.6272789  58.7529550  56.3567525
  17.6119837  57.4546540  57.1352481   7.1034172  65.9227430  65.1445468
   7.8043631  66.5563913  65.2974862   6.6329287  66.2642161  64.3841107
  15.2288568  64.2645379  53.4293375  15.5048412  64.1501974  54.3387249
  14.3593066  63.8662864  53.3905548  15.1328999  50.2882145  60.4698124
  14.2192079  50.5186372  60.6380331  15.5622101  50.3720589  61.3212156
  14.9035458  58.4772037  62.9698018  14.2506908  58.7247945  62.3150471
  15.2815838  57.6636175  62.6360495  11.8642632  68.5131730  57.0726188
  12.0465026  67.6953386  57.5353941  12.6875618  68.7299422  56.6351078
  12.1984797  67.4399915  54.3341237  12.7272564  66.9292370  53.7211399
  12.4613017  67.1242446  55.1986770  10.9523031  59.2191848  69.4564055
  10.2763668  59.1185977  70.1266430  11.7750665  59.0631062  69.9200052
   2.7001890  65.4563785  62.0776570   3.2855327  64.7107473  62.2104475
   2.5026728  65.7667741  62.9613234   5.5540545  68.4915032  57.0939013
   4.8850920  68.9761160  56.6103053   5.4153415  68.7384253  58.0082391
   9.6945814  70.5258776  63.6921671  10.2464122  70.6890397  64.4570756
  10.0352007  71.1163213  63.0201696   4.6710307  52.8733925  64.2943556
   4.7351633  53.7348756  63.8820954   4.6077427  52.2607927  63.5615914
   4.1462579  54.9457058  67.9416590   4.7734618  54.5634135  68.5554114
   3.2890498  54.7271260  68.3072283  14.5456688  65.3520033  69.5470326
  15.0896592  65.9649991  69.0525280  13.9643533  65.9099611  70.0637339
  12.8314201  68.4740751  60.6785353  12.7065340  67.6730491  60.1696299
  13.4893292  68.9686944  60.1899323   4.4522369  54.8289484  59.8562494
   3.7308955  55.4425451  59.7169967   5.2415625  55.3647248  59.7779140
  14.8949109  66.2749771  62.3064903  13.9479445  66.1555122  62.2343230
  15.2431882  65.3872269  62.3891165   7.2548683  52.1643910  66.1303145
   7.7783085  52.4106207  66.8929455   7.0361016  52.9963945  65.7106283
   2.6515964  54.4347585  53.9974270   2.3228670  53.5544964  53.8149376
   3.0055334  54.3795253  54.8850659  11.8995543  66.0702487  58.5069256
  11.7520505  65.1419195  58.6876826  12.7249036  66.0922578  58.0226331
   5.7657787  54.7220554  54.3649748   6.1053859  55.2506476  53.6428356
   6.2129907  55.0600961  55.1408314  15.5029664  66.8931046  59.5934128
  16.4276212  66.6873907  59.4558580  15.3344968  66.6447447  60.5023470
   8.4601228  53.1057605  63.8152816   8.1198048  52.3065418  64.2173496
   7.7540234  53.4059316  63.2429649   9.1117700  50.1906918  62.2680139
   9.9343769  49.7167396  62.1459029   9.3555763  50.9697401  62.7678825
   7.7525934  53.2195176  52.5643041   8.4734297  53.5976429  52.0606757
   7.1291238  53.9384053  52.6678019  11.8957057  53.9240325  53.5001373
  12.1120671  54.8064963  53.1990201  11.4151124  53.5326538  52.7707015
   6.6356278  56.8826038  60.0772117   6.4900859  57.1966341  60.9696399
   6.1581482  57.5010939  59.5243016   8.4952661  53.8728586  60.1253007
   8.4814230  52.9769680  59.7885305   9.2125089  53.8799250  60.7591293
  10.3478792  54.3065926  62.1706134  10.0896570  55.2282997  62.1690465
   9.8163832  53.9096361  62.8606599  15.2924981  67.4116714  54.9496220
  15.4661858  66.8463136  54.1970072  15.7853872  68.2117608  54.7675710
   1.1101940  59.4231383  63.0159779   0.5655409  60.1991191  63.1480053
   1.9881290  59.7702187  62.8578900   7.8989557  52.7542967  55.3940577
   8.0205468  51.8259613  55.5931465   7.6091600  52.7681653  54.4818893
  10.7680748  50.4397877  58.5307297  10.7902444  50.5037210  57.5759277
  11.1848807  49.6002386  58.7247803  21.1464372  60.1753137  56.5686520
  21.5895518  59.4260462  56.1705643  20.2690882  60.1663273  56.1860252
  16.2800153  66.7283478  52.0493118  16.9751058  67.3490171  52.2680433
  16.6223303  65.8778829  52.3245496   1.8967962  58.5501279  65.9089936
   1.1549698  58.6983914  66.4954566   1.5760707  58.8109545  65.0456685
  18.1791576  64.1783184  53.5780449  18.7042900  64.5170456  52.8529769
  18.0913929  63.2430199  53.3943584   9.8411625  68.0917257  65.7070326
  10.1498751  67.8466404  66.5793025  10.6387107  68.2963896  65.2189196
   9.8632237  70.2455167  57.9375702   9.4237227  69.7531545  58.6308559
  10.6140354  69.7028134  57.6967777   2.3424576  66.4366708  57.9400330
   3.1682596  66.1370480  57.5598974   1.9918628  65.6674330  58.3890119
   7.3106109  65.7893176  60.0098004   6.6886118  65.1263881  59.7100232
   7.9810976  65.8154308  59.3271652   7.3830637  54.2674964  69.6030510
   7.4318792  55.1437087  69.2208279   7.9253151  53.7252357  69.0302153
  17.8685482  64.8116087  68.8831647  17.0781026  64.7940226  68.3436146
  17.6318837  65.3504381  69.6380683  17.9883357  61.6608554  66.1964375
  18.0381362  61.4958561  67.1379898  17.8797281  60.7935813  65.8062256
   6.8719616  64.3397099  53.4856464   7.0207736  65.0232564  52.8323137
   7.6786060  64.3202189  54.0005920  15.2787120  57.6439482  67.5123682
  16.1796983  57.5045946  67.2207680  15.3535094  57.8093936  68.4521860
   9.6129925  55.0206336  66.3576868   8.7433235  55.3139902  66.0859457
   9.8489405  55.6046781  67.0784132  19.4901554  64.0805495  66.4406397
  19.1986363  64.4435476  67.2769858  18.8773686  63.3672503  66.2619729
  20.6897237  61.6458375  58.9608967  21.5244128  62.0848179  59.1246528
  20.8256365  61.1697028  58.1417213  17.7388742  59.2038110  64.9086455
  18.2142864  59.3965756  64.1005306  16.8154308  59.2597296  64.6629839
   4.6272249  60.3662277  54.4917533   4.3818291  59.4624607  54.6897743
   4.7968164  60.3679427  53.5497011  12.3168959  51.2385953  63.8742289
  12.8350903  51.9746980  63.5488777  11.9624092  51.5449947  64.7089048
   3.8967897  56.0990634  51.9903695   3.2037142  56.1734989  51.3343731
   3.6519649  55.3350978  52.5125212  12.5681553  47.6586236  59.3943185
  12.8483307  46.9909425  60.0203612  13.3532160  47.8515331  58.8817849
  10.3715022  66.8345230  50.9568212   9.7988989  67.4535417  50.5038684
  10.9447815  67.3844591  51.4908134  16.4390411  56.0803870  63.1414761
  17.3907834  56.1801967  63.1626985  16.2693862  55.2882138  63.6512845
  14.4604791  53.1659453  63.3274161  13.8654723  53.4464466  62.6320650
  14.1754488  53.6553354  64.0990903  13.5912281  67.1182380  52.0876794
  14.5242955  67.0527941  52.2909670  13.5035494  67.9538647  51.6291327
  16.2200298  66.4348250  49.0480742  16.1413930  66.1008114  49.9416499
  17.0409965  66.9270018  49.0472214  18.9178489  59.3009989  62.2557060
  18.8854809  58.3625990  62.4416744  19.5279113  59.3794026  61.5222885
  10.7561820  58.1706042  48.2984264  11.7020925  58.0412251  48.3672682
  10.3776065  57.4320704  48.7753692  19.0672978  56.0921033  62.3015343
  18.5512026  55.3079490  62.1145272  19.9512926  55.7639750  62.4661863
  16.7283705  49.8362048  58.2611156  16.5308526  49.5277137  59.1454488
  17.3383410  50.5623687  58.3909086  24.7355039  60.3625996  61.3963097
  25.4658428  60.1011284  61.9570800  24.1261985  59.6254718  61.4365165
  22.8170336  58.5033859  61.9937548  22.0903500  58.3689824  61.3854040
  22.4017623  58.8110687  62.7994266  10.6400513  62.2223789  69.7584921
  11.5603522  62.4002388  69.9524968  10.6050096  61.2779834  69.6064620
   8.9404737  56.0956019  48.2339149   8.0336193  55.7989132  48.3101863
   9.2180718  55.7985837  47.3673436   3.6362585  60.1324823  62.4007702
   3.8548595  61.0641931  62.4195736   4.0488359  59.7732798  63.1862506
  10.5566803  50.6392909  54.3883391   9.7467531  50.2939994  54.7638637
  11.2451220  50.3300452  54.9771002  12.4857351  49.7170955  56.0107687
  13.0388390  50.1366409  56.6697710  12.7227438  48.7906703  56.0530643
   8.5090451  55.7058029  71.7910451   8.4087177  56.6552386  71.7222542
   8.2911993  55.3776268  70.9186521   7.7103522  52.9542954  48.3751129
   8.5722686  53.2797852  48.6346946   7.8953866  52.1674450  47.8624194
  15.8636158  51.8271480  55.5186352  15.2834827  52.4856285  55.1364404
  15.5972091  51.0048825  55.1073769  14.3139725  51.2276538  57.7207672
  14.8139503  51.3393073  56.9121991  14.9575333  50.9237591  58.3608480
   8.3721721  59.1355168  70.6075513   7.8888802  59.9355528  70.8139402
   8.4582660  59.1463113  69.6542957   1.6407680  60.9683547  58.5297332
   1.6178368  61.0671235  57.5779215   1.9508317  61.8148698  58.8514498
   4.2995058  63.0259703  62.6443947   5.2538312  62.9943645  62.5773878
   4.1007582  62.5650326  63.4594173   4.8894440  61.5960819  65.2114744
   5.7087329  62.0904897  65.2349582   5.1631248  60.6792787  65.1832312
  14.6461036  53.9871571  54.5742700  13.7586891  54.2721221  54.3562895
  15.0615025  53.8265334  53.7269977  17.9975573  54.0118092  58.2897039
  18.7735963  54.5014544  58.5621656  17.2723707  54.4376146  58.7468909
  20.4348131  54.7245711  59.3470980  21.0292622  54.4841447  58.6364288
  20.5074715  54.0052842  59.9744516   2.6545287  68.5679322  59.6614145
   2.5199755  67.8079723  59.0952143   2.2377349  69.2920222  59.1942933
  13.7904250  63.7516246  48.6690720  14.4940100  63.9566248  49.2848376
  13.0666899  64.3193007  48.9339803  14.6202060  59.5026107  54.7892990
  14.5637262  59.9594658  53.9500622  15.1730403  58.7416791  54.6115833
  18.4306866  55.2915839  55.6143110  18.1743800  54.8912474  56.4451317
  17.8059734  56.0059633  55.4893249  22.7419204  58.0311912  58.1214401
  22.1818762  58.1005101  58.8945963  22.1362707  57.8552897  57.4013897
   5.8114413  69.4648639  59.8732587   5.6946797  70.4094072  59.7711278
   4.9906859  69.1622201  60.2618386  15.6990947  64.1898775  50.7189180
  16.5336551  63.7579973  50.5366655  15.5375290  64.0180788  51.6466074
  15.3536839  60.6930888  52.0845519  15.2985643  60.5275159  51.1433963
  14.7282895  61.4006921  52.2407709  12.6682747  62.9979800  71.4099082
  13.5373906  63.1720452  71.0485717  12.1889498  63.8174217  71.2874811
   8.6632965  50.1938997  51.6630838   8.6511635  51.1380837  51.8199109
   9.5556387  50.0109142  51.3690299   6.8368927  70.1176901  63.0888516
   7.7396174  70.1500511  63.4055011   6.6106297  69.1877352  63.1034851
   8.5922529  68.8707887  59.7498594   7.6418160  68.8709749  59.6362967
   8.8955015  68.1240622  59.2334629  12.4785084  46.7881774  55.9176774
  11.7117480  46.2340260  56.0633457  12.8895789  46.8603642  56.7790926
   4.4826845  53.0766570  70.0081956   5.3458307  52.7203374  70.2185280
   3.9092256  52.7380464  70.6957360  24.3275222  74.7068426  60.8144357
  24.9653632  74.5875173  60.1107697  24.2096065  75.6549270  60.8732309
  21.1364929  74.6595854  60.7505881  20.7983440  74.5436919  59.8626416
  22.0054697  74.2587019  60.7306888  16.9951744  76.5131330  56.7402772
  16.4316609  76.4221267  55.9719060  16.8804139  75.6931235  57.2205265
  21.6184712  75.8130706  66.7092087  21.6073352  75.4183504  65.8372591
  21.7805351  75.0796778  67.3025858  14.5416176  78.0082522  59.5786993
  15.3337468  77.6673347  59.1633292  14.7812826  78.1177497  60.4989146
  22.5751303  80.1802298  52.0517237  21.9239283  80.7656378  51.6651251
  23.3695666  80.7108493  52.1112275  16.5006930  77.2691435  52.4504372
  17.2737806  76.7220422  52.3117247  16.8532329  78.1335685  52.6618833
  18.3391973  78.5967817  65.6571271  18.0481839  79.5013448  65.5417937
  18.9748957  78.6384345  66.3715340  19.2648180  75.9744666  62.2472631
  19.8611752  75.7500688  61.5329593  19.3223151  75.2329411  62.8498078
  18.8373208  73.4284101  50.0822822  19.0898729  72.9065623  49.3206285
  17.8997767  73.2650247  50.1849505  23.8816491  72.4319880  57.8897565
  24.6679580  72.0139303  57.5387982  24.1455195  73.3365972  58.0579213
  24.0526568  77.8692730  52.5886222  23.4172401  77.9427357  53.3007126
  23.7223975  78.4586329  51.9105301  29.2824918  72.3695113  58.7930543
  30.0150090  71.7994330  59.0268373  28.5264274  71.9816713  59.2337049
  18.5569497  75.3312207  52.2847196  18.4405755  74.6557111  52.9528281
  18.6671757  74.8444581  51.4679350  20.9001038  74.7922354  55.9893886
  20.5359245  74.2652975  56.7006807  21.7568154  74.4020823  55.8160371
  26.8050338  66.0816687  63.2525152  26.4733663  66.9512098  63.0286367
  26.2095952  65.7652971  63.9319182  20.5406525  69.8212254  50.9855234
  20.7080927  70.6892491  51.3525705  20.3503694  69.9839536  50.0616523
  23.2981858  78.2829233  62.6521065  22.9982581  79.1854272  62.5436872
  22.9532917  78.0161416  63.5042217  16.7494339  74.7343030  58.6857769
  15.8244836  74.6019244  58.8935461  16.9978753  75.5137249  59.1827711
  26.6979002  70.8011773  60.3318502  25.7895879  70.7327182  60.0377263
  26.6466597  71.2783718  61.1600327  20.5195746  72.2769912  51.9701901
  20.3995371  72.7226962  52.8087381  19.8248334  72.6255229  51.4115439
  14.1103150  74.3776303  59.5201558  14.2395532  74.6310782  60.4340970
  13.4300602  74.9704011  59.2006213  18.2802638  85.0473553  55.6192032
  18.2026667  85.9981378  55.6980513  17.6764281  84.7019426  56.2766959
  20.7719867  72.2201419  68.2753399  19.9953202  72.7795339  68.2656264
  21.4110430  72.7058202  68.7968269  28.5640648  69.0028212  62.1096376
  27.9215028  69.2960745  61.4636170  28.0595577  68.8881132  62.9149572
  26.2180812  72.7491385  52.7982235  27.1298668  72.9818772  52.6229933
  25.7090459  73.3328429  52.2357314  19.0266240  75.0286872  67.8371366
  19.7680924  75.5671916  67.5606190  18.3203225  75.6553161  67.9942918
  24.5021579  77.1716013  66.4343528  24.9104935  76.7298423  65.6898160
  23.7798841  76.5968640  66.6877721  20.8552649  72.1088619  63.8077085
  21.7013845  72.5328033  63.9511734  20.7951287  71.4522244  64.5015648
  24.8250394  77.7317203  60.1895817  24.1959256  77.8962917  59.4871884
  24.4376056  78.1458813  60.9606781  28.7039626  78.6671641  57.5440180
  28.0190664  79.0470542  56.9937214  28.7883475  79.2766968  58.2772128
  24.0052095  69.7692988  65.4658258  23.7613027  70.5235048  64.9292534
  24.2812025  70.1478335  66.3005505  25.9590558  76.3131600  64.1435524
  26.1707453  76.9563360  63.4669905  25.9120306  75.4793917  63.6757454
  23.5616786  68.9249421  61.0472096  22.7001266  69.2230674  61.3388834
  23.5879221  69.1419820  60.1153129  20.3778356  77.4691611  57.4545902
  20.8416701  77.7479314  56.6650524  20.1135154  76.5675056  57.2718992
  17.2702437  77.0163093  60.3925665  17.8403794  77.4450361  59.7543149
  17.8610549  76.7345678  61.0909851  19.3147242  73.5914764  54.2635467
  20.0171285  74.0435807  54.7309393  18.9827870  72.9498583  54.8915360
  17.7627603  72.1826520  68.6386676  17.1326264  72.8642801  68.8722073
  17.6563691  72.0709602  67.6939814  13.0572576  71.8498316  59.5652600
  12.2671630  72.1055845  59.0892711  13.5483823  72.6646654  59.6704641
  27.0736385  79.1903556  62.3157881  27.8953829  78.7883743  62.0340563
  27.0698788  79.0871790  63.2673997  15.0087321  72.2142896  56.5236077
  14.2118485  72.3261590  57.0419573  14.7812914  72.5529548  55.6576968
  20.8392989  78.7387599  64.4718592  20.9037421  79.2008006  65.3076764
  20.1303913  78.1084964  64.6000902  11.3410279  72.1028807  61.9967591
  11.5918317  72.9875817  62.2625167  11.8769827  71.9233408  61.2242683
  20.5541007  80.4055706  54.3397572  20.4186681  81.2507242  54.7682420
  21.0950819  80.6074984  53.5763506  17.0408346  66.4847286  71.0011927
  16.6475292  65.9313485  71.6759571  17.8574487  66.7957865  71.3918445
  14.0070404  77.9231144  54.9125497  14.5194925  78.7174395  55.0631062
  14.6593117  77.2257435  54.8459099  15.8165289  81.0396901  56.9948250
  15.9931917  81.9614865  56.8069234  16.6122122  80.7255320  57.4242630
  19.9576307  67.9005165  68.5932184  20.6986021  68.5012318  68.5136646
  20.1894230  67.1582803  68.0350226  15.1017645  73.0861533  66.8710413
  14.9871160  72.1846790  67.1717512  14.2462163  73.3325229  66.5195230
  22.1809483  81.0279273  68.4697914  21.7373337  80.2415651  68.1518819
  22.8426697  81.2158423  67.8041805  16.9396604  82.5575074  62.9958593
  17.4904029  82.4292138  62.2235587  16.1008080  82.8569963  62.6453485
  24.2790721  81.3082073  66.4979315  24.2609196  82.1290954  66.0059585
  25.2010641  81.1836148  66.7229457  20.7363775  78.8226202  67.3402824
  21.2692112  78.0614490  67.1102132  20.2077856  78.5299854  68.0826978
  23.9033470  63.9286268  62.8696465  23.5597740  64.8187910  62.7935576
  24.2712433  63.7387926  62.0066050  11.9719321  76.2519799  55.6885068
  12.8094543  76.6616807  55.4718775  12.1497588  75.3119241  55.6585262
  23.8683753  73.9194879  51.3768901  23.3530376  74.6899484  51.6157288
  23.5961061  73.2460015  52.0001962  21.4530864  68.7644580  56.4354139
  20.5972460  68.3751430  56.2559778  21.8657816  68.8436541  55.5753924
  22.9830011  66.2990923  60.8345699  22.4794806  66.2621059  60.0213504
  23.2760617  67.2083666  60.8942355  19.2272896  66.3829653  59.8411880
  20.0925893  66.1872462  59.4817770  19.2950405  66.1540005  60.7681237
  28.8418027  76.6727234  53.3122074  28.0647470  76.3338393  52.8677236
  29.5209508  76.6779857  52.6377039  23.6570056  71.7921971  53.2028682
  23.3520192  72.1068121  54.0538825  24.6100498  71.8703391  53.2456015
  22.1016488  77.9512195  54.8521636  21.5737849  77.2164954  54.5394873
  21.6003991  78.7286871  54.6061604  27.0809334  76.1461215  59.9688682
  26.4233008  76.8360477  60.0568811  27.8849733  76.5357647  60.3122668
  16.8335216  68.6131861  57.2128247  17.4078967  68.3907042  56.4801440
  17.4206198  68.6820556  57.9656849  25.8914793  74.5005588  58.0192624
  26.4046674  75.1335580  58.5214334  26.5416017  73.9006783  57.6535984
  17.1604803  70.6436322  51.2324133  16.3242115  70.9811009  51.5533407
  17.0209572  70.5085302  50.2951270  19.1357883  65.4873110  55.9403317
  18.4822296  65.1722127  55.3159931  19.0938357  64.8648850  56.6663140
  20.2469088  75.7692405  47.8556609  19.3396150  75.5381658  48.0547758
  20.7440120  74.9730024  48.0430590  23.1537167  84.4789912  50.7753295
  22.4798866  84.7821609  51.3838253  23.5402989  85.2818993  50.4258752
  22.3695624  71.9755043  60.2650964  21.4518185  72.1969990  60.1072652
  22.7855767  72.0501354  59.4062672  23.1530671  73.3746459  55.3953645
  23.9002490  73.8867856  55.0860767  23.4222261  73.0530512  56.2558038
  21.4257322  75.8705000  52.3780599  20.5168541  75.5864033  52.4753069
  21.4552405  76.2904078  51.5183906  26.6576589  79.4811589  56.1471766
  26.2038916  78.6402499  56.2036957  26.0270556  80.1172988  56.4846547
  25.6009508  70.4103575  57.3772434  24.8632265  69.8980962  57.7082676
  25.8536282  69.9703957  56.5655711  25.1009528  81.3188086  57.0821585
  25.3932503  81.8793143  56.3633950  25.6108149  81.6116647  57.8374744
  25.7021136  63.1879827  57.9714203  26.0080013  62.3277191  57.6840118
  26.4273741  63.7797448  57.7713197  11.9945492  73.5910514  56.3595801
  11.7969892  72.9979875  55.6346868  11.4392156  73.2862724  57.0771740
  19.9742216  73.4833620  58.4790394  20.0290825  72.5307457  58.4032871
  19.1633418  73.6393060  58.9631693  21.1233409  77.4113744  49.7168677
  20.6852839  76.6949602  49.2574315  21.8643850  77.6389858  49.1553769
  17.9134575  72.1010680  56.2380773  17.1002441  72.4004851  56.6445965
  18.4093570  71.7066369  56.9555255  20.0643153  82.0968437  58.1715038
  20.0219332  82.3229283  57.2423570  20.9805852  81.8631812  58.3200839
  23.5108787  72.5652505  65.0695667  23.8658175  72.7923978  65.9290133
  24.1580918  72.8970881  64.4472922  29.2406524  75.6870941  55.7744996
  29.1024423  75.8772537  54.8466185  28.8842743  76.4490323  56.2313047
  17.4048650  69.6729036  61.8542008  18.0448030  69.5317795  61.1564971
  16.5726181  69.3863549  61.4780610  29.2675904  77.7547468  60.7856268
  29.7012410  77.6622757  61.6339322  29.9807484  77.7304968  60.1476284
  18.1808954  78.9731466  57.9677001  18.9749553  78.4781786  57.7659575
  17.4700647  78.4449329  57.6044706  23.0003799  81.3549562  62.3189368
  23.0540821  81.9240498  63.0867084  22.1318580  81.5251447  61.9543405
  14.4891718  73.1174548  54.0436753  13.5589306  73.0559003  54.2606715
  14.5849190  72.5950501  53.2473394  14.4077267  69.6429361  56.6314995
  14.6684084  70.5574694  56.5224155  15.2294439  69.1753803  56.7811608
  15.8802192  71.0567118  63.8013819  16.5525245  70.8484480  63.1526468
  15.0531979  70.8589204  63.3619052  30.1291453  77.7971168  63.3189153
  30.3227343  78.7016979  63.5648428  30.0292071  77.3378587  64.1527738
  21.7827764  67.6829059  65.8179480  21.1355679  68.3819008  65.7243957
  22.5528779  68.1165203  66.1855728  25.1906562  77.9477911  68.8930034
  25.0392068  77.7188463  67.9760117  25.1811241  78.9048512  68.9061379
  21.9591898  75.5209824  63.8776300  22.8883958  75.6720983  63.7045267
  21.5382928  75.6093844  63.0224946  20.7580230  79.5460488  61.6474838
  20.6191316  79.1779273  62.5200776  19.9694826  80.0608128  61.4758795
  21.3528382  84.6469585  52.9900374  21.5280138  84.1757628  53.8045997
  20.6661170  85.2735351  53.2181635  22.3085445  78.9242091  59.0363675
  21.9735278  78.8842861  59.9321325  21.8089391  78.2586807  58.5634086
  16.2829689  74.3309721  64.5616257  16.1449487  73.5989960  65.1627796
  17.1934613  74.2418621  64.2800444  25.2444637  76.2698125  49.3100735
  24.6273808  75.5444953  49.2133788  24.7761125  77.0307485  48.9667809
  18.9111990  74.0429680  64.0499936  19.6211608  73.4022872  64.0086555
  18.8681298  74.2942575  64.9726117  26.8998769  80.9797034  66.9706515
  26.8411315  80.2956254  66.3037098  27.3018287  81.7216024  66.5187141
  17.6240924  71.0294898  65.8695576  17.0878281  70.5785637  66.5217172
  17.0357632  71.1640807  65.1266040  15.9189467  87.7958947  59.7640234
  16.1586066  88.4277472  60.4419253  15.0758664  87.4446987  60.0505594
  17.0343183  70.4883549  48.4322039  16.1572649  70.3672350  48.0684286
  17.5100936  69.6969628  48.1800928  26.9016176  78.9436617  65.2020495
  26.0142955  78.6062539  65.3246894  27.4714727  78.2119649  65.4389260
   8.5545323  75.2760709  58.5263546   9.2416363  74.9622439  57.9384562
   8.3993452  76.1802074  58.2530798  13.3580045  70.1650906  62.9548570
  13.2738234  69.5576575  62.2198980  12.5362752  70.6559924  62.9558066
  20.4317329  83.6038070  62.1681738  20.3587501  84.4093041  62.6801043
  19.9894722  83.8030036  61.3429760  20.2207109  82.8409840  55.6784560
  19.4374631  83.3831520  55.7722784  20.9199854  83.3583819  56.0778801
  23.5303759  68.6504469  58.3218765  24.0272459  67.8974432  58.0019835
  22.7590740  68.6868786  57.7561975  22.8916013  83.5024904  64.3239897
  23.6043985  84.1372369  64.2515798  22.4006041  83.5988770  63.5079899
  24.6133540  77.4076157  55.8957189  23.6789818  77.5277619  55.7261893
  24.7910208  76.5048623  55.6317198  20.1138728  70.7921852  58.0490450
  19.7436515  70.2392893  58.7371355  20.6097820  70.1879986  57.4965450
  28.0006091  73.2493476  56.4307223  28.4666543  74.0821467  56.3567525
  28.4513592  72.7838457  57.1352481  17.9427926  81.2519347  65.1445468
  18.6437386  81.8855830  65.2974862  17.4723041  81.5934079  64.3841107
  26.0682322  79.5937297  53.4293375  26.3442166  79.4793892  54.3387249
  25.1986821  79.1954782  53.3905548  25.9722754  65.6174063  60.4698124
  25.0585834  65.8478290  60.6380331  26.4015855  65.7012507  61.3212156
  25.7429212  73.8063955  62.9698018  25.0900663  74.0539862  62.3150471
  26.1209592  72.9928093  62.6360495  22.7036386  83.8423648  57.0726188
  22.8858781  83.0245304  57.5353941  23.5269372  84.0591340  56.6351078
  23.0378552  82.7691833  54.3341237  23.5666318  82.2584288  53.7211399
  23.3006771  82.4534363  55.1986770  21.7916785  74.5483766  69.4564055
  21.1157422  74.4477895  70.1266430  22.6144419  74.3922980  69.9200052
  13.5395644  80.7855702  62.0776570  14.1249081  80.0399390  62.2104475
  13.3420483  81.0959659  62.9613234  16.3934300  83.8206950  57.0939013
  15.7244675  84.3053077  56.6103053  16.2547169  84.0676170  58.0082391
   8.1313299  73.3561303  60.7981014   8.1697399  72.8224893  61.5918132
   7.6253592  72.8296508  60.1791991  20.5339568  85.8550693  63.6921671
  21.0857876  86.0182315  64.4570756  20.8745762  86.4455131  63.0201696
  15.5104061  68.2025843  64.2943556  15.5745388  69.0640674  63.8820954
  15.4471182  67.5899845  63.5615914  14.9856334  70.2748976  67.9416590
  15.6128373  69.8926053  68.5554114  14.1284253  70.0563178  68.3072283
  25.3850442  80.6811951  69.5470326  25.9290346  81.2941909  69.0525280
  24.8037287  81.2391529  70.0637339  11.7621877  72.0825405  53.8734945
  12.0575318  71.1736083  53.8201999  10.8609912  72.0613144  53.5515947
  23.6707955  83.8032669  60.6785353  23.5459095  83.0022409  60.1696299
  24.3287047  84.2978862  60.1899323  15.2916124  70.1581401  59.8562494
  14.5702709  70.7717369  59.7169967  16.0809379  70.6939166  59.7779140
  25.7342864  81.6041689  62.3064903  24.7873199  81.4847040  62.2343230
  26.0825637  80.7164187  62.3891165  18.0942437  67.4935828  66.1303145
  18.6176839  67.7398124  66.8929455  17.8754770  68.3255863  65.7106283
  13.4909718  69.7639502  53.9974270  13.1622424  68.8836881  53.8149376
  13.8449089  69.7087171  54.8850659  22.7389297  81.3994405  58.5069256
  22.5914260  80.4711112  58.6876826  23.5642791  81.4214496  58.0226331
  16.6051541  70.0512472  54.3649748  16.9447614  70.5798393  53.6428356
  17.0523662  70.3892878  55.1408314  26.3423419  82.2222964  59.5934128
  27.2669966  82.0165825  59.4558580  26.1738722  81.9739365  60.5023470
  19.2994982  68.4349523  63.8152816  18.9591803  67.6357336  64.2173496
  18.5933989  68.7351234  63.2429649  19.9511454  65.5198835  62.2680139
  20.7737523  65.0459314  62.1459029  20.1949518  66.2989319  62.7678825
  18.5919689  68.5487094  52.5643041  19.3128051  68.9268347  52.0606757
  17.9684993  69.2675971  52.6678019  22.7350811  69.2532243  53.5001373
  22.9514426  70.1356881  53.1990201  22.2544879  68.8618456  52.7707015
  17.4750033  72.2117956  60.0772117  17.3294614  72.5258259  60.9696399
  16.9975236  72.8302856  59.5243016  19.3346416  69.2020504  60.1253007
  19.3207984  68.3061597  59.7885305  20.0518844  69.2091168  60.7591293
  21.1872546  69.6357844  62.1706134  20.9290324  70.5574915  62.1690465
  20.6557587  69.2388279  62.8606599  26.1318735  82.7408631  54.9496220
  26.3055613  82.1755054  54.1970072  26.6247626  83.5409526  54.7675710
  11.9495695  74.7523300  63.0159779  11.4049163  75.5283108  63.1480053
  12.8275045  75.0994105  62.8578900  18.7383312  68.0834884  55.3940577
  18.8599223  67.1551530  55.5931465  18.4485354  68.0973570  54.4818893
  21.6074502  65.7689795  58.5307297  21.6296199  65.8329128  57.5759277
  22.0242561  64.9294303  58.7247803  27.1193908  82.0575396  52.0493118
  27.8144812  82.6782088  52.2680433  27.4617058  81.2070747  52.3245496
  12.7361717  73.8793197  65.9089936  11.9943453  74.0275832  66.4954566
  12.4154461  74.1401462  65.0456685  29.0185331  79.5075101  53.5780449
  29.5436655  79.8462374  52.8529769  28.9307683  78.5722117  53.3943584
  20.6805379  83.4209175  65.7070326  20.9892506  83.1758322  66.5793025
  21.4780862  83.6255813  65.2189196  20.7025992  85.5747084  57.9375702
  20.2630982  85.0823463  58.6308559  21.4534108  85.0320052  57.6967777
  13.1818331  81.7658625  57.9400330  14.0076350  81.4662397  57.5598974
  12.8312383  80.9966248  58.3890119  18.1499864  81.1185094  60.0098004
  17.5279873  80.4555799  59.7100232  18.8204731  81.1446225  59.3271652
  11.3826936  79.6844952  58.8989264  10.5458844  79.2567126  58.7173265
  11.3550581  79.8777395  59.8360055  18.2224391  69.5966882  69.6030510
  18.2712547  70.4729004  69.2208279  18.7646905  69.0544275  69.0302153
  28.7079237  80.1408005  68.8831647  27.9174781  80.1232144  68.3436146
  28.4712591  80.6796299  69.6380683  28.8277112  76.9900471  66.1964375
  28.8775117  76.8250479  67.1379898  28.7191035  76.1227730  65.8062256
  17.7113371  79.6689017  53.4856464  17.8601491  80.3524481  52.8323137
  18.5179814  79.6494107  54.0005920  26.1180874  72.9731399  67.5123682
  27.0190737  72.8337864  67.2207680  26.1928849  73.1385854  68.4521860
  20.4523680  70.3498254  66.3576868  19.5826989  70.6431820  66.0859457
  20.6883160  70.9338699  67.0784132  30.3295309  79.4097413  66.4406397
  30.0380117  79.7727393  67.2769858  29.7167440  78.6964421  66.2619729
  28.5782497  74.5330027  64.9086455  29.0536619  74.7257674  64.1005306
  27.6548062  74.5889213  64.6629839  15.4666004  75.6954195  54.4917533
  15.2212046  74.7916525  54.6897743  15.6361918  75.6971345  53.5497011
  23.1562713  66.5677871  63.8742289  23.6744657  67.3038898  63.5488777
  22.8017846  66.8741864  64.7089048  14.7361651  71.4282552  51.9903695
  14.0430896  71.5026907  51.3343731  14.4913403  70.6642896  52.5125212
  23.4075308  62.9878153  59.3943185  23.6877061  62.3201343  60.0203612
  24.1925915  63.1807249  58.8817849  21.2108776  82.1637147  50.9568212
  20.6382743  82.7827334  50.5038684  21.7841570  82.7136509  51.4908134
  27.2784166  71.4095787  63.1414761  28.2301589  71.5093885  63.1626985
  27.1087616  70.6174056  63.6512845  25.2998545  68.4951371  63.3274161
  24.7048478  68.7756383  62.6320650  25.0148242  68.9845272  64.0990903
  24.4306036  82.4474297  52.0876794  25.3636709  82.3819859  52.2909670
  24.3429249  83.2830564  51.6291327  27.0594053  81.7640168  49.0480742
  26.9807684  81.4300031  49.9416499  27.8803719  82.2561936  49.0472214
  29.7572244  74.6301907  62.2557060  29.7248564  73.6917908  62.4416744
  30.3672867  74.7085944  61.5222885  21.5955575  73.4997960  48.2984264
  22.5414679  73.3704168  48.3672682  21.2169820  72.7612622  48.7753692
  29.9066732  71.4212951  62.3015343  29.3905781  70.6371407  62.1145272
  30.7906681  71.0931667  62.4661863  21.4794267  77.5515706  69.7584921
  22.3997277  77.7294305  69.9524968  21.4443850  76.6071752  69.6064620
  19.7798492  71.4247936  48.2339149  18.8729947  71.1281049  48.3101863
  20.0574473  71.1277755  47.3673436  10.6976432  72.7454300  58.6838196
  10.3779217  71.8919608  58.3912570  10.1509860  72.9602878  59.4396163
  14.4756340  75.4616741  62.4007702  14.6942349  76.3933849  62.4195736
  14.8882114  75.1024715  63.1862506  21.3960558  65.9684826  54.3883391
  20.5861286  65.6231911  54.7638637  22.0844974  65.6592370  54.9771002
  23.3251106  65.0462873  56.0107687  23.8782144  65.4658326  56.6697710
  23.5621192  64.1198621  56.0530643  19.3484205  71.0349947  71.7910451
  19.2480932  71.9844304  71.7222542  19.1305747  70.7068186  70.9186521
  18.5497276  68.2834872  48.3751129  19.4116440  68.6089770  48.6346946
  18.7347621  67.4966368  47.8624194  10.5664692  76.3657211  60.6531317
   9.8728164  75.9511164  60.1401272  11.3137683  76.4077748  60.0564736
  26.7029913  67.1563398  55.5186352  26.1228582  67.8148202  55.1364404
  26.4365846  66.3340743  55.1073769  25.1533479  66.5568456  57.7207672
  25.6533258  66.6684990  56.9121991  25.7969087  66.2529509  58.3608480
  19.2115475  74.4647085  70.6075513  18.7282557  75.2647446  70.8139402
  19.2976414  74.4755030  69.6542957  12.4801435  76.2975465  58.5297332
  12.4572123  76.3963152  57.5779215  12.7902071  77.1440616  58.8514498
  15.1388813  78.3551620  62.6443947  16.0932066  78.3235563  62.5773878
  14.9401336  77.8942244  63.4594173  15.7288195  76.9252736  65.2114744
  16.5481084  77.4196815  65.2349582  16.0025002  76.0084704  65.1832312
  25.4854791  69.3163489  54.5742700  24.5980646  69.6013139  54.3562895
  25.9008780  69.1557252  53.7269977  28.8369327  69.3410010  58.2897039
  29.6129717  69.8306462  58.5621656  28.1117461  69.7668064  58.7468909
  31.2741886  70.0537629  59.3470980  31.8686376  69.8133365  58.6364288
  31.3468469  69.3344759  59.9744516  13.4939041  83.8971240  59.6614145
  13.3593509  83.1371641  59.0952143  13.0771104  84.6212140  59.1942933
  24.6298004  79.0808163  48.6690720  25.3333854  79.2858166  49.2848376
  23.9060653  79.6484925  48.9339803  25.4595815  74.8318024  54.7892990
  25.4031016  75.2886576  53.9500622  26.0124157  74.0708709  54.6115833
  29.2700621  70.6207756  55.6143110  29.0137555  70.2204392  56.4451317
  28.6453489  71.3351550  55.4893249  16.6508167  84.7940557  59.8732587
  16.5340551  85.7385989  59.7711278  15.8300613  84.4914118  60.2618386
  26.5384702  79.5190692  50.7189180  27.3730306  79.0871891  50.5366655
  26.3769045  79.3472706  51.6466074  26.1930594  76.0222806  52.0845519
  26.1379398  75.8567077  51.1433963  25.5676649  76.7298839  52.2407709
  10.9823109  71.2590870  65.9106941  11.6281973  70.7489824  66.3994167
  10.7740260  71.9959552  66.4850367  23.5076501  78.3271718  71.4099082
  24.3767661  78.5012370  71.0485717  23.0283253  79.1466134  71.2874811
  19.5026719  65.5230915  51.6630838  19.4905389  66.4672755  51.8199109
  20.3950141  65.3401060  51.3690299  17.6762681  85.4468819  63.0888516
  18.5789928  85.4792429  63.4055011  17.4500051  84.5169270  63.1034851
  19.4316283  84.1999805  59.7498594  18.4811914  84.2001667  59.6362967
  19.7348770  83.4532540  59.2334629  23.3178839  62.1173691  55.9176774
  22.5511235  61.5632178  56.0633457  23.7289544  62.1895560  56.7790926
  15.3220600  68.4058487  70.0081956  16.1852061  68.0495292  70.2185280
  14.7486011  68.0672382  70.6957360  35.1668977  90.0360344  60.8144357
  35.8047387  89.9167091  60.1107697  35.0489820  90.9841187  60.8732309
  31.9758683  89.9887772  60.7505881  31.6377195  89.8728836  59.8626416
  32.8448451  89.5878937  60.7306888  27.8345499  91.8423248  56.7402772
  27.2710364  91.7513185  55.9719060  27.7197894  91.0223153  57.2205265
  32.4578466  91.1422623  66.7092087  32.4467107  90.7475422  65.8372591
  32.6199106  90.4088696  67.3025858  25.3809931  93.3374440  59.5786993
  26.1731223  92.9965264  59.1633292  25.6206581  93.4469415  60.4989146
  33.4145058  95.5094216  52.0517237  32.7633037  96.0948296  51.6651251
  34.2089420  96.0400411  52.1112275  27.3400685  92.5983353  52.4504372
  28.1131561  92.0512340  52.3117247  27.6926084  93.4627602  52.6618833
  29.1785727  93.9259735  65.6571271  28.8875593  94.8305366  65.5417937
  29.8142712  93.9676263  66.3715340  30.1041934  91.3036584  62.2472631
  30.7005506  91.0792606  61.5329593  30.1616906  90.5621329  62.8498078
  29.6766963  88.7576019  50.0822822  29.9292483  88.2357540  49.3206285
  28.7391522  88.5942164  50.1849505  34.7210245  87.7611797  57.8897565
  35.5073335  87.3431221  57.5387982  34.9848950  88.6657890  58.0579213
  34.8920323  93.1984648  52.5886222  34.2566156  93.2719274  53.3007126
  34.5617729  93.7878247  51.9105301  40.1218672  87.6987031  58.7930543
  40.8543844  87.1286247  59.0268373  39.3658028  87.3108631  59.2337049
  29.3963251  90.6604125  52.2847196  29.2799509  89.9849028  52.9528281
  29.5065511  90.1736499  51.4679350  31.7394792  90.1214272  55.9893886
  31.3752999  89.5944893  56.7006807  32.5961908  89.7312741  55.8160371
  31.3800279  85.1504172  50.9855234  31.5474682  86.0184408  51.3525705
  31.1897448  85.3131453  50.0616523  34.1375612  93.6121151  62.6521065
  33.8376335  94.5146189  62.5436872  33.7926672  93.3453334  63.5042217
  27.5888094  90.0634948  58.6857769  26.6638590  89.9311162  58.8935461
  27.8372507  90.8429167  59.1827711  37.5372756  86.1303691  60.3318502
  36.6289633  86.0619099  60.0377263  37.4860352  86.6075636  61.1600327
  31.3589500  87.6061829  51.9701901  31.2389125  88.0518880  52.8087381
  30.6642088  87.9547147  51.4115439  24.9496905  89.7068221  59.5201558
  25.0789286  89.9602700  60.4340970  24.2694356  90.2995929  59.2006213
  29.1196392 100.3765471  55.6192032  29.0420422 101.3273296  55.6980513
  28.5158036 100.0311344  56.2766959  31.6113622  87.5493336  68.2753399
  30.8346956  88.1087257  68.2656264  32.2504185  88.0350119  68.7968269
  39.4034403  84.3320129  62.1096376  38.7608783  84.6252662  61.4636170
  38.8989331  84.2173050  62.9149572  37.0574566  88.0783302  52.7982235
  37.9692422  88.3110689  52.6229933  36.5484213  88.6620347  52.2357314
  29.8659994  90.3578790  67.8371366  30.6074679  90.8963834  67.5606190
  29.1596980  90.9845079  67.9942918  35.3415334  92.5007930  66.4343528
  35.7498690  92.0590341  65.6898160  34.6192595  91.9260558  66.6877721
  31.6946404  87.4380537  63.8077085  32.5407599  87.8619951  63.9511734
  31.6345042  86.7814161  64.5015648  35.6644149  93.0609121  60.1895817
  35.0353011  93.2254835  59.4871884  35.2769811  93.4750730  60.9606781
  39.5433380  93.9963559  57.5440180  38.8584419  94.3762460  56.9937214
  39.6277230  94.6058885  58.2772128  34.8445849  85.0984905  65.4658258
  34.6006781  85.8526966  64.9292534  35.1205780  85.4770253  66.3005505
  36.7984312  91.6423518  64.1435524  37.0101207  92.2855278  63.4669905
  36.7514060  90.8085834  63.6757454  34.4010541  84.2541338  61.0472096
  33.5395020  84.5522592  61.3388834  34.4272976  84.4711737  60.1153129
  31.2172110  92.7983529  57.4545902  31.6810456  93.0771232  56.6650524
  30.9528909  91.8966974  57.2718992  28.1096191  92.3455011  60.3925665
  28.6797549  92.7742279  59.7543149  28.7004303  92.0637595  61.0909851
  30.1540996  88.9206681  54.2635467  30.8565040  89.3727725  54.7309393
  29.8221625  88.2790500  54.8915360  28.6021358  87.5118438  68.6386676
  27.9720019  88.1934719  68.8722073  28.4957446  87.4001520  67.6939814
  23.8966330  87.1790234  59.5652600  23.1065384  87.4347763  59.0892711
  24.3877578  87.9938572  59.6704641  37.9130140  94.5195473  62.3157881
  38.7347584  94.1175660  62.0340563  37.9092543  94.4163707  63.2673997
  25.8481076  87.5434813  56.5236077  25.0512239  87.6553508  57.0419573
  25.6206668  87.8821465  55.6576968  31.6786743  94.0679517  64.4718592
  31.7431176  94.5299924  65.3076764  30.9697667  93.4376881  64.6000902
  22.1804033  87.4320724  61.9967591  22.4312072  88.3167734  62.2625167
  22.7163582  87.2525326  61.2242683  46.0036133  90.8634222  58.6642853
  45.2499841  90.2941620  58.5086857  46.1383674  90.8296886  59.6113487
  31.3934761  95.7347624  54.3397572  31.2580436  96.5799160  54.7682420
  31.9344574  95.9366902  53.5763506  27.8802101  81.8139204  71.0011927
  27.4869046  81.2605402  71.6759571  28.6968241  82.1249782  71.3918445
  24.8464158  93.2523062  54.9125497  25.3588679  94.0466312  55.0631062
  25.4986871  92.5549352  54.8459099  26.6559043  96.3688818  56.9948250
  26.8325672  97.2906783  56.8069234  27.4515877  96.0547238  57.4242630
  30.7970062  83.2297083  68.5932184  31.5379775  83.8304236  68.5136646
  31.0287985  82.4874721  68.0350226  25.9411400  88.4153450  66.8710413
  25.8264915  87.5138707  67.1717512  25.0855917  88.6617147  66.5195230
  33.0203237  96.3571190  68.4697914  32.5767092  95.5707569  68.1518819
  33.6820451  96.5450341  67.8041805  27.7790359  97.8866992  62.9958593
  28.3297784  97.7584055  62.2235587  26.9401835  98.1861881  62.6453485
  35.1184476  96.6373990  66.4979315  35.1002951  97.4582871  66.0059585
  36.0404396  96.5128066  66.7229457  31.5757530  94.1518120  67.3402824
  32.1085866  93.3906408  67.1102132  31.0471611  93.8591772  68.0826978
  22.8113075  91.5811716  55.6885068  23.6488297  91.9908725  55.4718775
  22.9891343  90.6411158  55.6585262  34.7077507  89.2486797  51.3768901
  34.1924131  90.0191402  51.6157288  34.4354816  88.5751933  52.0001962
  32.2924618  84.0936498  56.4354139  31.4366215  83.7043348  56.2559778
  32.7051570  84.1728459  55.5753924  33.8223765  81.6282841  60.8345699
  33.3188561  81.5912976  60.0213504  34.1154372  82.5375584  60.8942355
  30.0666651  81.7121571  59.8411880  30.9319648  81.5164379  59.4817770
  30.1344160  81.4831923  60.7681237  39.6811781  92.0019152  53.3122074
  38.9041224  91.6630311  52.8677236  40.3603262  92.0071775  52.6377039
  34.4963811  87.1213889  53.2028682  34.1913946  87.4360038  54.0538825
  35.4494253  87.1995309  53.2456015  32.9410242  93.2804112  54.8521636
  32.4131604  92.5456872  54.5394873  32.4397745  94.0578789  54.6061604
  37.9203088  91.4753133  59.9688682  37.2626763  92.1652394  60.0568811
  38.7243488  91.8649565  60.3122668  27.6728970  83.9423779  57.2128247
  28.2472722  83.7198960  56.4801440  28.2599952  84.0112473  57.9656849
  36.7308547  89.8297506  58.0192624  37.2440429  90.4627497  58.5214334
  37.3809771  89.2298701  57.6535984  27.9998557  85.9728240  51.2324133
  27.1635869  86.3102926  51.5533407  27.8603327  85.8377219  50.2951270
  29.9751638  80.8165028  55.9403317  29.3216050  80.5014045  55.3159931
  29.9332112  80.1940768  56.6663140  31.0862843  91.0984323  47.8556609
  30.1789904  90.8673576  48.0547758  31.5833875  90.3021942  48.0430590
  33.9930921  99.8081830  50.7753295  33.3192620 100.1113527  51.3838253
  34.3796743 100.6110910  50.4258752  33.2089378  87.3046961  60.2650964
  32.2911939  87.5261908  60.1072652  33.6249522  87.3793272  59.4062672
  33.9924426  88.7038377  55.3953645  34.7396245  89.2159774  55.0860767
  34.2616015  88.3822430  56.2558038  32.2651076  91.1996918  52.3780599
  31.3562295  90.9155950  52.4753069  32.2946160  91.6195996  51.5183906
  37.4970343  94.8103507  56.1471766  37.0432671  93.9694417  56.2036957
  36.8664310  95.4464905  56.4846547  36.4403263  85.7395493  57.3772434
  35.7026020  85.2272879  57.7082676  36.6930037  85.2995875  56.5655711
  35.9403283  96.6480004  57.0821585  36.2326257  97.2085061  56.3633950
  36.4501903  96.9408565  57.8374744  36.5414890  78.5171745  57.9714203
  36.8473767  77.6569108  57.6840118  37.2667495  79.1089365  57.7713197
  22.8339246  88.9202432  56.3595801  22.6363646  88.3271792  55.6346868
  22.2785910  88.6154642  57.0771740  30.8135970  88.8125538  58.4790394
  30.8684580  87.8599375  58.4032871  30.0027172  88.9684977  58.9631693
  31.9627164  92.7405661  49.7168677  31.5246594  92.0241520  49.2574315
  32.7037605  92.9681776  49.1553769  28.7528330  87.4302598  56.2380773
  27.9396195  87.7296768  56.6445965  29.2487324  87.0358287  56.9555255
  30.9036908  97.4260355  58.1715038  30.8613087  97.6521201  57.2423570
  31.8199607  97.1923729  58.3200839  34.3502542  87.8944422  65.0695667
  34.7051929  88.1215895  65.9290133  34.9974673  88.2262799  64.4472922
  40.0800279  91.0162858  55.7744996  39.9418177  91.2064454  54.8466185
  39.7236497  91.7782241  56.2313047  28.2442405  85.0020953  61.8542008
  28.8841784  84.8609712  61.1564971  27.4119935  84.7155467  61.4780610
  40.1069658  93.0839385  60.7856268  40.5406165  92.9914674  61.6339322
  40.8201239  93.0596886  60.1476284  29.0202709  94.3023384  57.9677001
  29.8143307  93.8073704  57.7659575  28.3094401  93.7741247  57.6044706
  33.8397553  96.6841479  62.3189368  33.8934575  97.2532416  63.0867084
  32.9712334  96.8543364  61.9543405  25.3285472  88.4466466  54.0436753
  24.3983060  88.3850921  54.2606715  25.4242944  87.9242418  53.2473394
  25.2471021  84.9721278  56.6314995  25.5077838  85.8866612  56.5224155
  26.0688193  84.5045721  56.7811608  26.7195946  86.3859036  63.8013819
  27.3919000  86.1776398  63.1526468  25.8925733  86.1881122  63.3619052
  40.9685208  93.1263086  63.3189153  41.1621098  94.0308896  63.5648428
  40.8685826  92.6670505  64.1527738  32.6221518  83.0120976  65.8179480
  31.9749434  83.7110926  65.7243957  33.3922534  83.4457120  66.1855728
  36.0300316  93.2769829  68.8930034  35.8785823  93.0480380  67.9760117
  36.0204996  94.2340430  68.9061379  32.7985653  90.8501741  63.8776300
  33.7277713  91.0012901  63.7045267  32.3776683  90.9385762  63.0224946
  31.5973985  94.8752406  61.6474838  31.4585070  94.5071190  62.5200776
  30.8088581  95.3900045  61.4758795  32.1922137  99.9761502  52.9900374
  32.3673892  99.5049545  53.8045997  31.5054925 100.6027268  53.2181635
  33.1479200  94.2534008  59.0363675  32.8129032  94.2134778  59.9321325
  32.6483145  93.5878724  58.5634086  27.1223444  89.6601639  64.5616257
  26.9843242  88.9281877  65.1627796  28.0328367  89.5710539  64.2800444
  36.0838391  91.5990043  49.3100735  35.4667562  90.8736871  49.2133788
  35.6154880  92.3599403  48.9667809  29.7505744  89.3721598  64.0499936
  30.4605363  88.7314790  64.0086555  29.7075053  89.6234493  64.9726117
  37.7392523  96.3088951  66.9706515  37.6805069  95.6248171  66.3037098
  38.1412041  97.0507941  66.5187141  28.4634678  86.3586816  65.8695576
  27.9272035  85.9077554  66.5217172  27.8751387  86.4932725  65.1266040
  26.7583222 103.1250865  59.7640234  26.9979820 103.7569389  60.4419253
  25.9152418 102.7738905  60.0505594  27.8736937  85.8175467  48.4322039
  26.9966404  85.6964268  48.0684286  28.3494690  85.0261545  48.1800928
  37.7409930  94.2728535  65.2020495  36.8536709  93.9354457  65.3246894
  38.3108481  93.5411566  65.4389260  19.3939077  90.6052627  58.5263546
  20.0810117  90.2914357  57.9384562  19.2387206  91.5093992  58.2530798
  24.1973800  85.4942823  62.9548570  24.1131988  84.8868493  62.2198980
  23.3756506  85.9851842  62.9558066  31.2711084  98.9329987  62.1681738
  31.1981255  99.7384959  62.6801043  30.8288477  99.1321953  61.3429760
  31.0600863  98.1701758  55.6784560  30.2768385  98.7123438  55.7722784
  31.7593609  98.6875737  56.0778801  34.3697513  83.9796387  58.3218765
  34.8666213  83.2266349  58.0019835  33.5984495  84.0160704  57.7561975
  42.2227271  89.6836752  59.9637057  42.2117147  90.5661468  59.5930990
  41.3544650  89.3308303  59.7691594  33.7309767  98.8316822  64.3239897
  34.4437739  99.4664286  64.2515798  33.2399796  98.9280687  63.5079899
  35.4527294  92.7368074  55.8957189  34.5183573  92.8569537  55.7261893
  35.6303963  91.8340541  55.6317198  30.9532482  86.1213770  58.0490450
  30.5830270  85.5684810  58.7371355  31.4491575  85.5171903  57.4965450
  38.8399846  88.5785393  56.4307223  39.3060298  89.4113385  56.3567525
  39.2907346  88.1130375  57.1352481  28.7821681  96.5811265  65.1445468
  29.4831140  97.2147748  65.2974862  28.3116796  96.9225997  64.3841107
  36.9076077  94.9229215  53.4293375  37.1835921  94.8085809  54.3387249
  36.0380575  94.5246700  53.3905548  36.5822967  89.1355872  62.9698018
  35.9294417  89.3831780  62.3150471  36.9603347  88.3220011  62.6360495
  33.5430141  99.1715566  57.0726188  33.7252535  98.3537222  57.5353941
  34.3663127  99.3883258  56.6351078  33.8772306  98.0983751  54.3341237
  34.4060073  97.5876205  53.7211399  34.1400526  97.7826281  55.1986770
  32.6310540  89.8775683  69.4564055  31.9551177  89.7769813  70.1266430
  33.4538174  89.7214897  69.9200052  24.3789399  96.1147620  62.0776570
  24.9642836  95.3691308  62.2104475  24.1814237  96.4251577  62.9613234
  27.2328054  99.1498867  57.0939013  26.5638429  99.6344995  56.6103053
  27.0940924  99.3968088  58.0082391  18.9707054  88.6853220  60.7981014
  19.0091153  88.1516811  61.5918132  18.4647346  88.1588426  60.1791991
  31.3733323 101.1842611  63.6921671  31.9251631 101.3474232  64.4570756
  31.7139516 101.7747049  63.0201696  26.3497816  83.5317761  64.2943556
  26.4139142  84.3932592  63.8820954  26.2864936  82.9191762  63.5615914
  25.8250088  85.6040893  67.9416590  26.4522127  85.2217971  68.5554114
  24.9678007  85.3855095  68.3072283  36.2244197  96.0103868  69.5470326
  36.7684101  96.6233827  69.0525280  35.6431042  96.5683447  70.0637339
  22.6015631  87.4117322  53.8734945  22.8969072  86.5028001  53.8201999
  21.7003667  87.3905062  53.5515947  34.5101710  99.1324586  60.6785353
  34.3852849  98.3314326  60.1696299  35.1680801  99.6270780  60.1899323
  26.1309878  85.4873319  59.8562494  25.4096464  86.1009287  59.7169967
  26.9203134  86.0231084  59.7779140  36.5736618  96.9333607  62.3064903
  35.6266954  96.8138958  62.2343230  36.9219391  96.0456105  62.3891165
  28.9336192  82.8227745  66.1303145  29.4570594  83.0690042  66.8929455
  28.7148525  83.6547780  65.7106283  24.3303473  85.0931420  53.9974270
  24.0016179  84.2128799  53.8149376  24.6842843  85.0379089  54.8850659
  33.5783052  96.7286323  58.5069256  33.4308014  95.8003030  58.6876826
  34.4036545  96.7506413  58.0226331  27.4445296  85.3804390  54.3649748
  27.7841368  85.9090311  53.6428356  27.8917416  85.7184796  55.1408314
  37.1817173  97.5514881  59.5934128  38.1063721  97.3457743  59.4558580
  37.0132477  97.3031283  60.5023470  30.1388737  83.7641441  63.8152816
  29.7985557  82.9649254  64.2173496  29.4327743  84.0643151  63.2429649
  30.7905209  80.8490753  62.2680139  31.6131278  80.3751231  62.1459029
  31.0343272  81.6281237  62.7678825  29.4313443  83.8779011  52.5643041
  30.1521806  84.2560264  52.0606757  28.8078747  84.5967888  52.6678019
  33.5744566  84.5824160  53.5001373  33.7908180  85.4648798  53.1990201
  33.0938633  84.1910374  52.7707015  28.3143787  87.5409874  60.0772117
  28.1688368  87.8550177  60.9696399  27.8368991  88.1594774  59.5243016
  30.1740170  84.5312422  60.1253007  30.1601739  83.6353515  59.7885305
  30.8912598  84.5383085  60.7591293  32.0266301  84.9649762  62.1706134
  31.7684079  85.8866832  62.1690465  31.4951341  84.5680196  62.8606599
  36.9712490  98.0700549  54.9496220  37.1449367  97.5046971  54.1970072
  37.4641381  98.8701444  54.7675710  22.7889449  90.0815218  63.0159779
  22.2442918  90.8575026  63.1480053  23.6668799  90.4286022  62.8578900
  29.5777066  83.4126802  55.3940577  29.6992977  82.4843448  55.5931465
  29.2879109  83.4265488  54.4818893  32.4468257  81.0981712  58.5307297
  32.4689953  81.1621045  57.5759277  32.8636316  80.2586221  58.7247803
  42.8251881  90.8336972  56.5686520  43.2683027  90.0844297  56.1705643
  41.9478391  90.8247108  56.1860252  37.9587662  97.3867313  52.0493118
  38.6538567  98.0074006  52.2680433  38.3010812  96.5362665  52.3245496
  23.5755471  89.2085114  65.9089936  22.8337207  89.3567750  66.4954566
  23.2548216  89.4693380  65.0456685  39.8579085  94.8367019  53.5780449
  40.3830409  95.1754292  52.8529769  39.7701438  93.9014034  53.3943584
  31.5199134  98.7501093  65.7070326  31.8286260  98.5050239  66.5793025
  32.3174616  98.9547731  65.2189196  31.5419746 100.9039002  57.9375702
  31.1024736 100.4115381  58.6308559  32.2927863 100.3611970  57.6967777
  24.0212085  97.0950543  57.9400330  24.8470105  96.7954315  57.5598974
  23.6706137  96.3258165  58.3890119  28.9893618  96.4477011  60.0098004
  28.3673627  95.7847716  59.7100232  29.6598485  96.4738143  59.3271652
  22.2220690  95.0136869  58.8989264  21.3852598  94.5859044  58.7173265
  22.1944335  95.2069313  59.8360055  29.0618146  84.9258799  69.6030510
  29.1106301  85.8020922  69.2208279  29.6040660  84.3836192  69.0302153
  39.5472991  95.4699923  68.8831647  38.7568535  95.4524061  68.3436146
  39.3106346  96.0088216  69.6380683  39.6670866  92.3192389  66.1964375
  39.7168871  92.1542396  67.1379898  39.5584790  91.4519648  65.8062256
  28.5507125  94.9980935  53.4856464  28.6995245  95.6816399  52.8323137
  29.3573569  94.9786025  54.0005920  36.9574629  88.3023317  67.5123682
  37.8584492  88.1629782  67.2207680  37.0322603  88.4677772  68.4521860
  31.2917434  85.6790172  66.3576868  30.4220744  85.9723738  66.0859457
  31.5276914  86.2630617  67.0784132  41.1689063  94.7389330  66.4406397
  40.8773872  95.1019311  67.2769858  40.5561195  94.0256339  66.2619729
  42.3684746  92.3042210  58.9608967  43.2031637  92.7432014  59.1246528
  42.5043874  91.8280863  58.1417213  39.4176251  89.8621945  64.9086455
  39.8930373  90.0549591  64.1005306  38.4941817  89.9181131  64.6629839
  26.3059758  91.0246112  54.4917533  26.0605800  90.1208442  54.6897743
  26.4755673  91.0263263  53.5497011  33.9956468  81.8969789  63.8742289
  34.5138412  82.6330816  63.5488777  33.6411601  82.2033782  64.7089048
  25.5755406  86.7574470  51.9903695  24.8824651  86.8318825  51.3343731
  25.3307158  85.9934813  52.5125212  32.0502531  97.4929065  50.9568212
  31.4776498  98.1119252  50.5038684  32.6235324  98.0428427  51.4908134
  38.1177920  86.7387705  63.1414761  39.0695343  86.8385803  63.1626985
  37.9481371  85.9465974  63.6512845  35.2699790  97.7766215  52.0876794
  36.2030464  97.7111777  52.2909670  35.1823003  98.6122482  51.6291327
  37.8987807  97.0932086  49.0480742  37.8201439  96.7591949  49.9416499
  38.7197474  97.5853853  49.0472214  40.5965998  89.9593825  62.2557060
  40.5642318  89.0209826  62.4416744  41.2066622  90.0377862  61.5222885
  32.4349329  88.8289878  48.2984264  33.3808434  88.6996086  48.3672682
  32.0563574  88.0904540  48.7753692  40.7460487  86.7504868  62.3015343
  40.2299535  85.9663325  62.1145272  41.6300435  86.4223585  62.4661863
  38.4071214  80.4945884  58.2611156  38.2096035  80.1860972  59.1454488
  39.0170919  81.2207523  58.3909086  46.4142548  91.0209832  61.3963097
  47.1445937  90.7595120  61.9570800  45.8049494  90.2838554  61.4365165
  44.4957845  89.1617694  61.9937548  43.7691009  89.0273659  61.3854040
  44.0805132  89.4694523  62.7994266  32.3188022  92.8807624  69.7584921
  33.2391031  93.0586223  69.9524968  32.2837605  91.9363669  69.6064620
  30.6192246  86.7539854  48.2339149  29.7123702  86.4572967  48.3101863
  30.8968227  86.4569672  47.3673436  21.5370187  88.0746218  58.6838196
  21.2172971  87.2211526  58.3912570  20.9903615  88.2894796  59.4396163
  25.3150094  90.7908659  62.4007702  25.5336104  91.7225766  62.4195736
  25.7275868  90.4316633  63.1862506  32.2354312  81.2976744  54.3883391
  31.4255040  80.9523829  54.7638637  32.9238729  80.9884288  54.9771002
  34.1644860  80.3754791  56.0107687  34.7175899  80.7950244  56.6697710
  34.4014947  79.4490539  56.0530643  30.1877960  86.3641864  71.7910451
  30.0874686  87.3136221  71.7222542  29.9699502  86.0360103  70.9186521
  29.3891031  83.6126789  48.3751129  30.2510195  83.9381688  48.6346946
  29.5741375  82.8258285  47.8624194  21.4058447  91.6949129  60.6531317
  20.7121918  91.2803082  60.1401272  22.1531438  91.7369666  60.0564736
  37.5423667  82.4855316  55.5186352  36.9622336  83.1440120  55.1364404
  37.2759600  81.6632660  55.1073769  35.9927234  81.8860374  57.7207672
  36.4927012  81.9976908  56.9121991  36.6362842  81.5821426  58.3608480
  30.0509230  89.7939003  70.6075513  29.5676311  90.5939363  70.8139402
  30.1370169  89.8046948  69.6542957  23.3195189  91.6267383  58.5297332
  23.2965877  91.7255070  57.5779215  23.6295826  92.4732534  58.8514498
  25.9782567  93.6843538  62.6443947  26.9325821  93.6527480  62.5773878
  25.7795091  93.2234162  63.4594173  26.5681949  92.2544654  65.2114744
  27.3874838  92.7488733  65.2349582  26.8418757  91.3376622  65.1832312
  36.3248545  84.6455406  54.5742700  35.4374400  84.9305057  54.3562895
  36.7402534  84.4849170  53.7269977  24.3332796  99.2263157  59.6614145
  24.1987264  98.4663558  59.0952143  23.9164858  99.9504057  59.1942933
  35.4691759  94.4100081  48.6690720  36.1727609  94.6150083  49.2848376
  34.7454408  94.9776843  48.9339803  36.2989569  90.1609942  54.7892990
  36.2424771  90.6178494  53.9500622  36.8517912  89.4000627  54.6115833
  44.4206713  88.6895747  58.1214401  43.8606271  88.7588937  58.8945963
  43.8150216  88.5136732  57.4013897  27.4901922 100.1232474  59.8732587
  27.3734306 101.0677907  59.7711278  26.6694368  99.8206036  60.2618386
  37.3778456  94.8482610  50.7189180  38.2124060  94.4163809  50.5366655
  37.2162799  94.6764624  51.6466074  37.0324348  91.3514723  52.0845519
  36.9773152  91.1858995  51.1433963  36.4070404  92.0590756  52.2407709
  21.8216863  86.5882788  65.9106941  22.4675727  86.0781742  66.3994167
  21.6134015  87.3251469  66.4850367  34.3470256  93.6563635  71.4099082
  35.2161415  93.8304288  71.0485717  33.8677007  94.4758052  71.2874811
  30.3420474  80.8522832  51.6630838  30.3299144  81.7964672  51.8199109
  31.2343896  80.6692978  51.3690299  28.5156436 100.7760736  63.0888516
  29.4183683 100.8084347  63.4055011  28.2893806  99.8461187  63.1034851
  30.2710038  99.5291723  59.7498594  29.3205669  99.5293584  59.6362967
  30.5742524  98.7824457  59.2334629  26.1614354  83.7350405  70.0081956
  27.0245816  83.3787210  70.2185280  25.5879765  83.3964300  70.6957360
  46.0062731 105.3652261  60.8144357  46.6441141 105.2459009  60.1107697
  45.8883574 106.3133105  60.8732309  42.8152438 105.3179689  60.7505881
  42.4770949 105.2020754  59.8626416  43.6842206 104.9170854  60.7306888
  38.6739253 107.1715166  56.7402772  38.1104118 107.0805103  55.9719060
  38.5591648 106.3515070  57.2205265  43.2972221 106.4714541  66.7092087
  43.2860861 106.0767339  65.8372591  43.4592860 105.7380614  67.3025858
  36.2203685 108.6666357  59.5786993  37.0124977 108.3257182  59.1633292
  36.4600335 108.7761332  60.4989146  44.2538812 110.8386133  52.0517237
  43.6026792 111.4240214  51.6651251  45.0483175 111.3692328  52.1112275
  38.1794439 107.9275271  52.4504372  38.9525315 107.3804258  52.3117247
  38.5319838 108.7919520  52.6618833  40.0179482 109.2551653  65.6571271
  39.7269348 110.1597284  65.5417937  40.6536466 109.2968180  66.3715340
  40.9435689 106.6328501  62.2472631  41.5399261 106.4084524  61.5329593
  41.0010660 105.8913247  62.8498078  40.5160717 104.0867937  50.0822822
  40.7686238 103.5649458  49.3206285  39.5785276 103.9234082  50.1849505
  45.5604000 103.0903715  57.8897565  46.3467089 102.6723138  57.5387982
  45.8242704 103.9949807  58.0579213  45.7314077 108.5276565  52.5886222
  45.0959910 108.6011192  53.3007126  45.4011484 109.1170164  51.9105301
  50.9612427 103.0278948  58.7930543  51.6937599 102.4578165  59.0268373
  50.2051783 102.6400549  59.2337049  40.2357006 105.9896043  52.2847196
  40.1193264 105.3140946  52.9528281  40.3459266 105.5028417  51.4679350
  42.5788547 105.4506190  55.9893886  42.2146754 104.9236811  56.7006807
  43.4355663 105.0604659  55.8160371  48.4837847  96.7400522  63.2525152
  48.1521172  97.6095933  63.0286367  47.8883461  96.4236806  63.9319182
  42.2194034 100.4796089  50.9855234  42.3868436 101.3476326  51.3525705
  42.0291203 100.6423371  50.0616523  44.9769367 108.9413068  62.6521065
  44.6770090 109.8438107  62.5436872  44.6320426 108.6745252  63.5042217
  38.4281848 105.3926865  58.6857769  37.5032345 105.2603079  58.8935461
  38.6766262 106.1721084  59.1827711  48.3766511 101.4595609  60.3318502
  47.4683388 101.3911017  60.0377263  48.3254106 101.9367553  61.1600327
  42.1983255 102.9353747  51.9701901  42.0782880 103.3810798  52.8087381
  41.5035843 103.2839065  51.4115439  35.7890659 105.0360139  59.5201558
  35.9183041 105.2894618  60.4340970  35.1088111 105.6287847  59.2006213
  42.4507376 102.8785254  68.2753399  41.6740710 103.4379174  68.2656264
  43.0897939 103.3642037  68.7968269  50.2428157  99.6612047  62.1096376
  49.6002537  99.9544580  61.4636170  49.7383086  99.5464967  62.9149572
  47.8968321 103.4075220  52.7982235  48.8086177 103.6402607  52.6229933
  47.3877968 103.9912264  52.2357314  40.7053749 105.6870707  67.8371366
  41.4468433 106.2255751  67.5606190  39.9990734 106.3136996  67.9942918
  46.1809088 107.8299848  66.4343528  46.5892444 107.3882258  65.6898160
  45.4586350 107.2552475  66.6877721  42.5340158 102.7672455  63.8077085
  43.3801354 103.1911868  63.9511734  42.4738796 102.1106079  64.5015648
  46.5037903 108.3901039  60.1895817  45.8746765 108.5546753  59.4871884
  46.1163565 108.8042648  60.9606781  50.3827135 109.3255476  57.5440180
  49.6978173 109.7054378  56.9937214  50.4670984 109.9350803  58.2772128
  45.6839604 100.4276823  65.4658258  45.4400536 101.1818884  64.9292534
  45.9599534 100.8062171  66.3005505  47.6378067 106.9715435  64.1435524
  47.8494962 107.6147195  63.4669905  47.5907815 106.1377752  63.6757454
  45.2404295  99.5833256  61.0472096  44.3788775  99.8814510  61.3388834
  45.2666730  99.8003655  60.1153129  42.0565865 108.1275447  57.4545902
  42.5204210 108.4063150  56.6650524  41.7922663 107.2258891  57.2718992
  38.9489946 107.6746928  60.3925665  39.5191303 108.1034197  59.7543149
  39.5398058 107.3929513  61.0909851  40.9934751 104.2498599  54.2635467
  41.6958794 104.7019643  54.7309393  40.6615379 103.6082418  54.8915360
  39.4415112 102.8410356  68.6386676  38.8113773 103.5226637  68.8722073
  39.3351200 102.7293437  67.6939814  34.7360085 102.5082152  59.5652600
  33.9459139 102.7639680  59.0892711  35.2271332 103.3230490  59.6704641
  48.7523894 109.8487391  62.3157881  49.5741338 109.4467578  62.0340563
  48.7486297 109.7455625  63.2673997  36.6874830 102.8726731  56.5236077
  35.8905994 102.9845425  57.0419573  36.4600422 103.2113383  55.6576968
  42.5180498 109.3971434  64.4718592  42.5824930 109.8591841  65.3076764
  41.8091422 108.7668799  64.6000902  33.0197788 102.7612642  61.9967591
  33.2705826 103.6459652  62.2625167  33.5557336 102.5817244  61.2242683
  56.8429888 106.1926139  58.6642853  56.0893596 105.6233537  58.5086857
  56.9777429 106.1588804  59.6113487  42.2328516 111.0639542  54.3397572
  42.0974190 111.9091077  54.7682420  42.7738328 111.2658819  53.5763506
  38.7195855  97.1431122  71.0011927  38.3262801  96.5897320  71.6759571
  39.5361996  97.4541700  71.3918445  35.6857913 108.5814980  54.9125497
  36.1982434 109.3758230  55.0631062  36.3380626 107.8841270  54.8459099
  37.4952798 111.6980736  56.9948250  37.6719426 112.6198701  56.8069234
  38.2909631 111.3839155  57.4242630  41.6363816  98.5589001  68.5932184
  42.3773530  99.1596154  68.5136646  41.8681739  97.8166638  68.0350226
  36.7805154 103.7445368  66.8710413  36.6658669 102.8430625  67.1717512
  35.9249672 103.9909065  66.5195230  43.8596992 111.6863108  68.4697914
  43.4160846 110.8999487  68.1518819  44.5214206 111.8742259  67.8041805
  38.6184113 113.2158910  62.9958593  39.1691538 113.0875973  62.2235587
  37.7795589 113.5153799  62.6453485  45.9578230 111.9665908  66.4979315
  45.9396705 112.7874789  66.0059585  46.8798150 111.8419983  66.7229457
  42.4151284 109.4810038  67.3402824  42.9479621 108.7198326  67.1102132
  41.8865365 109.1883689  68.0826978  45.5820979  94.5870104  62.8696465
  45.2385249  95.4771745  62.7935576  45.9499942  94.3971761  62.0066050
  33.6506830 106.9103634  55.6885068  34.4882052 107.3200642  55.4718775
  33.8285097 105.9703076  55.6585262  45.5471262 104.5778715  51.3768901
  45.0317885 105.3483319  51.6157288  45.2748570 103.9043851  52.0001962
  43.1318373  99.4228415  56.4354139  42.2759969  99.0335266  56.2559778
  43.5445325  99.5020376  55.5753924  44.6617520  96.9574759  60.8345699
  44.1582315  96.9204894  60.0213504  44.9548126  97.8667501  60.8942355
  40.9060405  97.0413488  59.8411880  41.7713402  96.8456297  59.4817770
  40.9737914  96.8123840  60.7681237  50.5205536 107.3311069  53.3122074
  49.7434979 106.9922229  52.8677236  51.1997017 107.3363692  52.6377039
  45.3357565 102.4505807  53.2028682  45.0307701 102.7651956  54.0538825
  46.2888007 102.5287227  53.2456015  43.7803997 108.6096030  54.8521636
  43.2525358 107.8748790  54.5394873  43.2791500 109.3870706  54.6061604
  48.7596843 106.8045051  59.9688682  48.1020517 107.4944312  60.0568811
  49.5637242 107.1941482  60.3122668  38.5122724  99.2715696  57.2128247
  39.0866476  99.0490878  56.4801440  39.0993707  99.3404391  57.9656849
  47.5702302 105.1589423  58.0192624  48.0834183 105.7919415  58.5214334
  48.2203526 104.5590619  57.6535984  38.8392312 101.3020157  51.2324133
  38.0029624 101.6394844  51.5533407  38.6997081 101.1669137  50.2951270
  40.8145392  96.1456945  55.9403317  40.1609805  95.8305962  55.3159931
  40.7725866  95.5232686  56.6663140  41.9256597 106.4276240  47.8556609
  41.0183659 106.1965494  48.0547758  42.4227629 105.6313860  48.0430590
  44.8324676 115.1373748  50.7753295  44.1586375 115.4405444  51.3838253
  45.2190498 115.9402828  50.4258752  44.0483133 102.6338879  60.2650964
  43.1305694 102.8553826  60.1072652  44.4643276 102.7085189  59.4062672
  44.8318180 104.0330294  55.3953645  45.5789999 104.5451692  55.0860767
  45.1009770 103.7114347  56.2558038  43.1044830 106.5288835  52.3780599
  42.1956050 106.2447868  52.4753069  43.1339914 106.9487914  51.5183906
  48.3364098 110.1395425  56.1471766  47.8826425 109.2986335  56.2036957
  47.7058065 110.7756823  56.4846547  47.2797017 101.0687411  57.3772434
  46.5419774 100.5564797  57.7082676  47.5323791 100.6287792  56.5655711
  46.7797037 111.9771921  57.0821585  47.0720012 112.5376978  56.3633950
  47.2895658 112.2700482  57.8374744  47.3808645  93.8463663  57.9714203
  47.6867522  92.9861026  57.6840118  48.1061250  94.4381283  57.7713197
  33.6733001 104.2494349  56.3595801  33.4757401 103.6563710  55.6346868
  33.1179665 103.9446560  57.0771740  41.6529725 104.1417456  58.4790394
  41.7078334 103.1891292  58.4032871  40.8420927 104.2976895  58.9631693
  42.8020918 108.0697579  49.7168677  42.3640348 107.3533438  49.2574315
  43.5431359 108.2973694  49.1553769  39.5922084 102.7594516  56.2380773
  38.7789950 103.0588686  56.6445965  40.0881079 102.3650204  56.9555255
  41.7430662 112.7552272  58.1715038  41.7006841 112.9813119  57.2423570
  42.6593361 112.5215647  58.3200839  45.1896296 103.2236340  65.0695667
  45.5445684 103.4507813  65.9290133  45.8368427 103.5554717  64.4472922
  50.9194033 106.3454776  55.7744996  50.7811932 106.5356372  54.8466185
  50.5630252 107.1074159  56.2313047  39.0836159 100.3312871  61.8542008
  39.7235539 100.1901630  61.1564971  38.2513690 100.0447384  61.4780610
  50.9463413 108.4131303  60.7856268  51.3799919 108.3206592  61.6339322
  51.6594993 108.3888803  60.1476284  39.8596463 109.6315301  57.9677001
  40.6537062 109.1365622  57.7659575  39.1488155 109.1033165  57.6044706
  44.6791308 112.0133397  62.3189368  44.7328330 112.5824333  63.0867084
  43.8106089 112.1835282  61.9543405  36.1679227 103.7758383  54.0436753
  35.2376815 103.7142839  54.2606715  36.2636699 103.2534336  53.2473394
  36.0864776 100.3013196  56.6314995  36.3471593 101.2158529  56.5224155
  36.9081948  99.8337639  56.7811608  37.5589701 101.7150953  63.8013819
  38.2312754 101.5068315  63.1526468  36.7319487 101.5173039  63.3619052
  51.8078962 108.4555004  63.3189153  52.0014852 109.3600814  63.5648428
  51.7079580 107.9962423  64.1527738  43.4615273  98.3412894  65.8179480
  42.8143188  99.0402844  65.7243957  44.2316288  98.7749038  66.1855728
  46.8694071 108.6061746  68.8930034  46.7179577 108.3772298  67.9760117
  46.8598750 109.5632348  68.9061379  43.6379407 106.1793659  63.8776300
  44.5671467 106.3304819  63.7045267  43.2170437 106.2677680  63.0224946
  42.4367739 110.2044323  61.6474838  42.2978825 109.8363108  62.5200776
  41.6482335 110.7191963  61.4758795  43.0315891 115.3053420  52.9900374
  43.2067647 114.8341463  53.8045997  42.3448679 115.9319186  53.2181635
  43.9872954 109.5825926  59.0363675  43.6522787 109.5426696  59.9321325
  43.4876900 108.9170642  58.5634086  37.9617198 104.9893556  64.5616257
  37.8236996 104.2573795  65.1627796  38.8722122 104.9002456  64.2800444
  46.9232146 106.9281961  49.3100735  46.3061317 106.2028789  49.2133788
  46.4548634 107.6891321  48.9667809  40.5899499 104.7013516  64.0499936
  41.2999117 104.0606708  64.0086555  40.5468807 104.9526410  64.9726117
  48.5786278 111.6380869  66.9706515  48.5198824 110.9540089  66.3037098
  48.9805796 112.3799859  66.5187141  39.3028433 101.6878733  65.8695576
  38.7665790 101.2369472  66.5217172  38.7145141 101.8224642  65.1266040
  38.7130692 101.1467385  48.4322039  37.8360158 101.0256186  48.0684286
  39.1888445 100.3553463  48.1800928  48.5803685 109.6020453  65.2020495
  47.6930464 109.2646375  65.3246894  49.1502236 108.8703484  65.4389260
  30.2332832 105.9344545  58.5263546  30.9203872 105.6206275  57.9384562
  30.0780961 106.8385909  58.2530798  35.0367554 100.8234741  62.9548570
  34.9525743 100.2160411  62.2198980  34.2150260 101.3143759  62.9558066
  42.1104838 114.2621905  62.1681738  42.0375010 115.0676877  62.6801043
  41.6682231 114.4613871  61.3429760  41.8994618 113.4993675  55.6784560
  41.1162140 114.0415355  55.7722784  42.5987363 114.0167655  56.0778801
  45.2091268  99.3088305  58.3218765  45.7059968  98.5558267  58.0019835
  44.4378249  99.3452621  57.7561975  53.0621025 105.0128670  59.9637057
  53.0510902 105.8953386  59.5930990  52.1938405 104.6600221  59.7691594
  44.5703522 114.1608739  64.3239897  45.2831494 114.7956204  64.2515798
  44.0793550 114.2572605  63.5079899  46.2921049 108.0659992  55.8957189
  45.3577327 108.1861454  55.7261893  46.4697717 107.1632459  55.6317198
  41.7926237 101.4505688  58.0490450  41.4224024 100.8976728  58.7371355
  42.2885329 100.8463821  57.4965450  49.6793600 103.9077311  56.4307223
  50.1454052 104.7405303  56.3567525  50.1301101 103.4422293  57.1352481
  39.6215435 111.9103183  65.1445468  40.3224895 112.5439666  65.2974862
  39.1510550 112.2517914  64.3841107  47.7469831 110.2521132  53.4293375
  48.0229675 110.1377727  54.3387249  46.8774330 109.8538617  53.3905548
  47.6510263  96.2757898  60.4698124  46.7373343  96.5062125  60.6380331
  48.0803364  96.3596342  61.3212156  47.4216721 104.4647790  62.9698018
  46.7688171 104.7123698  62.3150471  47.7997101 103.6511928  62.6360495
  44.3823895 114.5007483  57.0726188  44.5646290 113.6829139  57.5353941
  45.2056881 114.7175176  56.6351078  44.7166061 113.4275668  54.3341237
  45.2453827 112.9168123  53.7211399  44.9794280 113.1118199  55.1986770
  43.4704294 105.2067601  69.4564055  42.7944931 105.1061730  70.1266430
  44.2931928 105.0506815  69.9200052  35.2183153 111.4439538  62.0776570
  35.8036590 110.6983226  62.2104475  35.0207992 111.7543494  62.9613234
  29.8100808 104.0145138  60.7981014  29.8484908 103.4808729  61.5918132
  29.3041101 103.4880343  60.1791991  37.1891570  98.8609678  64.2943556
  37.2532897  99.7224509  63.8820954  37.1258691  98.2483680  63.5615914
  36.6643843 100.9332811  67.9416590  37.2915882 100.5509888  68.5554114
  35.8071762 100.7147013  68.3072283  47.0637951 111.3395786  69.5470326
  47.6077855 111.9525744  69.0525280  46.4824796 111.8975365  70.0637339
  33.4409386 102.7409240  53.8734945  33.7362827 101.8319918  53.8201999
  32.5397421 102.7196980  53.5515947  45.3495464 114.4616504  60.6785353
  45.2246604 113.6606244  60.1696299  46.0074556 114.9562697  60.1899323
  36.9703633 100.8165237  59.8562494  36.2490218 101.4301204  59.7169967
  37.7596888 101.3523001  59.7779140  47.4130373 112.2625524  62.3064903
  46.4660708 112.1430875  62.2343230  47.7613146 111.3748022  62.3891165
  39.7729946  98.1519663  66.1303145  40.2964348  98.3981960  66.8929455
  39.5542279  98.9839698  65.7106283  35.1697227 100.4223338  53.9974270
  34.8409933  99.5420717  53.8149376  35.5236598 100.3671006  54.8850659
  44.4176806 112.0578240  58.5069256  44.2701769 111.1294948  58.6876826
  45.2430300 112.0798331  58.0226331  38.2839050 100.7096308  54.3649748
  38.6235123 101.2382229  53.6428356  38.7311171 101.0476714  55.1408314
  48.0210928 112.8806799  59.5934128  48.9457475 112.6749661  59.4558580
  47.8526231 112.6323200  60.5023470  40.9782491  99.0933358  63.8152816
  40.6379312  98.2941171  64.2173496  40.2721497  99.3935069  63.2429649
  41.6298963  96.1782671  62.2680139  42.4525032  95.7043149  62.1459029
  41.8737027  96.9573154  62.7678825  40.2707198  99.2070929  52.5643041
  40.9915560  99.5852182  52.0606757  39.6472502  99.9259806  52.6678019
  44.4138320  99.9116078  53.5001373  44.6301935 100.7940716  53.1990201
  43.9332388  99.5202291  52.7707015  39.1537542 102.8701791  60.0772117
  39.0082123 103.1842094  60.9696399  38.6762745 103.4886692  59.5243016
  41.0133925  99.8604339  60.1253007  40.9995493  98.9645433  59.7885305
  41.7306353  99.8675003  60.7591293  42.8660055 100.2941679  62.1706134
  42.6077833 101.2158750  62.1690465  42.3345096  99.8972114  62.8606599
  47.8106244 113.3992467  54.9496220  47.9843122 112.8338889  54.1970072
  48.3035135 114.1993362  54.7675710  33.6283204 105.4107136  63.0159779
  33.0836672 106.1866944  63.1480053  34.5062554 105.7577940  62.8578900
  40.4170821  98.7418720  55.3940577  40.5386732  97.8135366  55.5931465
  40.1272863  98.7557406  54.4818893  43.2862011  96.4273630  58.5307297
  43.3083708  96.4912963  57.5759277  43.7030070  95.5878139  58.7247803
  53.6645635 106.1628890  56.5686520  54.1076781 105.4136215  56.1705643
  52.7872146 106.1539026  56.1860252  48.7981417 112.7159231  52.0493118
  49.4932321 113.3365924  52.2680433  49.1404567 111.8654582  52.3245496
  34.4149226 104.5377032  65.9089936  33.6730962 104.6859667  66.4954566
  34.0941970 104.7985298  65.0456685  50.6972840 110.1658937  53.5780449
  51.2224164 110.5046209  52.8529769  50.6095192 109.2305952  53.3943584
  42.3592888 114.0793010  65.7070326  42.6680015 113.8342157  66.5793025
  43.1568370 114.2839649  65.2189196  34.8605840 112.4242461  57.9400330
  35.6863859 112.1246233  57.5598974  34.5099891 111.6550083  58.3890119
  39.8287373 111.7768929  60.0098004  39.2067382 111.1139634  59.7100232
  40.4992240 111.8030061  59.3271652  33.0614445 110.3428787  58.8989264
  32.2246353 109.9150962  58.7173265  33.0338090 110.5361230  59.8360055
  39.9011900 100.2550717  69.6030510  39.9500056 101.1312840  69.2208279
  40.4434414  99.7128110  69.0302153  50.3866746 110.7991840  68.8831647
  49.5962290 110.7815979  68.3436146  50.1500100 111.3380134  69.6380683
  50.5064621 107.6484307  66.1964375  50.5562626 107.4834314  67.1379898
  50.3978544 106.7811566  65.8062256  39.3900880 110.3272852  53.4856464
  39.5389000 111.0108317  52.8323137  40.1967323 110.3077942  54.0005920
  47.7968383 103.6315235  67.5123682  48.6978246 103.4921699  67.2207680
  47.8716358 103.7969689  68.4521860  42.1311189 101.0082089  66.3576868
  41.2614498 101.3015655  66.0859457  42.3670669 101.5922534  67.0784132
  52.0082818 110.0681248  66.4406397  51.7167626 110.4311229  67.2769858
  51.3954949 109.3548256  66.2619729  53.2078500 107.6334128  58.9608967
  54.0425391 108.0723932  59.1246528  53.3437629 107.1572781  58.1417213
  50.2570006 105.1913863  64.9086455  50.7324128 105.3841509  64.1005306
  49.3335571 105.2473049  64.6629839  37.1453513 106.3538030  54.4917533
  36.8999554 105.4500360  54.6897743  37.3149427 106.3555180  53.5497011
  44.8350222  97.2261706  63.8742289  45.3532166  97.9622733  63.5488777
  44.4805355  97.5325700  64.7089048  36.4149160 102.0866387  51.9903695
  35.7218405 102.1610742  51.3343731  36.1700912 101.3226731  52.5125212
  45.0862817  93.6461989  59.3943185  45.3664570  92.9785178  60.0203612
  45.8713424  93.8391084  58.8817849  42.8896285 112.8220983  50.9568212
  42.3170252 113.4411170  50.5038684  43.4629079 113.3720344  51.4908134
  48.9571675 102.0679623  63.1414761  49.9089098 102.1677720  63.1626985
  48.7875125 101.2757891  63.6512845  46.9786054  99.1535206  63.3274161
  46.3835987  99.4340219  62.6320650  46.6935751  99.6429107  64.0990903
  46.1093545 113.1058133  52.0876794  47.0424218 113.0403695  52.2909670
  46.0216758 113.9414400  51.6291327  48.7381562 112.4224003  49.0480742
  48.6595193 112.0883867  49.9416499  49.5591228 112.9145771  49.0472214
  51.4359753 105.2885742  62.2557060  51.4036073 104.3501743  62.4416744
  52.0460376 105.3669779  61.5222885  43.2743084 104.1581795  48.2984264
  44.2202188 104.0288004  48.3672682  42.8957329 103.4196457  48.7753692
  51.5854241 102.0796786  62.3015343  51.0693290 101.2955243  62.1145272
  52.4694190 101.7515503  62.4661863  49.2464968  95.8237801  58.2611156
  49.0489789  95.5152890  59.1454488  49.8564674  96.5499440  58.3909086
  57.2536303 106.3501749  61.3963097  57.9839691 106.0887037  61.9570800
  56.6443248 105.6130471  61.4365165  55.3351600 104.4909612  61.9937548
  54.6084763 104.3565577  61.3854040  54.9198887 104.7986441  62.7994266
  43.1581776 108.2099542  69.7584921  44.0784786 108.3878141  69.9524968
  43.1231359 107.2655587  69.6064620  41.4586001 102.0831772  48.2339149
  40.5517456 101.7864885  48.3101863  41.7361982 101.7861590  47.3673436
  32.3763941 103.4038135  58.6838196  32.0566725 102.5503443  58.3912570
  31.8297369 103.6186713  59.4396163  36.1543849 106.1200576  62.4007702
  36.3729858 107.0517684  62.4195736  36.5669623 105.7608551  63.1862506
  43.0748066  96.6268662  54.3883391  42.2648795  96.2815747  54.7638637
  43.7632483  96.3176205  54.9771002  45.0038615  95.7046708  56.0107687
  45.5569653  96.1242162  56.6697710  45.2408701  94.7782456  56.0530643
  41.0271714 101.6933782  71.7910451  40.9268441 102.6428139  71.7222542
  40.8093256 101.3652021  70.9186521  40.2284785  98.9418707  48.3751129
  41.0903949  99.2673605  48.6346946  40.4135130  98.1550203  47.8624194
  32.2452201 107.0241047  60.6531317  31.5515673 106.6095000  60.1401272
  32.9925192 107.0661583  60.0564736  48.3817422  97.8147234  55.5186352
  47.8016091  98.4732038  55.1364404  48.1153355  96.9924578  55.1073769
  46.8320988  97.2152291  57.7207672  47.3320767  97.3268826  56.9121991
  47.4756596  96.9113344  58.3608480  40.8902984 105.1230921  70.6075513
  40.4070066 105.9231281  70.8139402  40.9763923 105.1338866  69.6542957
  34.1588944 106.9559301  58.5297332  34.1359632 107.0546988  57.5779215
  34.4689580 107.8024451  58.8514498  36.8176322 109.0135456  62.6443947
  37.7719575 108.9819398  62.5773878  36.6188845 108.5526079  63.4594173
  37.4075704 107.5836572  65.2114744  38.2268593 108.0780650  65.2349582
  37.6812511 106.6668540  65.1832312  47.1642300  99.9747324  54.5742700
  46.2768155 100.2596975  54.3562895  47.5796289  99.8141087  53.7269977
  50.5156836  99.9993845  58.2897039  51.2917226 100.4890297  58.5621656
  49.7904970 100.4251899  58.7468909  52.9529395 100.7121464  59.3470980
  53.5473885 100.4717200  58.6364288  53.0255978  99.9928595  59.9744516
  46.3085513 109.7391999  48.6690720  47.0121363 109.9442001  49.2848376
  45.5848162 110.3068760  48.9339803  47.1383324 105.4901860  54.7892990
  47.0818525 105.9470411  53.9500622  47.6911666 104.7292544  54.6115833
  50.9488130 101.2791592  55.6143110  50.6925064 100.8788227  56.4451317
  50.3240998 101.9935386  55.4893249  55.2600467 104.0187665  58.1214401
  54.7000025 104.0880854  58.8945963  54.6543971 103.8428650  57.4013897
  48.2172211 110.1774528  50.7189180  49.0517815 109.7455726  50.5366655
  48.0556554 110.0056541  51.6466074  47.8718103 106.6806641  52.0845519
  47.8166907 106.5150913  51.1433963  47.2464158 107.3882674  52.2407709
  32.6610618 101.9174705  65.9106941  33.3069482 101.4073659  66.3994167
  32.4527769 102.6543387  66.4850367  45.1864010 108.9855553  71.4099082
  46.0555170 109.1596205  71.0485717  44.7070762 109.8049970  71.2874811
  41.1814228  96.1814750  51.6630838  41.1692898  97.1256590  51.8199109
  42.0737650  95.9984896  51.3690299  41.1103792 114.8583641  59.7498594
  40.1599423 114.8585502  59.6362967  41.4136278 114.1116375  59.2334629
  44.9966348  92.7757527  55.9176774  44.2298744  92.2216013  56.0633457
  45.4077053  92.8479395  56.7790926  37.0008109  99.0642323  70.0081956
  37.8639570  98.7079127  70.2185280  36.4273520  98.7256217  70.6957360
  56.3997754 118.4195633  57.8897565  57.1860844 118.0015056  57.5387982
  56.6636459 119.3241725  58.0579213  61.8006181 118.3570866  58.7930543
  62.5331353 117.7870083  59.0268373  61.0445537 117.9692466  59.2337049
  59.3231602 112.0692440  63.2525152  58.9914927 112.9387851  63.0286367
  58.7277215 111.7528724  63.9319182  53.0587788 115.8088007  50.9855234
  53.2262191 116.6768244  51.3525705  52.8684957 115.9715289  50.0616523
  59.2160265 116.7887526  60.3318502  58.3077142 116.7202935  60.0377263
  59.1647861 117.2659471  61.1600327  53.0377009 118.2645665  51.9701901
  52.9176634 118.7102715  52.8087381  52.3429597 118.6130982  51.4115439
  53.2901131 118.2077172  68.2753399  52.5134465 118.7671092  68.2656264
  53.9291694 118.6933955  68.7968269  61.0821912 114.9903965  62.1096376
  60.4396292 115.2836498  61.4636170  60.5776840 114.8756885  62.9149572
  58.7362075 118.7367138  52.7982235  59.6479931 118.9694525  52.6229933
  58.2271722 119.3204182  52.2357314  53.3733913 118.0964372  63.8077085
  54.2195108 118.5203786  63.9511734  53.3132551 117.4397997  64.5015648
  56.5233358 115.7568741  65.4658258  56.2794290 116.5110801  64.9292534
  56.7993289 116.1354088  66.3005505  56.0798050 114.9125174  61.0472096
  55.2182529 115.2106427  61.3388834  56.1060485 115.1295573  60.1153129
  67.6823642 121.5218057  58.6642853  66.9287350 120.9525455  58.5086857
  67.8171183 121.4880722  59.6113487  49.5589610 112.4723039  71.0011927
  49.1656555 111.9189238  71.6759571  50.3755750 112.7833618  71.3918445
  52.4757571 113.8880918  68.5932184  53.2167284 114.4888071  68.5136646
  52.7075494 113.1458556  68.0350226  56.4214734 109.9162021  62.8696465
  56.0779003 110.8063663  62.7935576  56.7893696 109.7263679  62.0066050
  56.3865016 119.9070632  51.3768901  55.8711640 120.6775237  51.6157288
  56.1142325 119.2335768  52.0001962  53.9712127 114.7520333  56.4354139
  53.1153724 114.3627184  56.2559778  54.3839079 114.8312294  55.5753924
  55.5011274 112.2866676  60.8345699  54.9976070 112.2496812  60.0213504
  55.7941881 113.1959419  60.8942355  51.7454160 112.3705406  59.8411880
  52.6107157 112.1748215  59.4817770  51.8131669 112.1415758  60.7681237
  61.3599290 122.6602987  53.3122074  60.5828733 122.3214146  52.8677236
  62.0390771 122.6655610  52.6377039  56.1751320 117.7797724  53.2028682
  55.8701455 118.0943874  54.0538825  57.1281762 117.8579144  53.2456015
  49.3516479 114.6007614  57.2128247  49.9260231 114.3782796  56.4801440
  49.9387461 114.6696309  57.9656849  58.4096056 120.4881341  58.0192624
  58.9227938 121.1211333  58.5214334  59.0597280 119.8882536  57.6535984
  49.6786066 116.6312075  51.2324133  48.8423378 116.9686762  51.5533407
  49.5390836 116.4961055  50.2951270  51.6539147 111.4748863  55.9403317
  51.0003559 111.1597880  55.3159931  51.6119621 110.8524603  56.6663140
  54.8876887 117.9630796  60.2650964  53.9699448 118.1845743  60.1072652
  55.3037031 118.0377107  59.4062672  55.6711935 119.3622212  55.3953645
  56.4183754 119.8743609  55.0860767  55.9403524 119.0406265  56.2558038
  58.1190772 116.3979328  57.3772434  57.3813529 115.8856715  57.7082676
  58.3717545 115.9579710  56.5655711  58.2202399 109.1755580  57.9714203
  58.5261276 108.3152944  57.6840118  58.9455004 109.7673201  57.7713197
  50.4315839 118.0886433  56.2380773  49.6183704 118.3880604  56.6445965
  50.9274833 117.6942122  56.9555255  56.0290051 118.5528258  65.0695667
  56.3839438 118.7799731  65.9290133  56.6762182 118.8846634  64.4472922
  61.7587788 121.6746694  55.7744996  61.6205686 121.8648290  54.8466185
  61.4024006 122.4366076  56.2313047  49.9229914 115.6604789  61.8542008
  50.5629293 115.5193548  61.1564971  49.0907444 115.3739302  61.4780610
  46.9258530 115.6305114  56.6314995  47.1865347 116.5450447  56.5224155
  47.7475702 115.1629556  56.7811608  48.3983455 117.0442871  63.8013819
  49.0706509 116.8360233  63.1526468  47.5713242 116.8464957  63.3619052
  54.3009027 113.6704812  65.8179480  53.6536943 114.3694761  65.7243957
  55.0710043 114.1040956  66.1855728  50.1422187 117.0170651  65.8695576
  49.6059544 116.5661390  66.5217172  49.5538896 117.1516560  65.1266040
  49.5524446 116.4759302  48.4322039  48.6753913 116.3548103  48.0684286
  50.0282199 115.6845381  48.1800928  45.8761309 116.1526659  62.9548570
  45.7919497 115.5452328  62.2198980  45.0544015 116.6435677  62.9558066
  56.0485022 114.6380222  58.3218765  56.5453722 113.8850185  58.0019835
  55.2772004 114.6744539  57.7561975  63.9014780 120.3420588  59.9637057
  63.8904656 121.2245303  59.5930990  63.0332159 119.9892139  59.7691594
  52.6319991 116.7797605  58.0490450  52.2617779 116.2268646  58.7371355
  53.1279084 116.1755739  57.4965450  60.5187354 119.2369229  56.4307223
  60.9847807 120.0697220  56.3567525  60.9694855 118.7714210  57.1352481
  58.4904017 111.6049816  60.4698124  57.5767097 111.8354043  60.6380331
  58.9197119 111.6888260  61.3212156  58.2610476 119.7939708  62.9698018
  57.6081926 120.0415615  62.3150471  58.6390856 118.9803846  62.6360495
  48.0285325 114.1901596  64.2943556  48.0926651 115.0516427  63.8820954
  47.9652445 113.5775598  63.5615914  47.5037597 116.2624729  67.9416590
  48.1309636 115.8801806  68.5554114  46.6465516 116.0438931  68.3072283
  47.8097387 116.1457154  59.8562494  47.0883973 116.7593122  59.7169967
  48.5990643 116.6814919  59.7779140  50.6123701 113.4811581  66.1303145
  51.1358102 113.7273877  66.8929455  50.3936034 114.3131616  65.7106283
  46.0090982 115.7515255  53.9974270  45.6803688 114.8712634  53.8149376
  46.3630352 115.6962924  54.8850659  49.1232805 116.0388225  54.3649748
  49.4628877 116.5674146  53.6428356  49.5704925 116.3768631  55.1408314
  51.8176246 114.4225276  63.8152816  51.4773066 113.6233089  64.2173496
  51.1115252 114.7226987  63.2429649  52.4692718 111.5074588  62.2680139
  53.2918787 111.0335067  62.1459029  52.7130781 112.2865072  62.7678825
  51.1100952 114.5362847  52.5643041  51.8309315 114.9144100  52.0606757
  50.4866256 115.2551724  52.6678019  55.2532075 115.2407996  53.5001373
  55.4695689 116.1232634  53.1990201  54.7726142 114.8494209  52.7707015
  51.8527679 115.1896257  60.1253007  51.8389248 114.2937350  59.7885305
  52.5700107 115.1966921  60.7591293  53.7053810 115.6233597  62.1706134
  53.4471588 116.5450668  62.1690465  53.1738850 115.2264032  62.8606599
  51.2564575 114.0710637  55.3940577  51.3780486 113.1427283  55.5931465
  50.9666617 114.0849323  54.4818893  54.1255765 111.7565548  58.5307297
  54.1477462 111.8204881  57.5759277  54.5423825 110.9170056  58.7247803
  64.5039390 121.4920807  56.5686520  64.9470536 120.7428132  56.1705643
  63.6265900 121.4830944  56.1860252  50.7405655 115.5842635  69.6030510
  50.7893810 116.4604757  69.2208279  51.2828169 115.0420028  69.0302153
  58.6362138 118.9607152  67.5123682  59.5372001 118.8213617  67.2207680
  58.7110112 119.1261607  68.4521860  52.9704943 116.3374007  66.3576868
  52.1008253 116.6307573  66.0859457  53.2064423 116.9214452  67.0784132
  64.0472255 122.9626046  58.9608967  64.8819146 123.4015850  59.1246528
  64.1831383 122.4864699  58.1417213  61.0963760 120.5205780  64.9086455
  61.5717882 120.7133427  64.1005306  60.1729326 120.5764966  64.6629839
  55.6743977 112.5553624  63.8742289  56.1925921 113.2914651  63.5488777
  55.3199110 112.8617617  64.7089048  47.2542915 117.4158305  51.9903695
  46.5612160 117.4902660  51.3343731  47.0094666 116.6518649  52.5125212
  55.9256571 108.9753906  59.3943185  56.2058325 108.3077096  60.0203612
  56.7107178 109.1683002  58.8817849  59.7965429 117.3971540  63.1414761
  60.7482852 117.4969638  63.1626985  59.6268880 116.6049809  63.6512845
  57.8179809 114.4827124  63.3274161  57.2229741 114.7632136  62.6320650
  57.5329506 114.9721025  64.0990903  62.2753507 120.6177660  62.2557060
  62.2429827 119.6793661  62.4416744  62.8854131 120.6961697  61.5222885
  54.1136838 119.4873713  48.2984264  55.0595943 119.3579921  48.3672682
  53.7351083 118.7488375  48.7753692  62.4247996 117.4088704  62.3015343
  61.9087044 116.6247160  62.1145272  63.3087944 117.0807420  62.4661863
  60.0858723 111.1529719  58.2611156  59.8883544 110.8444807  59.1454488
  60.6958428 111.8791358  58.3909086  68.0930057 121.6793667  61.3963097
  68.8233446 121.4178955  61.9570800  67.4837003 120.9422389  61.4365165
  66.1745354 119.8201530  61.9937548  65.4478518 119.6857495  61.3854040
  65.7592641 120.1278358  62.7994266  52.2979755 117.4123690  48.2339149
  51.3911211 117.1156802  48.3101863  52.5755736 117.1153508  47.3673436
  53.9141821 111.9560579  54.3883391  53.1042549 111.6107664  54.7638637
  54.6026238 111.6468123  54.9771002  55.8432369 111.0338626  56.0107687
  56.3963408 111.4534079  56.6697710  56.0802456 110.1074374  56.0530643
  51.8665468 117.0225700  71.7910451  51.7662195 117.9720057  71.7222542
  51.6487011 116.6943939  70.9186521  51.0678540 114.2710625  48.3751129
  51.9297704 114.5965523  48.6346946  51.2528884 113.4842121  47.8624194
  59.2211176 113.1439151  55.5186352  58.6409845 113.8023955  55.1364404
  58.9547109 112.3216496  55.1073769  57.6714743 112.5444209  57.7207672
  58.1714521 112.6560743  56.9121991  58.3150351 112.2405262  58.3608480
  58.0036054 115.3039242  54.5742700  57.1161909 115.5888892  54.3562895
  58.4190043 115.1433005  53.7269977  61.3550591 115.3285763  58.2897039
  62.1310981 115.8182215  58.5621656  60.6298725 115.7543817  58.7468909
  63.7923149 116.0413382  59.3470980  64.3867640 115.8009118  58.6364288
  63.8649733 115.3220512  59.9744516  57.9777078 120.8193778  54.7892990
  57.9212280 121.2762329  53.9500622  58.5305421 120.0584462  54.6115833
  61.7881884 116.6083509  55.6143110  61.5318818 116.2080145  56.4451317
  61.1634752 117.3227303  55.4893249  66.0994222 119.3479583  58.1214401
  65.5393780 119.4172772  58.8945963  65.4937725 119.1720567  57.4013897
  52.0207983 111.5106668  51.6630838  52.0086653 112.4548508  51.8199109
  52.9131405 111.3276813  51.3690299  55.8360102 108.1049444  55.9176774
  55.0692498 107.5507931  56.0633457  56.2470807 108.1771313  56.7790926
  47.8401863 114.3934240  70.0081956  48.7033325 114.0371045  70.2185280
  47.2667274 114.0548135  70.6957360  69.0596154 124.5047498  57.9714203
  69.3655031 123.6444862  57.6840118  69.7848759 125.0965118  57.7713197
  66.7650326 124.3045824  59.3943185  67.0452079 123.6369013  60.0203612
  67.5500933 124.4974920  58.8817849  66.6753857 123.4341362  55.9176774
  65.9086253 122.8799849  56.0633457  67.0864562 123.5063231  56.7790926
   2.6487715  21.0546713  47.5389663   3.2866125  20.9353460  46.8353003
   2.5308558  22.0027557  47.5977615   2.2028983  18.7798167  44.6142871
   2.9892072  18.3617590  44.2633288   2.4667687  19.6844259  44.7824520
   2.3739060  24.2171017  39.3131528   1.7384893  24.2905644  40.0252433
   2.0436467  24.8064616  38.6350607   7.6037410  18.7173400  45.5175850
   8.3362582  18.1472617  45.7513679   6.8476766  18.3295001  45.9582355
   1.6194350  24.6307520  49.3766371   1.3195073  25.5332559  49.2682178
   1.2745410  24.3639703  50.2287524   5.0191494  17.1490060  47.0563809
   4.1108371  17.0805469  46.7622570   4.9679090  17.6262005  47.8845634
   6.8853140  15.3506499  48.8341682   6.2427521  15.6439032  48.1881477
   6.3808069  15.2359419  49.6394879   4.5393304  19.0969672  39.5227542
   5.4511160  19.3297059  39.3475239   4.0302951  19.6806716  38.9602620
   2.8234072  23.5194300  53.1588834   3.2317428  23.0776710  52.4143467
   2.1011333  22.9446927  53.4123027   3.1462886  24.0795490  46.9141123
   2.5171749  24.2441205  46.2117191   2.7588548  24.4937100  47.6852087
   7.0252118  25.0149928  44.2685487   6.3403156  25.3948830  43.7182520
   7.1095968  25.6245255  45.0017435   4.2803050  22.6609887  50.8680830
   4.4919945  23.3041647  50.1915212   4.2332798  21.8272204  50.4002761
   5.3948878  25.5381843  49.0403188   6.2166321  25.1362030  48.7585869
   5.3911281  25.4350077  49.9919304  13.4854871  21.8820591  45.3888159
  12.7318579  21.3127989  45.2332164  13.6202412  21.8483256  46.3358794
   2.6003213  27.6560360  53.2224622   2.5821689  28.4769241  52.7304891
   3.5223133  27.5314435  53.4474763   2.1896245  20.2673167  38.1014207
   1.6742869  21.0377771  38.3402595   1.9173554  19.5938303  38.7247269
   7.1630519  23.0205521  40.0367381   6.3859962  22.6816681  39.5922543
   7.8422000  23.0258144  39.3622346   1.9782548  18.1400259  39.9273988
   1.6732684  18.4546408  40.7784132   2.9312990  18.2181679  39.9701321
   5.4021826  22.4939502  46.6933989   4.7445501  23.1838764  46.7814117
   6.2062225  22.8835934  47.0367975   4.2127285  20.8483875  44.7437930
   4.7259167  21.4813867  45.2459640   4.8628509  20.2485071  44.3781290
   1.4749659  30.8268199  37.4998602   0.8011358  31.1299896  38.1083559
   1.8615481  31.6297280  37.1504059   1.4743164  19.7224746  42.1198951
   2.2214983  20.2346144  41.8106073   1.7434753  19.4008799  42.9803345
   4.9789081  25.8289877  42.8717073   4.5251408  24.9880786  42.9282264
   4.3483048  26.4651275  43.2091853   3.9222001  16.7581863  44.1017741
   3.1844758  16.2459249  44.4327983   4.1748774  16.3182244  43.2901017
   3.4222020  27.6666373  43.8066891   3.7144995  28.2271430  43.0879257
   3.9320641  27.9594934  44.5620050   1.8321279  18.9130792  51.7940974
   2.1870667  19.1402265  52.6535439   2.4793411  19.2449169  51.1718229
   7.5619016  22.0349228  42.4990303   7.4236915  22.2250824  41.5711492
   7.2055235  22.7968611  42.9558354   7.5888396  24.1025755  47.5101574
   8.0224903  24.0101044  48.3584628   8.3019977  24.0783255  46.8721590
   1.3216291  27.7027849  49.0434675   1.3753313  28.2718785  49.8112391
   0.4531072  27.8729734  48.6788712   8.4503946  24.1449455  50.0434460
   8.6439836  25.0495266  50.2893734   8.3504564  23.6856875  50.8773045
   3.5119054  24.2956198  55.6175340   3.3604561  24.0666750  54.7005424
   3.5023734  25.2526800  55.6306685   3.5657129  22.6176412  36.0346042
   2.9486300  21.8923241  35.9379094   3.0973618  23.3785773  35.6913116
   5.2211261  27.3275321  53.6951822   5.1623807  26.6434541  53.0282405
   5.6230779  28.0694311  53.2432448   5.2228668  25.2914905  51.9265802
   4.3355447  24.9540826  52.0492201   5.7927219  24.5597936  52.1634567
   9.7046009  20.7023122  46.6882363   9.6935885  21.5847837  46.3176296
   8.8363388  20.3494673  46.4936900   1.2128505  29.8503191  51.0485204
   1.9256477  30.4850656  50.9761105   0.7218534  29.9467057  50.2325205
   2.9346032  23.7554444  42.6202495   2.0002311  23.8755906  42.4507200
   3.1122700  22.8526911  42.3562505   6.3218583  19.5971763  43.1552529
   6.7879036  20.4299755  43.0812832   6.7726084  19.1316745  43.8597788
   4.3894814  25.9415584  40.1538681   4.6654658  25.8272179  41.0632555
   3.5199313  25.5433069  40.1150855   4.0641705  20.1542242  49.6943325
   3.4113155  20.4018149  49.0395778   4.4422084  19.3406380  49.3605802
   1.0248878  30.1901935  43.7971495   1.2071273  29.3723591  44.2599247
   1.8481864  30.4069627  43.3596385   1.3591044  29.1170120  41.0586544
   1.8878810  28.6062575  40.4456706   1.6219264  28.8012651  41.9232077
   3.7062935  27.0290238  56.2715632   4.2502839  27.6420196  55.7770587
   3.1249780  27.5869816  56.7882645   1.9920448  30.1510956  47.4030660
   1.8671587  29.3500696  46.8941605   2.6499539  30.6457149  46.9144630
   4.0555356  27.9519976  49.0310210   3.1085692  27.8325327  48.9588537
   4.4038129  27.0642474  49.1136472   1.0601789  27.7472692  45.2314562
   0.9126752  26.8189400  45.4122132   1.8855283  27.7692783  44.7471638
   4.6635911  28.5701251  46.3179435   5.5882459  28.3644112  46.1803886
   4.4951215  28.3217652  47.2268777   4.4531227  29.0886918  41.6741527
   4.6268105  28.5233341  40.9215379   4.9460119  29.8887813  41.4921016
  10.3070619  21.8523341  43.2931826  10.7501765  21.1030667  42.8950950
   9.4297129  21.8433478  42.9105558   5.4406400  28.4053683  38.7738425
   6.1357305  29.0260376  38.9925739   5.7829550  27.5549034  39.0490803
   7.3397823  25.8553388  40.3025756   7.8649147  26.1940661  39.5775076
   7.2520176  24.9200404  40.1188890   7.0291729  26.4886292  55.6076954
   6.2387273  26.4710431  55.0681453   6.7925084  27.0274586  56.3625990
   7.1489604  23.3378758  52.9209682   7.1987609  23.1728766  53.8625205
   7.0403528  22.4706017  52.5307563   4.4393367  19.3209686  54.2368989
   5.3403229  19.1816151  53.9452987   4.5141341  19.4864141  55.1767166
   8.6507801  25.7575700  53.1651704   8.3592609  26.1205681  54.0015165
   8.0379932  25.0442708  52.9865036   9.8503483  23.3228580  45.6854274
  10.6850375  23.7618384  45.8491834   9.9862612  22.8467233  44.8662520
   6.8994989  20.8808315  51.6331762   7.3749111  21.0735961  50.8250613
   5.9760555  20.9367500  51.3875145   5.5996658  17.7574075  49.8660067
   6.5514081  17.8572172  49.8872291   5.4300109  16.9652343  50.3758152
   2.7518528  28.7952585  38.8122101   3.6849201  28.7298146  39.0154976
   2.6641741  29.6308852  38.3536633   5.3806545  28.1118455  35.7726048
   5.3020176  27.7778319  36.6661806   6.2016212  28.6040223  35.7717521
   8.0784736  20.9780194  48.9802367   8.0461056  20.0396195  49.1662051
   8.6885360  21.0564231  48.2468192   8.2279225  17.7691238  49.0260650
   7.7118273  16.9849694  48.8390579   9.1119173  17.4409954  49.1907169
  13.8961286  22.0396201  48.1208404  14.6264674  21.7781489  48.6816107
  13.2868231  21.3024923  48.1610472  11.9776583  20.1804064  48.7182855
  11.2509747  20.0460029  48.1099346  11.5623870  20.4880892  49.5239573
   3.8067283  15.6641776  41.2988007   2.9193138  15.9491426  41.0808201
   4.2221272  15.5035539  40.4515283   7.1581819  15.6888297  45.0142346
   7.9342209  16.1784749  45.2866963   6.4329953  16.1146351  45.4714215
   9.5954378  16.4015916  46.0716286  10.1898869  16.1611652  45.3609595
   9.6680962  15.6823047  46.6989823   2.9510497  25.4286450  35.3936027
   3.6546347  25.6336453  36.0093682   2.2273145  25.9963212  35.6585110
   3.7808307  21.1796312  41.5138297   3.7243508  21.6364863  40.6745929
   4.3336649  20.4186996  41.3361139   7.5913113  16.9686044  42.3388416
   7.3350047  16.5682679  43.1696624   6.9665981  17.6829838  42.2138555
  11.9025451  19.7082117  44.8459708  11.3425009  19.7775306  45.6191270
  11.2968954  19.5323101  44.1259204   4.8597194  25.8668980  37.4434487
   5.6942798  25.4350178  37.2611961   4.6981537  25.6950993  38.3711381
   4.5143086  22.3701093  38.8090826   4.4591890  22.2045364  37.8679270
   3.8889142  23.0777126  38.9653016   1.8288993  24.6750005  58.1344389
   2.6980153  24.8490657  57.7731024   1.3495745  25.4944422  58.0120118
  13.4881469  36.3838631  47.5389663  14.1259879  36.2645378  46.8353003
  13.3702312  37.3319475  47.5977615  10.2971175  36.3366059  47.4751188
   9.9589687  36.2207124  46.5871723  11.1660944  35.9357224  47.4552194
   6.1557991  38.1901535  43.4648079   5.5922856  38.0991472  42.6964367
   6.0410386  37.3701440  43.9450572  10.7790958  37.4900911  53.4337394
  10.7679599  37.0953709  52.5617897  10.9411598  36.7566983  54.0271165
   3.7022423  39.6852727  46.3032299   4.4943715  39.3443552  45.8878599
   3.9419073  39.7947702  47.2234453  11.7357550  41.8572503  38.7762544
  11.0845530  42.4426583  38.3896558  12.5301913  42.3878698  38.8357581
   5.6613177  38.9461640  39.1749678   6.4344053  38.3990627  39.0362554
   6.0138576  39.8105889  39.3864140   7.4998220  40.2738022  52.3816578
   7.2088086  41.1783653  52.2663244   8.1355204  40.3154550  53.0960647
   8.4254426  37.6514871  48.9717937   9.0217999  37.4270893  48.2574900
   8.4829398  36.9099616  49.5743385   7.9979455  35.1054306  36.8068128
   8.2504975  34.5835828  36.0451591   7.0604014  34.9420452  36.9094812
  13.0422738  34.1090085  44.6142871  13.8285827  33.6909508  44.2633288
  13.3061442  35.0136177  44.7824520  13.2132815  39.5462935  39.3131528
  12.5778648  39.6197561  40.0252433  12.8830221  40.1356534  38.6350607
  18.4431165  34.0465318  45.5175850  19.1756337  33.4764535  45.7513679
  17.6870520  33.6586918  45.9582355   7.7175744  37.0082412  39.0092503
   7.6012002  36.3327316  39.6773587   7.8278003  36.5214786  38.1924656
  10.0607284  36.4692559  42.7139192   9.6965492  35.9423180  43.4252114
  10.9174400  36.0791028  42.5405678  15.9656585  27.7586892  49.9770458
  15.6339910  28.6282303  49.7531673  15.3702198  27.4423176  50.6564489
   9.7012771  31.4982459  37.7100541   9.8687174  32.3662695  38.0771012
   9.5109941  31.6609741  36.7861830  12.4588105  39.9599438  49.3766371
  12.1588828  40.8624477  49.2682178  12.1139164  39.6931621  50.2287524
   5.9100586  36.4113235  45.4103076   4.9851083  36.2789449  45.6180767
   6.1584999  37.1907454  45.9073018  15.8585248  32.4781978  47.0563809
  14.9502126  32.4097387  46.7622570  15.8072844  32.9553923  47.8845634
   9.6801992  33.9540117  38.6947208   9.5601618  34.3997167  39.5332688
   8.9854581  34.3025434  38.1360746   3.2709397  36.0546508  46.2446865
   3.4001778  36.3080987  47.1586276   2.5906848  36.6474216  45.9251520
   7.4408884  46.7243758  42.3437339   7.3632914  47.6751583  42.4225819
   6.8370528  46.3789631  43.0012265   9.9326114  33.8971624  54.9998706
   9.1559448  34.4565544  54.9901570  10.5716677  34.3828407  55.5213576
  17.7246895  30.6798417  48.8341682  17.0821275  30.9730950  48.1881477
  17.2201823  30.5651337  49.6394879  15.3787058  34.4261590  39.5227542
  16.2904915  34.6588976  39.3475239  14.8696706  35.0098634  38.9602620
   8.1872487  36.7057077  54.5616673   8.9287171  37.2442121  54.2851496
   7.4809472  37.3323366  54.7188225  13.6627826  38.8486218  53.1588834
  14.0711182  38.4068628  52.4143467  12.9405088  38.2738845  53.4123027
  10.0158896  33.7858824  50.5322391  10.8620091  34.2098238  50.6757040
   9.9557534  33.1292449  51.2260954  13.9856641  39.4087408  46.9141123
  13.3565503  39.5733122  46.2117191  13.5982303  39.8229018  47.6852087
  17.8645873  40.3441846  44.2685487  17.1796911  40.7240747  43.7182520
  17.9489722  40.9537173  45.0017435  13.1658342  31.4463193  52.1903565
  12.9219273  32.2005253  51.6537841  13.4418272  31.8248540  53.0250812
  15.1196804  37.9901805  50.8680830  15.3313700  38.6333565  50.1915212
  15.0726553  37.1564122  50.4002761  12.7223033  30.6019626  47.7717403
  11.8607512  30.9000879  48.0634140  12.7485468  30.8190025  46.8398435
   9.5384603  39.1461816  44.1791208  10.0022948  39.4249519  43.3895831
   9.2741401  38.2445261  43.9964299   6.4308684  38.6933298  47.1170972
   7.0010041  39.1220566  46.4788456   7.0216796  38.4115882  47.8155157
   8.4753489  35.2684969  40.9880773   9.1777532  35.7206012  41.4554700
   8.1434117  34.6268787  41.6160667   6.9233850  33.8596725  55.3631983
   6.2932511  34.5413006  55.5967380   6.8169938  33.7479807  54.4185121
   2.2178823  33.5268521  46.2897907   1.4277877  33.7826050  45.8138018
   2.7090070  34.3416859  46.3949948  16.2342632  40.8673760  49.0403188
  17.0560076  40.4653948  48.7585869  16.2305035  40.7641995  49.9919304
   4.1693568  33.8913101  43.2481384   3.3724731  34.0031795  43.7664879
   3.9419160  34.2299753  42.3822274   9.9999236  40.4157804  51.1963898
  10.0643668  40.8778211  52.0322070   9.2910160  39.7855169  51.3246208
   0.5016526  33.7799012  48.7212898   0.7524564  34.6646022  48.9870474
   1.0376074  33.6003613  47.9487990  24.3248625  37.2112509  45.3888159
  23.5712334  36.6419907  45.2332164  24.4596167  37.1775173  46.3358794
   9.7147253  42.0825911  41.0642879   9.5792928  42.9277447  41.4927726
  10.2557066  42.2845189  40.3008812   6.2014593  28.1617491  57.7257234
   5.8081539  27.6083690  58.4004878   7.0180733  28.4728070  58.1163751
   3.1676651  39.6001349  41.6370804   3.6801171  40.3944600  41.7876368
   3.8199364  38.9027640  41.5704405   4.9771535  42.7167106  43.7193557
   5.1538164  43.6385070  43.5314541   5.7728369  42.4025525  44.1487937
   9.1182554  29.5775370  55.3177490   9.8592267  30.1782523  55.2381953
   9.3500477  28.8353008  54.7595533   4.2623892  34.7631737  53.5955720
   4.1477407  33.8616995  53.8962819   3.4068410  35.0095434  53.2440537
  11.3415730  42.7049478  55.1943221  10.8979584  41.9185856  54.8764125
  12.0032943  42.8928628  54.5287112   6.1002851  44.2345279  49.7203899
   6.6510276  44.1062343  48.9480893   5.2614327  44.5340168  49.3698792
  13.4396968  42.9852278  53.2224622  13.4215443  43.8061159  52.7304891
  14.3616888  42.8606353  53.4474763   9.8970022  40.4996407  54.0648130
  10.4298359  39.7384695  53.8347438   9.3684103  40.2070059  54.8072285
  13.0639717  25.6056473  49.5941772  12.7203986  26.4958115  49.5180883
  13.4318680  25.4158131  48.7311357   1.1325568  37.9290004  42.4130374
   1.9700790  38.3387012  42.1964082   1.3103835  36.9889446  42.3830568
  13.0290000  35.5965084  38.1014207  12.5136623  36.3669689  38.3402595
  12.7567308  34.9230220  38.7247269  10.6137111  30.4414785  43.1599446
   9.7578707  30.0521635  42.9805084  11.0264062  30.5206746  42.2999231
  12.1436257  27.9761128  47.5591005  11.6401053  27.9391263  46.7458811
  12.4366864  28.8853871  47.6187662   8.3879143  28.0599858  46.5657187
   9.2532140  27.8642667  46.2063077   8.4556652  27.8310210  47.4926544
  18.0024274  38.3497439  40.0367381  17.2253717  38.0108598  39.5922543
  18.6815755  38.3550062  39.3622346  12.8176303  33.4692176  39.9273988
  12.5126438  33.7838325  40.7784132  13.7706745  33.5473596  39.9701321
  11.2622735  39.6282400  41.5766942  10.7344096  38.8935159  41.2640180
  10.7610237  40.4057076  41.3306911  16.2415581  37.8231420  46.6933989
  15.5839255  38.5130682  46.7814117  17.0455980  38.2127852  47.0367975
   5.9941462  30.2902066  43.9373554   6.5685214  30.0677247  43.2046747
   6.5812445  30.3590760  44.6902155  15.0521039  36.1775793  44.7437930
  15.5652921  36.8105785  45.2459640  15.7022263  35.5776988  44.3781290
   6.3211049  32.3206527  37.9569439   5.4848362  32.6581213  38.2778714
   6.1815819  32.1855507  37.0196576   8.2964130  27.1643315  42.6648623
   7.6428542  26.8492332  42.0405238   8.2544604  26.5419055  43.3908446
   9.4075335  37.4462610  34.5801915   8.5002397  37.2151863  34.7793064
   9.9046367  36.6500229  34.7675897  12.3143414  46.1560117  37.4998602
  11.6405112  46.4591814  38.1083559  12.7009236  46.9589197  37.1504059
  11.5301870  33.6525248  46.9896271  10.6124432  33.8740195  46.8317959
  11.9462014  33.7271559  46.1307978  12.3136918  35.0516664  42.1198951
  13.0608737  35.5638061  41.8106073  12.5828508  34.7300717  42.9803345
  10.5863568  37.5475205  39.1025906   9.6774788  37.2634238  39.1998375
  10.6158652  37.9674283  38.2429212  15.8182836  41.1581794  42.8717073
  15.3645163  40.3172704  42.9282264  15.1876802  41.7943193  43.2091853
  14.7615755  32.0873780  44.1017741  14.0238512  31.5751167  44.4327983
  15.0142529  31.6474162  43.2901017  14.2615775  42.9958291  43.8066891
  14.5538749  43.5563348  43.0879257  14.7714396  43.2886852  44.5620050
  14.8627383  24.8650032  44.6959510  15.1686259  24.0047396  44.4085425
  15.5879987  25.4567652  44.4958504   1.1551739  35.2680719  43.0841108
   0.9576138  34.6750080  42.3592174   0.5998403  34.9632929  43.8017047
   9.1348462  35.1603825  45.2035701   9.1897072  34.2077662  45.1278177
   8.3239664  35.3163264  45.6876999  10.2839656  39.0883948  36.4413984
   9.8459086  38.3719807  35.9819621  11.0250097  39.3160063  35.8799075
   7.0740822  33.7780885  42.9626080   6.2608688  34.0775056  43.3691272
   7.5699816  33.3836574  43.6800562   9.2249400  43.7738642  44.8960344
   9.1825579  43.9999488  43.9668876  10.1412099  43.5402017  45.0446146
  12.6715034  34.2422710  51.7940974  13.0264422  34.4694183  52.6535439
  13.3187165  34.5741086  51.1718229  18.4012771  37.3641145  42.4990303
  18.2630669  37.5542741  41.5711492  18.0448990  38.1260528  42.9558354
   6.5654897  31.3499241  48.5787315   7.2054276  31.2088000  47.8810278
   5.7332428  31.0633754  48.2025917  18.4282150  39.4317672  47.5101574
  18.8618657  39.3392962  48.3584628  19.1413731  39.4075173  46.8721590
   7.3415201  40.6501671  44.6922307   8.1355799  40.1551991  44.4904882
   6.6306893  40.1219534  44.3290013  12.1610045  43.0319767  49.0434675
  12.2147068  43.6010703  49.8112391  11.2924827  43.2021652  48.6788712
   3.6497964  34.7944753  40.7682060   2.7195552  34.7329208  40.9852022
   3.7455436  34.2720706  39.9718701   3.5683513  31.3199566  43.3560301
   3.8290331  32.2344899  43.2469462   4.3900686  30.8524008  43.5056914
   5.0408439  32.7337323  50.5259126   5.7131492  32.5254685  49.8771775
   4.2138225  32.5359409  50.0864358  19.2897700  39.4741373  50.0434460
  19.4833590  40.3787184  50.2893734  19.1898318  39.0148792  50.8773045
  10.9434011  29.3599264  52.5424787  10.2961926  30.0589213  52.4489263
  11.7135026  29.7935408  52.9101035  14.3512809  39.6248116  55.6175340
  14.1998315  39.3958668  54.7005424  14.3417488  40.5818717  55.6306685
  11.1198145  37.1980029  50.6021607  12.0490205  37.3491188  50.4290574
  10.6989175  37.2864049  49.7470253   9.9186477  41.2230693  48.3720144
   9.7797563  40.8549477  49.2446082   9.1301073  41.7378332  48.2004102
  10.5134629  46.3239790  39.7145681  10.6886385  45.8527833  40.5291303
   9.8267417  46.9505556  39.9426941  11.4691692  40.6012296  45.7608982
  11.1341525  40.5613066  46.6566632  10.9695638  39.9357012  45.2879392
   5.4435936  36.0079926  51.2861563   5.3055734  35.2760165  51.8873102
   6.3540859  35.9188826  51.0045751  14.4050884  37.9468330  36.0346042
  13.7880054  37.2215158  35.9379094  13.9367372  38.7077690  35.6913116
   8.0718237  35.7199885  50.7745243   8.7817855  35.0793077  50.7331861
   8.0287545  35.9712780  51.6971424  16.0605015  42.6567238  53.6951822
  16.0017562  41.9726459  53.0282405  16.4624534  43.3986228  53.2432448
   6.7847171  32.7065103  52.5940882   6.2484528  32.2555841  53.2462479
   6.1963879  32.8411012  51.8511347   5.0795714  49.4729152  46.4885541
   5.3192312  50.1047676  47.1664559   4.2364911  49.1217192  46.7750900
   6.1949430  32.1653754  35.1567346   5.3178896  32.0442555  34.7929593
   6.6707183  31.3739833  34.9046235  16.0622423  40.6206822  51.9265802
  15.1749201  40.2832744  52.0492201  16.6320974  39.8889854  52.1634567
   2.5186292  31.8421111  49.6793877   2.4344481  31.2346780  48.9444287
   1.6968998  32.3330129  49.6803373   9.5923576  45.2808275  48.8927045
   9.5193747  46.0863246  49.4046349   9.1500969  45.4800241  48.0675066
   9.3813356  44.5180045  42.4029866   8.5980878  45.0601725  42.4968091
  10.0806101  45.0354024  42.8024108  12.6910006  30.3274674  45.0464072
  13.1878705  29.5744637  44.7265142  11.9196987  30.3638991  44.4807281
  20.5439763  36.0315040  46.6882363  20.5329639  36.9139755  46.3176296
  19.6757143  35.6786591  46.4936900  12.0522260  45.1795109  51.0485204
  12.7650232  45.8142574  50.9761105  11.5612288  45.2758975  50.2325205
  13.7739786  39.0846361  42.6202495  12.8396065  39.2047824  42.4507200
  13.9516455  38.1818828  42.3562505   9.2744975  32.4692057  44.7735756
   8.9042762  31.9163098  45.4616662   9.7704067  31.8650191  44.2210756
  17.1612338  34.9263681  43.1552529  17.6272790  35.7591672  43.0812832
  17.6119838  34.4608662  43.8597788   7.1034173  42.9289552  51.8690774
   7.8043633  43.5626035  52.0220169   6.6329288  43.2704284  51.1086414
  15.2288569  41.2707502  40.1538681  15.5048413  41.1564097  41.0632555
  14.3593068  40.8724987  40.1150855  15.1329001  27.2944268  47.1943431
  14.2192080  27.5248495  47.3625638  15.5622102  27.3782712  48.0457463
  14.9035459  35.4834160  49.6943325  14.2506909  35.7310067  49.0395778
  15.2815839  34.6698298  49.3605802  11.8642633  45.5193853  43.7971495
  12.0465027  44.7015509  44.2599247  12.6875619  45.7361545  43.3596385
  12.1984798  44.4462038  41.0586544  12.7272565  43.9354493  40.4456706
  12.4613018  44.1304568  41.9232077  10.9523032  36.2253971  56.1809362
  10.2763669  36.1248100  56.8511737  11.7750666  36.0693184  56.6445359
   2.7001891  42.4625907  48.8021877   3.2855328  41.7169595  48.9349781
   2.5026730  42.7729864  49.6858541   5.5540546  45.4977155  43.8184319
   4.8850922  45.9823282  43.3348360   5.4153416  45.7446375  44.7327698
   9.6945815  47.5320898  50.4166978  10.2464123  47.6952520  51.1816063
  10.0352008  48.1225336  49.7447003   4.6710308  29.8796048  51.0188863
   4.7351635  30.7410879  50.6066260   4.6077428  29.2670050  50.2861221
   4.1462581  31.9519181  54.6661897   4.7734620  31.5696258  55.2799421
   3.2890500  31.7333382  55.0317589  14.5456689  42.3582156  56.2715632
  15.0896593  42.9712114  55.7770587  13.9643534  42.9161734  56.7882645
  12.8314202  45.4802874  47.4030660  12.7065342  44.6792614  46.8941605
  13.4893293  45.9749067  46.9144630   4.4522370  31.8351606  46.5807800
   3.7308956  32.4487574  46.4415274   5.2415626  32.3709371  46.5024446
  14.8949111  43.2811894  49.0310210  13.9479446  43.1617245  48.9588537
  15.2431884  42.3934392  49.1136472   7.2548684  29.1706033  52.8548452
   7.7783086  29.4168329  53.6174761   7.0361017  30.0026068  52.4351589
   2.6515965  31.4409707  40.7219577   2.3228671  30.5607086  40.5394683
   3.0055336  31.3857376  41.6095966  11.8995544  43.0764610  45.2314562
  11.7520506  42.1481317  45.4122132  12.7249037  43.0984701  44.7471638
   5.7657788  31.7282677  41.0895054   6.1053861  32.2568598  40.3673663
   6.2129909  32.0663083  41.8653621  15.5029666  43.8993169  46.3179435
  16.4276213  43.6936030  46.1803886  15.3344969  43.6509570  47.2268777
   8.4601229  30.1119728  50.5398122   8.1198049  29.3127541  50.9418802
   7.7540235  30.4121439  49.9674956   9.1117701  27.1969040  48.9925446
   9.9343770  26.7229518  48.8704336   9.3555764  27.9759524  49.4924132
   7.7525935  30.2257299  39.2888347   8.4734298  30.6038551  38.7852064
   7.1291239  30.9446175  39.3923325  11.8957058  30.9302448  40.2246680
  12.1120673  31.8127086  39.9235508  11.4151125  30.5388661  39.4952322
   6.6356280  33.8888161  46.8017424   6.4900860  34.2028464  47.6941706
   6.1581483  34.5073061  46.2488323   8.4952662  30.8790709  46.8498314
   8.4814231  29.9831802  46.5130612   9.2125091  30.8861373  47.4836600
  10.3478793  31.3128049  48.8951441  10.0896571  32.2345120  48.8935772
   9.8163834  30.9158484  49.5851905  15.2924982  44.4178836  41.6741527
  15.4661859  43.8525259  40.9215379  15.7853873  45.2179731  41.4921016
   1.1101942  36.4293505  49.7405085   0.5655410  37.2053313  49.8725360
   1.9881292  36.7764310  49.5824207   7.8989558  29.7605089  42.1185884
   8.0205470  28.8321735  42.3176771   7.6091601  29.7743775  41.2064199
  10.7680749  27.4460000  45.2552604  10.7902446  27.5099333  44.3004583
  11.1848808  26.6064508  45.4493110  21.1464373  37.1815259  43.2931826
  21.5895519  36.4322584  42.8950950  20.2690883  37.1725395  42.9105558
  16.2800154  43.7345601  38.7738425  16.9751059  44.3552293  38.9925739
  16.6223305  42.8840952  39.0490803   1.8967964  35.5563402  52.6335242
   1.1549700  35.7046037  53.2199873   1.5760708  35.8171667  51.7701992
  18.1791578  41.1845306  40.3025756  18.7042902  41.5232579  39.5775076
  18.0913930  40.2492321  40.1188890   9.8411626  45.0979380  52.4315632
  10.1498753  44.8528527  53.3038332  10.6387108  45.3026018  51.9434502
   9.8632238  47.2517289  44.6621009   9.4237229  46.7593668  45.3553865
  10.6140355  46.7090257  44.4213084   2.3424577  43.4428830  44.6645637
   3.1682597  43.1432602  44.2844280   1.9918629  42.6736453  45.1135425
   7.3106110  42.7955298  46.7343310   6.6886120  42.1326004  46.4345538
   7.9810977  42.8216430  46.0516958   7.3830638  31.2737087  56.3275816
   7.4318793  32.1499209  55.9453586   7.9253152  30.7314480  55.7547460
  17.8685484  41.8178210  55.6076954  17.0781027  41.8002349  55.0681453
  17.6318838  42.3566503  56.3625990  17.9883359  38.6670676  52.9209682
  18.0381364  38.5020684  53.8625205  17.8797282  37.7997935  52.5307563
   6.8719617  41.3459222  40.2101771   7.0207738  42.0294686  39.5568444
   7.6786061  41.3264312  40.7251227  15.2787121  34.6501604  54.2368989
  16.1796984  34.5108069  53.9452987  15.3535096  34.8156059  55.1767166
   9.6129926  32.0268459  53.0822175   8.7433236  32.3202025  52.8104764
   9.8489407  32.6108904  53.8029439  19.4901556  41.0867618  53.1651704
  19.1986364  41.4497598  54.0015165  18.8773687  40.3734626  52.9865036
  20.6897238  38.6520497  45.6854274  21.5244129  39.0910301  45.8491834
  20.8256367  38.1759151  44.8662520  17.7388744  36.2100232  51.6331762
  18.2142865  36.4027879  50.8250613  16.8154309  36.2659418  51.3875145
   4.6272250  37.3724399  41.2162840   4.3818292  36.4686729  41.4143050
   4.7968165  37.3741550  40.2742318  12.3168960  28.2448076  50.5987595
  12.8350904  28.9809103  50.2734084  11.9624093  28.5512069  51.4334355
   3.8967898  33.1052757  38.7149001   3.2037143  33.1797112  38.0589037
   3.6519650  32.3413101  39.2370518  12.5681554  24.6648358  46.1188492
  12.8483308  23.9971547  46.7448919  13.3532161  24.8577454  45.6063156
  10.3715023  43.8407352  37.6813518   9.7988990  44.4597539  37.2283990
  10.9447817  44.3906714  38.2153440  16.4390413  33.0865992  49.8660067
  17.3907836  33.1864090  49.8872291  16.2693863  32.2944261  50.3758152
  14.4604792  30.1721576  50.0519468  13.8654724  30.4526588  49.3565957
  14.1754489  30.6615477  50.8236209  13.5912283  44.1244502  38.8122101
  14.5242956  44.0590064  39.0154976  13.5035496  44.9600769  38.3536633
  16.2200299  43.4410373  35.7726048  16.1413931  43.1070236  36.6661806
  17.0409966  43.9332141  35.7717521  18.9178491  36.3072112  48.9802367
  18.8854811  35.3688113  49.1662051  19.5279114  36.3856149  48.2468192
  10.7561821  35.1768165  35.0229571  11.7020926  35.0474373  35.0917989
  10.3776066  34.4382827  35.4998999  19.0672979  33.0983155  49.0260650
  18.5512028  32.3141612  48.8390579  19.9512928  32.7701872  49.1907169
  16.7283706  26.8424171  44.9856463  16.5308527  26.5339259  45.8699795
  17.3383412  27.5685810  45.1154393  24.7355040  37.3688119  48.1208404
  25.4658429  37.1073407  48.6816107  24.1261986  36.6316841  48.1610472
  22.8170338  35.5095981  48.7182855  22.0903501  35.3751946  48.1099346
  22.4017624  35.8172810  49.5239573  10.6400514  39.2285911  56.4830228
  11.5603523  39.4064510  56.6770274  10.6050097  38.2841957  56.3309927
   8.9404739  33.1018141  34.9584456   8.0336194  32.8051254  35.0347170
   9.2180720  32.8047959  34.0918742   3.6362586  37.1386946  49.1253009
   3.8548596  38.0704054  49.1441043   4.0488360  36.7794920  49.9107813
  10.5566804  27.6455031  41.1128697   9.7467533  27.3002116  41.4883943
  11.2451221  27.3362575  41.7016309  12.4857353  26.7233078  42.7352994
  13.0388391  27.1428531  43.3943017  12.7227439  25.7968826  42.7775950
   8.5090452  32.7120152  58.5155758   8.4087179  33.6614509  58.4467849
   8.2911994  32.3838390  57.6431828   7.7103523  29.9605077  35.0996435
   8.5722687  30.2859975  35.3592253   7.8953867  29.1736573  34.5869501
  15.8636160  28.8333603  42.2431658  15.2834829  29.4918407  41.8609711
  15.5972092  28.0110948  41.8319076  14.3139726  28.2338661  44.4452979
  14.8139504  28.3455195  43.6367297  14.9575334  27.9299714  45.0853787
   8.3721722  36.1417290  57.3320820   7.8888804  36.9417651  57.5384709
   8.4582661  36.1525235  56.3788264   1.6407681  37.9745670  45.2542639
   1.6178370  38.0733357  44.3024522   1.9508318  38.8210821  45.5759805
   4.2995059  40.0321825  49.3689253   5.2538313  40.0005767  49.3019185
   4.1007583  39.5712449  50.1839479   4.8894441  38.6022941  51.9360051
   5.7087330  39.0967020  51.9594888   5.1631249  37.6854909  51.9077619
  14.6461038  30.9933693  41.2988007  13.7586893  31.2783344  41.0808201
  15.0615027  30.8327457  40.4515283  17.9975574  31.0180214  45.0142346
  18.7735964  31.5076667  45.2866963  17.2723708  31.4438269  45.4714215
  20.4348132  31.7307834  46.0716286  21.0292623  31.4903570  45.3609595
  20.5074716  31.0114964  46.6989823   2.6545288  45.5741445  46.3859451
   2.5199756  44.8141845  45.8197449   2.2377350  46.2982344  45.9188240
  13.7904251  40.7578368  35.3936027  14.4940101  40.9628371  36.0093682
  13.0666900  41.3255130  35.6585110  14.6202061  36.5088229  41.5138297
  14.5637263  36.9656781  40.6745929  15.1730404  35.7478914  41.3361139
  18.4306867  32.2977961  42.3388416  18.1743802  31.8974597  43.1696624
  17.8059735  33.0121755  42.2138555  22.7419205  35.0374035  44.8459708
  22.1818763  35.1067224  45.6191270  22.1362709  34.8615019  44.1259204
   5.8114414  46.4710762  46.5977894   5.6946798  47.4156194  46.4956584
   4.9906860  46.1684323  46.9863693  15.6990949  41.1960897  37.4434487
  16.5336552  40.7642096  37.2611961  15.5375291  41.0242911  38.3711381
  15.3536841  37.6993011  38.8090826  15.2985645  37.5337282  37.8679270
  14.7282896  38.4069044  38.9653016  12.6682748  40.0041923  58.1344389
  13.5373908  40.1782575  57.7731024  12.1889499  40.8236339  58.0120118
   8.6632966  27.2001120  38.3876144   8.6511636  28.1442960  38.5444415
   9.5556388  27.0171265  38.0935605   6.8368928  47.1239024  49.8133822
   7.7396175  47.1562634  50.1300317   6.6106298  46.1939474  49.8280158
   8.5922530  45.8770010  46.4743901   7.6418161  45.8771872  46.3608273
   8.8955016  45.1302745  45.9579936  12.4785086  23.7943896  42.6422081
  11.7117481  23.2402383  42.7878763  12.8895791  23.8665765  43.5036233
   4.4826847  30.0828692  56.7327262   5.3458308  29.7265497  56.9430587
   3.9092257  29.7442587  57.4202667  24.3275224  51.7130548  47.5389663
  24.9653634  51.5937296  46.8353003  24.2096067  52.6611392  47.5977615
  21.1364930  51.6657977  47.4751188  20.7983441  51.5499041  46.5871723
  22.0054698  51.2649142  47.4552194  16.9951746  53.5193453  43.4648079
  16.4316611  53.4283390  42.6964367  16.8804141  52.6993357  43.9450572
  21.6184713  52.8192828  53.4337394  21.6073354  52.4245627  52.5617897
  21.7805352  52.0858901  54.0271165  14.5416178  55.0144645  46.3032299
  15.3337469  54.6735469  45.8878599  14.7812828  55.1239620  47.2234453
  22.5751304  57.1864421  38.7762544  21.9239284  57.7718501  38.3896558
  23.3695667  57.7170616  38.8357581  16.5006931  54.2753558  39.1749678
  17.2737807  53.7282545  39.0362554  16.8532330  55.1397807  39.3864140
  18.3391974  55.6029940  52.3816578  18.0481840  56.5075571  52.2663244
  18.9748958  55.6446468  53.0960647  19.2648181  52.9806789  48.9717937
  19.8611753  52.7562811  48.2574900  19.3223152  52.2391534  49.5743385
  18.8373209  50.4346224  36.8068128  19.0898730  49.9127745  36.0451591
  17.8997768  50.2712369  36.9094812  23.8816492  49.4382002  44.6142871
  24.6679581  49.0201425  44.2633288  24.1455196  50.3428094  44.7824520
  24.0526569  54.8754853  39.3131528  23.4172402  54.9489479  40.0252433
  23.7223976  55.4648451  38.6350607  18.5569498  52.3374330  39.0092503
  18.4405756  51.6619233  39.6773587  18.6671758  51.8506704  38.1924656
  20.9001039  51.7984477  42.7139192  20.5359246  51.2715098  43.4252114
  21.7568155  51.4082946  42.5405678  26.8050340  43.0878810  49.9770458
  26.4733664  43.9574221  49.7531673  26.2095953  42.7715094  50.6564489
  20.5406526  46.8274377  37.7100541  20.7080928  47.6954613  38.0771012
  20.3503695  46.9901658  36.7861830  23.2981859  55.2891356  49.3766371
  22.9982582  56.1916394  49.2682178  22.9532919  55.0223539  50.2287524
  16.7494341  51.7405152  45.4103076  15.8244837  51.6081367  45.6180767
  16.9978754  52.5199372  45.9073018  26.6979003  47.8073896  47.0563809
  25.7895880  47.7389304  46.7622570  26.6466599  48.2845841  47.8845634
  20.5195747  49.2832034  38.6947208  20.3995372  49.7289085  39.5332688
  19.8248335  49.6317352  38.1360746  14.1103152  51.3838426  46.2446865
  14.2395533  51.6372905  47.1586276  13.4300603  51.9766134  45.9251520
  18.2802639  62.0535676  42.3437339  18.2026669  63.0043501  42.4225819
  17.6764283  61.7081548  43.0012265  20.7719869  49.2263541  54.9998706
  19.9953203  49.7857462  54.9901570  21.4110432  49.7120324  55.5213576
  28.5640649  46.0090334  48.8341682  27.9215030  46.3022867  48.1881477
  28.0595578  45.8943255  49.6394879  26.2180813  49.7553507  39.5227542
  27.1298669  49.9880894  39.3475239  25.7090460  50.3390552  38.9602620
  19.0266241  52.0348995  54.5616673  19.7680925  52.5734039  54.2851496
  18.3203226  52.6615283  54.7188225  24.5021581  54.1778135  53.1588834
  24.9104937  53.7360546  52.4143467  23.7798842  53.6030763  53.4123027
  20.8552651  49.1150742  50.5322391  21.7013846  49.5390156  50.6757040
  20.7951288  48.4584366  51.2260954  24.8250395  54.7379326  46.9141123
  24.1959258  54.9025040  46.2117191  24.4376057  55.1520935  47.6852087
  24.0052096  46.7755110  52.1903565  23.7613028  47.5297171  51.6537841
  24.2812027  47.1540458  53.0250812  25.9590559  53.3193723  50.8680830
  26.1707454  53.9625483  50.1915212  25.9120307  52.4856039  50.4002761
  23.5616788  45.9311543  47.7717403  22.7001267  46.2292797  48.0634140
  23.5879222  46.1481942  46.8398435  20.3778357  54.4753734  44.1791208
  20.8416703  54.7541437  43.3895831  20.1135155  53.5737178  43.9964299
  17.2702438  54.0225215  47.1170972  17.8403795  54.4512484  46.4788456
  17.8610550  53.7407800  47.8155157  19.3147243  50.5976886  40.9880773
  20.0171287  51.0497930  41.4554700  18.9827872  49.9560705  41.6160667
  17.7627605  49.1888643  55.3631983  17.1326265  49.8704924  55.5967380
  17.6563693  49.0771725  54.4185121  13.0572577  48.8560439  46.2897907
  12.2671631  49.1117967  45.8138018  13.5483825  49.6708777  46.3949948
  27.0736387  56.1965678  49.0403188  27.8953830  55.7945865  48.7585869
  27.0698790  56.0933912  49.9919304  15.0087323  49.2205018  43.2481384
  14.2118486  49.3323712  43.7664879  14.7812915  49.5591670  42.3822274
  20.8392990  55.7449721  51.1963898  20.9037423  56.2070129  52.0322070
  20.1303914  55.1147086  51.3246208  11.3410280  49.1090929  48.7212898
  11.5918319  49.9937939  48.9870474  11.8769829  48.9295531  47.9487990
  20.5541008  57.4117829  41.0642879  20.4186683  58.2569365  41.4927726
  21.0950820  57.6137107  40.3008812  17.0408347  43.4909409  57.7257234
  16.6475293  42.9375607  58.4004878  17.8574488  43.8019987  58.1163751
  14.0070405  54.9293267  41.6370804  14.5194926  55.7236517  41.7876368
  14.6593118  54.2319557  41.5704405  15.8165290  58.0459023  43.7193557
  15.9931918  58.9676988  43.5314541  16.6122123  57.7317442  44.1487937
  19.9576308  44.9067288  55.3177490  20.6986022  45.5074441  55.2381953
  20.1894231  44.1644926  54.7595533  15.1017646  50.0923655  53.5955720
  14.9871162  49.1908912  53.8962819  14.2462164  50.3387352  53.2440537
  22.1809484  58.0341395  55.1943221  21.7373338  57.2477774  54.8764125
  22.8426698  58.2220546  54.5287112  16.9396605  59.5637197  49.7203899
  17.4904031  59.4354260  48.9480893  16.1008081  59.8632086  49.3698792
  24.2790722  58.3144195  53.2224622  24.2609198  59.1353076  52.7304891
  25.2010642  58.1898271  53.4474763  20.7363776  55.8288325  54.0648130
  21.2692113  55.0676613  53.8347438  20.2077858  55.5361977  54.8072285
  23.9033471  40.9348391  49.5941772  23.5597741  41.8250032  49.5180883
  24.2712434  40.7450048  48.7311357  11.9719322  53.2581921  42.4130374
  12.8094544  53.6678930  42.1964082  12.1497590  52.3181363  42.3830568
  23.8683754  50.9257002  38.1014207  23.3530378  51.6961607  38.3402595
  23.5961063  50.2522138  38.7247269  21.4530865  45.7706703  43.1599446
  20.5972462  45.3813553  42.9805084  21.8657817  45.8498663  42.2999231
  22.9830012  43.3053046  47.5591005  22.4794807  43.2683181  46.7458811
  23.2760619  44.2145789  47.6187662  19.2272898  43.3891776  46.5657187
  20.0925894  43.1934584  46.2063077  19.2950407  43.1602127  47.4926544
  28.8418028  53.6789357  40.0367381  28.0647471  53.3400516  39.5922543
  29.5209509  53.6841980  39.3622346  23.6570057  48.7984094  39.9273988
  23.3520193  49.1130243  40.7784132  24.6100499  48.8765514  39.9701321
  22.1016489  54.9574317  41.5766942  21.5737851  54.2227077  41.2640180
  21.6003992  55.7348994  41.3306911  27.0809335  53.1523338  46.6933989
  26.4233010  53.8422599  46.7814117  27.8849734  53.5419770  47.0367975
  16.8335217  45.6193984  43.9373554  17.4078969  45.3969165  43.2046747
  17.4206199  45.6882678  44.6902155  25.8914794  51.5067710  44.7437930
  26.4046676  52.1397702  45.2459640  26.5416018  50.9068906  44.3781290
  17.1604804  47.6498445  37.9569439  16.3242116  47.9873131  38.2778714
  17.0209574  47.5147424  37.0196576  19.1357884  42.4935232  42.6648623
  18.4822297  42.1784250  42.0405238  19.0938359  41.8710973  43.3908446
  20.2469089  52.7754528  34.5801915  19.3396151  52.5443781  34.7793064
  20.7440121  51.9792147  34.7675897  23.1537168  61.4852035  37.4998602
  22.4798867  61.7883732  38.1083559  23.5402990  62.2881115  37.1504059
  22.3695625  48.9817166  46.9896271  21.4518186  49.2032113  46.8317959
  22.7855768  49.0563477  46.1307978  23.1530673  50.3808582  42.1198951
  23.9002492  50.8929979  41.8106073  23.4222262  50.0592634  42.9803345
  21.4257323  52.8767122  39.1025906  20.5168542  52.5926155  39.1998375
  21.4552407  53.2966201  38.2429212  26.6576590  56.4873712  42.8717073
  26.2038917  55.6464622  42.9282264  26.0270557  57.1235110  43.2091853
  25.6009510  47.4165698  44.1017741  24.8632267  46.9043084  44.4327983
  25.8536283  46.9766080  43.2901017  25.1009529  58.3250209  43.8066891
  25.3932504  58.8855266  43.0879257  25.6108150  58.6178770  44.5620050
  25.7021137  40.1941950  44.6959510  26.0080014  39.3339313  44.4085425
  26.4273742  40.7859570  44.4958504  11.9945493  50.5972637  43.0841108
  11.7969893  50.0041997  42.3592174  11.4392157  50.2924847  43.8017047
  19.9742217  50.4895743  45.2035701  20.0290827  49.5369579  45.1278177
  19.1633419  50.6455182  45.6876999  21.1233411  54.4175866  36.4413984
  20.6852840  53.7011725  35.9819621  21.8643851  54.6451981  35.8799075
  17.9134577  49.1072803  42.9626080  17.1002442  49.4066973  43.3691272
  18.4093571  48.7128492  43.6800562  20.0643155  59.1030560  44.8960344
  20.0219333  59.3291406  43.9668876  20.9805853  58.8693934  45.0446146
  23.5108788  49.5714627  51.7940974  23.8658176  49.7986100  52.6535439
  24.1580920  49.9033004  51.1718229  17.4048651  46.6791158  48.5787315
  18.0448031  46.5379917  47.8810278  16.5726182  46.3925672  48.2025917
  18.1808955  55.9793589  44.6922307  18.9749554  55.4843909  44.4904882
  17.4700648  55.4511452  44.3290013  23.0003800  58.3611684  49.0434675
  23.0540822  58.9302621  49.8112391  22.1318581  58.5313569  48.6788712
  14.4891719  50.1236670  40.7682060  13.5589307  50.0621126  40.9852022
  14.5849191  49.6012623  39.9718701  14.4077268  46.6491483  43.3560301
  14.6684085  47.5636817  43.2469462  15.2294440  46.1815926  43.5056914
  15.8802193  48.0629240  50.5259126  16.5525247  47.8546603  49.8771775
  15.0531980  47.8651326  50.0864358  21.7827765  44.6891181  52.5424787
  21.1355680  45.3881131  52.4489263  22.5528781  45.1227325  52.9101035
  25.1906563  54.9540034  55.6175340  25.0392070  54.7250585  54.7005424
  25.1811243  55.9110635  55.6306685  21.9591900  52.5271946  50.6021607
  22.8883960  52.6783106  50.4290574  21.5382930  52.6155967  49.7470253
  20.7580231  56.5522611  48.3720144  20.6191317  56.1841395  49.2446082
  19.9694828  57.0670250  48.2004102  21.3528383  61.6531707  39.7145681
  21.5280139  61.1819750  40.5291303  20.6661171  62.2797473  39.9426941
  22.3085447  55.9304213  45.7608982  21.9735279  55.8904983  46.6566632
  21.8089392  55.2648929  45.2879392  16.2829690  51.3371843  51.2861563
  16.1449488  50.6052082  51.8873102  17.1934614  51.2480744  51.0045751
  25.2444638  53.2760248  36.0346042  24.6273809  52.5507076  35.9379094
  24.7761127  54.0369608  35.6913116  18.9111991  51.0491803  50.7745243
  19.6211610  50.4084995  50.7331861  18.8681299  51.3004698  51.6971424
  26.8998770  57.9859156  53.6951822  26.8411316  57.3018376  53.0282405
  27.3018288  58.7278146  53.2432448  17.6240925  48.0357021  52.5940882
  17.0878282  47.5847759  53.2462479  17.0357634  48.1702929  51.8511347
  15.9189469  64.8021070  46.4885541  16.1586067  65.4339594  47.1664559
  15.0758665  64.4509110  46.7750900  17.0343184  47.4945672  35.1567346
  16.1572650  47.3734473  34.7929593  17.5100937  46.7031750  34.9046235
  26.9016177  55.9498740  51.9265802  26.0142956  55.6124662  52.0492201
  27.4714728  55.2181771  52.1634567   8.5545324  52.2822832  45.2508853
   9.2416364  51.9684562  44.6629868   8.3993453  53.1864196  44.9776105
  13.3580046  47.1713028  49.6793877  13.2738235  46.5638698  48.9444287
  12.5362753  47.6622047  49.6803373  20.4317331  60.6100192  48.8927045
  20.3587502  61.4155164  49.4046349  19.9894724  60.8092158  48.0675066
  20.2207110  59.8471962  42.4029866  19.4374632  60.3893643  42.4968091
  20.9199855  60.3645942  42.8024108  23.5303760  45.6566592  45.0464072
  24.0272460  44.9036554  44.7265142  22.7590742  45.6930909  44.4807281
  22.8916014  60.5087026  51.0485204  23.6043986  61.1434491  50.9761105
  22.4006043  60.6050892  50.2325205  24.6133541  54.4138279  42.6202495
  23.6789820  54.5339742  42.4507200  24.7910209  53.5110746  42.3562505
  20.1138729  47.7983975  44.7735756  19.7436517  47.2455015  45.4616662
  20.6097821  47.1942108  44.2210756  17.9427928  58.2581470  51.8690774
  18.6437387  58.8917953  52.0220169  17.4723043  58.5996201  51.1086414
  26.0682323  56.5999420  40.1538681  26.3442167  56.4856014  41.0632555
  25.1986822  56.2016905  40.1150855  25.9722755  42.6236185  47.1943431
  25.0585835  42.8540412  47.3625638  26.4015856  42.7074629  48.0457463
  25.7429214  50.8126077  49.6943325  25.0900664  51.0601985  49.0395778
  26.1209593  49.9990216  49.3605802  22.7036387  60.8485771  43.7971495
  22.8858782  60.0307426  44.2599247  23.5269373  61.0653463  43.3596385
  23.0378553  59.7753956  41.0586544  23.5666319  59.2646410  40.4456706
  23.3006772  59.4596486  41.9232077  21.7916787  51.5545888  56.1809362
  21.1157424  51.4540018  56.8511737  22.6144420  51.3985102  56.6445359
  13.5395646  57.7917825  48.8021877  14.1249082  57.0461513  48.9349781
  13.3420484  58.1021782  49.6858541  16.3934301  60.8269072  43.8184319
  15.7244676  61.3115200  43.3348360  16.2547171  61.0738293  44.7327698
   8.1313300  50.3623425  47.5226320   8.1697400  49.8287016  48.3163438
   7.6253593  49.8358631  46.9037297  20.5339569  62.8612816  50.4166978
  21.0857877  63.0244437  51.1816063  20.8745763  63.4517254  49.7447003
  15.5104063  45.2087966  51.0188863  15.5745389  46.0702797  50.6066260
  15.4471183  44.5961967  50.2861221  14.9856335  47.2811098  54.6661897
  15.6128374  46.8988176  55.2799421  14.1284254  47.0625300  55.0317589
  25.3850444  57.6874073  56.2715632  25.9290348  58.3004032  55.7770587
  24.8037289  58.2453652  56.7882645  11.7621878  49.0887527  40.5980252
  12.0575319  48.1798206  40.5447305  10.8609914  49.0675267  40.2761254
  23.6707957  60.8094791  47.4030660  23.5459096  60.0084531  46.8941605
  24.3287048  61.3040985  46.9144630  15.2916125  47.1643524  46.5807800
  14.5702711  47.7779492  46.4415274  16.0809381  47.7001289  46.5024446
  25.7342865  58.6103811  49.0310210  24.7873201  58.4909163  48.9588537
  26.0825638  57.7226310  49.1136472  18.0942438  44.4997950  52.8548452
  18.6176840  44.7460247  53.6174761  17.8754772  45.3317985  52.4351589
  13.4909720  46.7701625  40.7219577  13.1622426  45.8899004  40.5394683
  13.8449090  46.7149294  41.6095966  22.7389298  58.4056528  45.2314562
  22.5914261  57.4773235  45.4122132  23.5642792  58.4276618  44.7471638
  16.6051543  47.0574595  41.0895054  16.9447615  47.5860516  40.3673663
  17.0523663  47.3955001  41.8653621  26.3423420  59.2285086  46.3179435
  27.2669968  59.0227948  46.1803886  26.1738724  58.9801488  47.2268777
  19.2994984  45.4411645  50.5398122  18.9591804  44.6419459  50.9418802
  18.5933990  45.7413356  49.9674956  19.9511455  42.5260958  48.9925446
  20.7737525  42.0521436  48.8704336  20.1949519  43.3051442  49.4924132
  18.5919690  45.5549216  39.2888347  19.3128052  45.9330469  38.7852064
  17.9684994  46.2738093  39.3923325  22.7350813  46.2594365  40.2246680
  22.9514427  47.1419003  39.9235508  22.2544880  45.8680579  39.4952322
  17.4750034  49.2180079  46.8017424  17.3294615  49.5320382  47.6941706
  16.9975238  49.8364979  46.2488323  19.3346417  46.2082627  46.8498314
  19.3207986  45.3123720  46.5130612  20.0518845  46.2153290  47.4836600
  21.1872548  46.6419967  48.8951441  20.9290326  47.5637037  48.8935772
  20.6557588  46.2450401  49.5851905  26.1318736  59.7470754  41.6741527
  26.3055614  59.1817176  40.9215379  26.6247628  60.5471649  41.4921016
  11.9495696  51.7585423  49.7405085  11.4049164  52.5345231  49.8725360
  12.8275046  52.1056227  49.5824207  18.7383313  45.0897007  42.1185884
  18.8599224  44.1613653  42.3176771  18.4485355  45.1035693  41.2064199
  21.6074503  42.7751917  45.2552604  21.6296200  42.8391250  44.3004583
  22.0242562  41.9356426  45.4493110  27.1193909  59.0637518  38.7738425
  27.8144814  59.6844211  38.9925739  27.4617059  58.2132869  39.0490803
  12.7361718  50.8855319  52.6335242  11.9943454  51.0337955  53.2199873
  12.4154462  51.1463585  51.7701992  29.0185332  56.5137224  40.3025756
  29.5436656  56.8524497  39.5775076  28.9307685  55.5784239  40.1188890
  20.6805381  60.4271297  52.4315632  20.9892507  60.1820444  53.3038332
  21.4780863  60.6317936  51.9434502  20.7025993  62.5809207  44.6621009
  20.2630983  62.0885586  45.3553865  21.4534110  62.0382175  44.4213084
  13.1818332  58.7720748  44.6645637  14.0076352  58.4724520  44.2844280
  12.8312384  58.0028370  45.1135425  18.1499865  58.1247216  46.7343310
  17.5279874  57.4617921  46.4345538  18.8204732  58.1508348  46.0516958
  11.3826937  56.6907074  45.6234570  10.5458845  56.2629249  45.4418572
  11.3550582  56.8839518  46.5605362  18.2224392  46.6029004  56.3275816
  18.2712548  47.4791127  55.9453586  18.7646907  46.0606397  55.7547460
  17.7113372  56.6751140  40.2101771  17.8601492  57.3586604  39.5568444
  18.5179815  56.6556230  40.7251227  26.1180876  49.9793522  54.2368989
  27.0190738  49.8399987  53.9452987  26.1928850  50.1447977  55.1767166
  20.4523681  47.3560377  53.0822175  19.5826990  47.6493943  52.8104764
  20.6883161  47.9400822  53.8029439  30.3295310  56.4159535  53.1651704
  30.0380118  56.7789516  54.0015165  29.7167441  55.7026544  52.9865036
  28.5782498  51.5392150  51.6331762  29.0536620  51.7319796  50.8250613
  27.6548064  51.5951336  51.3875145  15.4666005  52.7016317  41.2162840
  15.2212047  51.7978647  41.4143050  15.6361919  52.7033468  40.2742318
  23.1562715  43.5739994  50.5987595  23.6744659  44.3101020  50.2734084
  22.8017847  43.8803987  51.4334355  14.7361652  48.4344675  38.7149001
  14.0430897  48.5089030  38.0589037  14.4913404  47.6705018  39.2370518
  23.4075309  39.9940276  46.1188492  23.6877063  39.3263465  46.7448919
  24.1925916  40.1869372  45.6063156  21.2108777  59.1699270  37.6813518
  20.6382744  59.7889457  37.2283990  21.7841571  59.7198632  38.2153440
  27.2784167  48.4157910  49.8660067  28.2301590  48.5156008  49.8872291
  27.1087618  47.6236179  50.3758152  25.2998547  45.5013493  50.0519468
  24.7048479  45.7818506  49.3565957  25.0148243  45.9907394  50.8236209
  24.4306037  59.4536420  38.8122101  25.3636710  59.3881982  39.0154976
  24.3429250  60.2892687  38.3536633  27.0594054  58.7702290  35.7726048
  26.9807685  58.4362154  36.6661806  27.8803721  59.2624058  35.7717521
  21.5955576  50.5060083  35.0229571  22.5414681  50.3766291  35.0917989
  21.2169821  49.7674745  35.4998999  27.5677460  42.1716089  44.9856463
  27.3702282  41.8631177  45.8699795  28.1777166  42.8977728  45.1154393
  21.4794268  54.5577829  56.4830228  22.3997278  54.7356428  56.6770274
  21.4443851  53.6133874  56.3309927  19.7798493  48.4310059  34.9584456
  18.8729948  48.1343172  35.0347170  20.0574474  48.1339877  34.0918742
  10.6976433  49.7516423  45.4083502  10.3779218  48.8981731  45.1157876
  10.1509862  49.9665001  46.1641470  14.4756341  52.4678863  49.1253009
  14.6942351  53.3995971  49.1441043  14.8882115  52.1086838  49.9107813
  21.3960559  42.9746949  41.1128697  20.5861287  42.6294034  41.4883943
  22.0844976  42.6654493  41.7016309  23.3251107  42.0524996  42.7352994
  23.8782146  42.4720449  43.3943017  23.5621193  41.1260744  42.7775950
  19.3484206  48.0412069  58.5155758  19.2480933  48.9906426  58.4467849
  19.1305748  47.7130308  57.6431828  18.5497278  45.2896994  35.0996435
  19.4116442  45.6151893  35.3592253  18.7347622  44.5028490  34.5869501
  10.5664693  53.3719334  47.3776624   9.8728165  52.9573287  46.8646578
  11.3137684  53.4139871  46.7810043  26.7029914  44.1625521  42.2431658
  26.1228583  44.8210325  41.8609711  26.4365847  43.3402865  41.8319076
  25.1533481  43.5630578  44.4452979  25.6533259  43.6747113  43.6367297
  25.7969088  43.2591631  45.0853787  19.2115476  51.4709208  57.3320820
  18.7282558  52.2709568  57.5384709  19.2976415  51.4817153  56.3788264
  12.4801436  53.3037588  45.2542639  12.4572124  53.4025275  44.3024522
  12.7902072  54.1502739  45.5759805  15.1388814  55.3613743  49.3689253
  16.0932067  55.3297685  49.3019185  14.9401337  54.9004367  50.1839479
  15.7288196  53.9314859  51.9360051  16.5481085  54.4258938  51.9594888
  16.0025004  53.0146827  51.9077619  25.4854792  46.3225611  41.2988007
  24.5980647  46.6075262  41.0808201  25.9008781  46.1619375  40.4515283
  13.4939043  60.9033362  46.3859451  13.3593511  60.1433763  45.8197449
  13.0771105  61.6274262  45.9188240  24.6298006  56.0870286  35.3936027
  25.3333856  56.2920288  36.0093682  23.9060654  56.6547048  35.6585110
  25.4595816  51.8380147  41.5138297  25.4031017  52.2948699  40.6745929
  26.0124158  51.0770832  41.3361139  16.6508168  61.8002679  46.5977894
  16.5340553  62.7448112  46.4956584  15.8300615  61.4976241  46.9863693
  26.5384703  56.5252815  37.4434487  27.3730307  56.0934014  37.2611961
  26.3769046  56.3534829  38.3711381  26.1930595  53.0284928  38.8090826
  26.1379399  52.8629200  37.8679270  25.5676650  53.7360961  38.9653016
  10.9823110  48.2652993  52.6352248  11.6281974  47.7551947  53.1239473
  10.7740261  49.0021674  53.2095673  23.5076502  55.3333840  58.1344389
  24.3767662  55.5074492  57.7731024  23.0283254  56.1528257  58.0120118
  19.5026721  42.5293037  38.3876144  19.4905390  43.4734877  38.5444415
  20.3950143  42.3463183  38.0935605  17.6762683  62.4530941  49.8133822
  18.5789929  62.4854551  50.1300317  17.4500053  61.5231392  49.8280158
  19.4316285  61.2061928  46.4743901  18.4811916  61.2063789  46.3608273
  19.7348771  60.4594662  45.9579936  23.3178840  39.1235814  42.6422081
  22.5511236  38.5694301  42.7878763  23.7289545  39.1957683  43.5036233
  15.3220601  45.4120610  56.7327262  16.1852063  45.0557415  56.9430587
  14.7486012  45.0734505  57.4202667  27.8345500  68.8485371  43.4648079
  27.2710365  68.7575308  42.6964367  27.7197895  68.0285275  43.9450572
  25.3809932  70.3436562  46.3032299  26.1731224  70.0027387  45.8878599
  25.6206582  70.4531537  47.2234453  29.6766964  65.7638142  36.8068128
  29.9292484  65.2419663  36.0451591  28.7391523  65.6004287  36.9094812
  31.3800280  62.1566294  37.7100541  31.5474683  63.0246531  38.0771012
  31.1897450  62.3193576  36.7861830  31.3589501  64.6123952  38.6947208
  31.2389127  65.0581003  39.5332688  30.6642090  64.9609270  38.1360746
  24.9496906  66.7130344  46.2446865  25.0789287  66.9664823  47.1586276
  24.2694357  67.3058052  45.9251520  30.1540998  65.9268804  40.9880773
  30.8565041  66.3789848  41.4554700  29.8221626  65.2852623  41.6160667
  23.8966332  64.1852357  46.2897907  23.1065386  64.4409885  45.8138018
  24.3877579  65.0000694  46.3949948  25.8481077  64.5496936  43.2481384
  25.0512240  64.6615630  43.7664879  25.6206669  64.8883588  42.3822274
  22.1804035  64.4382847  48.7212898  22.4312073  65.3229857  48.9870474
  22.7163583  64.2587449  47.9487990  27.8802102  58.8201326  57.7257234
  27.4869048  58.2667525  58.4004878  28.6968242  59.1311905  58.1163751
  24.8464160  70.2585185  41.6370804  25.3588680  71.0528435  41.7876368
  25.4986873  69.5611475  41.5704405  26.6559044  73.3750941  43.7193557
  26.8325673  74.2968906  43.5314541  27.4515878  73.0609360  44.1487937
  25.9411401  65.4215573  53.5955720  25.8264916  64.5200830  53.8962819
  25.0855919  65.6679270  53.2440537  27.7790360  74.8929115  49.7203899
  28.3297785  74.7646178  48.9480893  26.9401836  75.1924004  49.3698792
  22.8113077  68.5873839  42.4130374  23.6488299  68.9970847  42.1964082
  22.9891344  67.6473281  42.3830568  27.6728971  60.9485901  43.9373554
  28.2472723  60.7261083  43.2046747  28.2599954  61.0174596  44.6902155
  27.9998558  62.9790362  37.9569439  27.1635871  63.3165049  38.2778714
  27.8603328  62.8439342  37.0196576  22.8339248  65.9264554  43.0841108
  22.6363647  65.3333915  42.3592174  22.2785912  65.6216764  43.8017047
  28.7528331  64.4364720  42.9626080  27.9396197  64.7358891  43.3691272
  29.2487325  64.0420409  43.6800562  28.2442406  62.0083076  48.5787315
  28.8841785  61.8671835  47.8810278  27.4119937  61.7217589  48.2025917
  25.3285473  65.4528588  40.7682060  24.3983061  65.3913044  40.9852022
  25.4242945  64.9304541  39.9718701  25.2471022  61.9783401  43.3560301
  25.5077840  62.8928734  43.2469462  26.0688195  61.5107844  43.5056914
  26.7195948  63.3921158  50.5259126  27.3919001  63.1838520  49.8771775
  25.8925734  63.1943244  50.0864358  27.1223445  66.6663761  51.2861563
  26.9843243  65.9344000  51.8873102  28.0328368  66.5772661  51.0045751
  28.4634680  63.3648938  52.5940882  27.9272037  62.9139677  53.2462479
  27.8751388  63.4994847  51.8511347  26.7583223  80.1312988  46.4885541
  26.9979821  80.7631512  47.1664559  25.9152420  79.7801028  46.7750900
  27.8736939  62.8237590  35.1567346  26.9966405  62.7026391  34.7929593
  28.3494692  62.0323668  34.9046235  19.3939079  67.6114749  45.2508853
  20.0810119  67.2976479  44.6629868  19.2387207  68.5156114  44.9776105
  24.1973801  62.5004946  49.6793877  24.1131990  61.8930616  48.9444287
  23.3756507  62.9913964  49.6803373  24.3789400  73.1209743  48.8021877
  24.9642837  72.3753431  48.9349781  24.1814239  73.4313699  49.6858541
  18.9707055  65.6915343  47.5226320  19.0091154  65.1578934  48.3163438
  18.4647348  65.1650548  46.9037297  26.3497817  60.5379883  51.0188863
  26.4139144  61.3994714  50.6066260  26.2864937  59.9253885  50.2861221
  25.8250090  62.6103016  54.6661897  26.4522128  62.2280093  55.2799421
  24.9678009  62.3917218  55.0317589  22.6015632  64.4179445  40.5980252
  22.8969074  63.5090123  40.5447305  21.7003668  64.3967184  40.2761254
  26.1309879  62.4935442  46.5807800  25.4096465  63.1071409  46.4415274
  26.9203135  63.0293206  46.5024446  28.9336193  59.8289868  52.8548452
  29.4570595  60.0752165  53.6174761  28.7148526  60.6609903  52.4351589
  24.3303474  62.0993543  40.7219577  24.0016180  61.2190922  40.5394683
  24.6842845  62.0441211  41.6095966  27.4445297  62.3866512  41.0895054
  27.7841370  62.9152434  40.3673663  27.8917418  62.7246919  41.8653621
  29.4313444  60.8841134  39.2888347  30.1521807  61.2622387  38.7852064
  28.8078748  61.6030011  39.3923325  30.1740171  61.5374544  46.8498314
  30.1601740  60.6415638  46.5130612  30.8912600  61.5445208  47.4836600
  22.7889451  67.0877341  49.7405085  22.2442919  67.8637149  49.8725360
  23.6668801  67.4348145  49.5824207  23.5755473  66.2147237  52.6335242
  22.8337209  66.3629872  53.2199873  23.2548217  66.4755502  51.7701992
  24.0212086  74.1012666  44.6645637  24.8470106  73.8016437  44.2844280
  23.6706138  73.3320288  45.1135425  22.2220691  72.0198992  45.6234570
  21.3852600  71.5921166  45.4418572  22.1944337  72.2131435  46.5605362
  29.0618147  61.9320922  56.3275816  29.1106302  62.8083045  55.9453586
  29.6040661  61.3898315  55.7547460  26.3059759  68.0308235  41.2162840
  26.0605801  67.1270565  41.4143050  26.4755674  68.0325385  40.2742318
  25.5755407  63.7636592  38.7149001  24.8824652  63.8380947  38.0589037
  25.3307159  62.9996936  39.2370518  32.4349330  65.8352000  35.0229571
  33.3808435  65.7058208  35.0917989  32.0563575  65.0966662  35.4998999
  30.6192248  63.7601977  34.9584456  29.7123703  63.4635089  35.0347170
  30.8968229  63.4631795  34.0918742  21.5370188  65.0808340  45.4083502
  21.2172972  64.2273648  45.1157876  20.9903616  65.2956918  46.1641470
  25.3150095  67.7970781  49.1253009  25.5336105  68.7287889  49.1441043
  25.7275869  67.4378756  49.9107813  29.3891032  60.6188912  35.0996435
  30.2510196  60.9443810  35.3592253  29.5741376  59.8320408  34.5869501
  21.4058448  68.7011252  47.3776624  20.7121919  68.2865204  46.8646578
  22.1531439  68.7431788  46.7810043  23.3195190  68.6329505  45.2542639
  23.2965879  68.7317193  44.3024522  23.6295827  69.4794656  45.5759805
  25.9782568  70.6905660  49.3689253  26.9325822  70.6589603  49.3019185
  25.7795092  70.2296284  50.1839479  26.5681950  69.2606777  51.9360051
  27.3874839  69.7550855  51.9594888  26.8418758  68.3438745  51.9077619
  24.3332797  76.2325280  46.3859451  24.1987265  75.4725681  45.8197449
  23.9164859  76.9566180  45.9188240  27.4901923  77.1294597  46.5977894
  27.3734307  78.0740029  46.4956584  26.6694369  76.8268159  46.9863693
  21.8216865  63.5944910  52.6352248  22.4675728  63.0843864  53.1239473
  21.6134016  64.3313592  53.2095673  28.5156437  77.7822859  49.8133822
  29.4183684  77.8146469  50.1300317  28.2893807  76.8523310  49.8280158
  26.1614356  60.7412527  56.7327262  27.0245817  60.3849332  56.9430587
  25.5879766  60.4026422  57.4202667  40.0179483  86.2613775  52.3816578
  39.7269349  87.1659406  52.2663244  40.6536467  86.3030303  53.0960647
  38.6184114  90.2221032  49.7203899  39.1691539  90.0938096  48.9480893
  37.7795590  90.5215921  49.3698792  37.5976978  95.4604905  46.4885541
  37.8373576  96.0923429  47.1664559  36.7546174  95.1092945  46.7750900
  30.2332833  82.9406667  45.2508853  30.9203873  82.6268397  44.6629868
  30.0780962  83.8448032  44.9776105  42.1104839  91.2684028  48.8927045
  42.0375011  92.0738999  49.4046349  41.6682233  91.4675994  48.0675066
  39.6215437  88.9165305  51.8690774  40.3224896  89.5501788  52.0220169
  39.1510552  89.2580037  51.1086414  35.2183155  88.4501660  48.8021877
  35.8036591  87.7045348  48.9349781  35.0207993  88.7605617  49.6858541
  29.8100809  81.0207261  47.5226320  29.8484909  80.4870851  48.3163438
  29.3041102  80.4942466  46.9037297  42.3592890  91.0855133  52.4315632
  42.6680016  90.8404280  53.3038332  43.1568372  91.2901771  51.9434502
  52.0082819  87.0743371  53.1651704  51.7167627  87.4373351  54.0015165
  51.3954950  86.3610379  52.9865036  36.8176323  86.0197578  49.3689253
  37.7719576  85.9881520  49.3019185  36.6188846  85.5588202  50.1839479
  37.4075705  84.5898694  51.9360051  38.2268594  85.0842773  51.9594888
  37.6812513  83.6730662  51.9077619  35.1726552  91.5617198  46.3859451
  35.0381020  90.8017599  45.8197449  34.7558614  92.2858097  45.9188240
  39.3550192  93.1114777  49.8133822  40.2577438  93.1438387  50.1300317
  39.1287562  92.1815228  49.8280158  54.1365976  98.8068581  53.4337394
  54.1254617  98.4121380  52.5617897  54.2986616  98.0734654  54.0271165
  55.0932568 103.1740174  38.7762544  54.4420548 103.7594254  38.3896558
  55.8876931 103.7046369  38.8357581  49.0188195 100.2629311  39.1749678
  49.7919071  99.7158298  39.0362554  49.3713594 101.1273560  39.3864140
  50.8573238 101.5905693  52.3816578  50.5663103 102.4951324  52.2663244
  51.4930222 101.6322221  53.0960647  51.3554473  96.4221977  36.8068128
  51.6079993  95.9003498  36.0451591  50.4179032  96.2588122  36.9094812
  56.5707833 100.8630606  39.3131528  55.9353666 100.9365232  40.0252433
  56.2405239 101.4524204  38.6350607  61.8006183  95.3632989  45.5175850
  62.5331355  94.7932205  45.7513679  61.0445538  94.9754589  45.9582355
  51.0750762  98.3250083  39.0092503  50.9587020  97.6494986  39.6773587
  51.1853021  97.8382457  38.1924656  59.3231603  89.0754563  49.9770458
  58.9914928  89.9449974  49.7531673  58.7277216  88.7590847  50.6564489
  53.0587789  92.8150130  37.7100541  53.2262192  93.6830366  38.0771012
  52.8684958  92.9777411  36.7861830  55.8163123 101.2767109  49.3766371
  55.5163846 102.1792147  49.2682178  55.4714182 101.0099292  50.2287524
  59.2160266  93.7949649  47.0563809  58.3077144  93.7265057  46.7622570
  59.1647862  94.2721594  47.8845634  50.7983902 108.0411429  42.3437339
  50.7207932 108.9919254  42.4225819  50.1945546 107.6957301  43.0012265
  53.2901132  95.2139294  54.9998706  52.5134466  95.7733215  54.9901570
  53.9291695  95.6996077  55.5213576  61.0821913  91.9966087  48.8341682
  60.4396293  92.2898620  48.1881477  60.5776841  91.8819008  49.6394879
  58.7362076  95.7429260  39.5227542  59.6479933  95.9756647  39.3475239
  58.2271724  96.3266305  38.9602620  51.5447504  98.0224748  54.5616673
  52.2862189  98.5609792  54.2851496  50.8384490  98.6491037  54.7188225
  57.0202844 100.1653888  53.1588834  57.4286200  99.7236299  52.4143467
  56.2980106  99.5906516  53.4123027  57.3431659 100.7255079  46.9141123
  56.7140521 100.8900793  46.2117191  56.9557321 101.1396688  47.6852087
  61.2220891 101.6609517  44.2685487  60.5371929 102.0408418  43.7182520
  61.3064740 102.2704843  45.0017435  56.5233359  92.7630863  52.1903565
  56.2794291  93.5172924  51.6537841  56.7993290  93.1416211  53.0250812
  58.4771822  99.3069476  50.8680830  58.6888718  99.9501236  50.1915212
  58.4301571  98.4731792  50.4002761  56.0798051  91.9187296  47.7717403
  55.2182530  92.2168550  48.0634140  56.1060486  92.1357695  46.8398435
  52.8959621 100.4629487  44.1791208  53.3597966 100.7417190  43.3895831
  52.6316419  99.5612932  43.9964299  50.2808868  95.1764396  55.3631983
  49.6507529  95.8580677  55.5967380  50.1744956  95.0647478  54.4185121
  59.5917650 102.1841431  49.0403188  60.4135094 101.7821618  48.7585869
  59.5880053 102.0809665  49.9919304  53.3574254 101.7325474  51.1963898
  53.4218686 102.1945882  52.0322070  52.6485178 101.1022839  51.3246208
  67.6823643  98.5280180  45.3888159  66.9287352  97.9587578  45.2332164
  67.8171184  98.4942844  46.3358794  53.0722271 103.3993582  41.0642879
  52.9367946 104.2445118  41.4927726  53.6132084 103.6012860  40.3008812
  46.5251669 100.9169020  41.6370804  47.0376189 101.7112270  41.7876368
  47.1774382 100.2195310  41.5704405  48.3346553 104.0334776  43.7193557
  48.5113182 104.9552741  43.5314541  49.1303387 103.7193195  44.1487937
  52.4757572  90.8943041  55.3177490  53.2167285  91.4950194  55.2381953
  52.7075495  90.1520679  54.7595533  54.6990748 104.0217148  55.1943221
  54.2554602 103.2353527  54.8764125  55.3607961 104.2096299  54.5287112
  49.4577869 105.5512950  49.7203899  50.0085294 105.4230013  48.9480893
  48.6189345 105.8507839  49.3698792  56.7971986 104.3019948  53.2224622
  56.7790461 105.1228829  52.7304891  57.7191906 104.1774024  53.4474763
  53.2545040 101.8164078  54.0648130  53.7873377 101.0552366  53.8347438
  52.7259121 101.5237730  54.8072285  56.3865018  96.9132755  38.1014207
  55.8711641  97.6837360  38.3402595  56.1142326  96.2397891  38.7247269
  61.3599292  99.6665110  40.0367381  60.5828735  99.3276269  39.5922543
  62.0390773  99.6717733  39.3622346  56.1751321  94.7859847  39.9273988
  55.8701456  95.1005996  40.7784132  57.1281763  94.8641267  39.9701321
  54.6197753 100.9450070  41.5766942  54.0919114 100.2102830  41.2640180
  54.1185255 101.7224747  41.3306911  59.5990599  99.1399091  46.6933989
  58.9414273  99.8298352  46.7814117  60.4030998  99.5295523  47.0367975
  58.4096057  97.4943464  44.7437930  58.9227939  98.1273455  45.2459640
  59.0597281  96.8944659  44.3781290  52.7650353  98.7630281  34.5801915
  51.8577415  98.5319534  34.7793064  53.2621385  97.9667900  34.7675897
  55.6718432 107.4727788  37.4998602  54.9980130 107.7759485  38.1083559
  56.0584254 108.2756868  37.1504059  53.9438586  98.8642875  39.1025906
  53.0349805  98.5801908  39.1998375  53.9733670  99.2841954  38.2429212
  59.1757854 102.4749465  42.8717073  58.7220181 101.6340375  42.9282264
  58.5451820 103.1110863  43.2091853  58.1190773  93.4041451  44.1017741
  57.3813530  92.8918837  44.4327983  58.3717547  92.9641833  43.2901017
  57.6190793 104.3125962  43.8066891  57.9113767 104.8731019  43.0879257
  58.1289413 104.6054523  44.5620050  53.6414674 100.4051619  36.4413984
  53.2034104  99.6887478  35.9819621  54.3825115 100.6327734  35.8799075
  52.5824418 105.0906313  44.8960344  52.5400597 105.3167159  43.9668876
  53.4987117 104.8569687  45.0446146  56.0290052  95.5590380  51.7940974
  56.3839440  95.7861853  52.6535439  56.6762183  95.8908757  51.1718229
  61.7587789  98.6808816  42.4990303  61.6205687  98.8710412  41.5711492
  61.4024008  99.4428199  42.9558354  61.7857168 100.7485343  47.5101574
  62.2193675 100.6560632  48.3584628  62.4988749 100.7242844  46.8721590
  50.6990219 101.9669342  44.6922307  51.4930817 101.4719662  44.4904882
  49.9881911 101.4387205  44.3290013  55.5185063 104.3487437  49.0434675
  55.5722086 104.9178374  49.8112391  54.6499845 104.5189322  48.6788712
  62.6472718 100.7909044  50.0434460  62.8408608 101.6954854  50.2893734
  62.5473336 100.3316463  50.8773045  54.3009029  90.6766934  52.5424787
  53.6536944  91.3756884  52.4489263  55.0710044  91.1103078  52.9101035
  57.7087827 100.9415787  55.6175340  57.5573333 100.7126338  54.7005424
  57.6992506 101.8986388  55.6306685  54.4773163  98.5147699  50.6021607
  55.4065223  98.6658859  50.4290574  54.0564193  98.6031720  49.7470253
  53.2761495 102.5398364  48.3720144  53.1372581 102.1717148  49.2446082
  52.4876091 103.0546003  48.2004102  53.8709647 107.6407460  39.7145681
  54.0461403 107.1695503  40.5291303  53.1842435 108.2673226  39.9426941
  54.8266710 101.9179966  45.7608982  54.4916543 101.8780736  46.6566632
  54.3270656 101.2524682  45.2879392  57.7625902  99.2636001  36.0346042
  57.1455072  98.5382829  35.9379094  57.2942390 100.0245361  35.6913116
  59.4180033 103.9734909  53.6951822  59.3592579 103.2894129  53.0282405
  59.8199552 104.7153899  53.2432448  48.4370732 110.7896823  46.4885541
  48.6767330 111.4215347  47.1664559  47.5939929 110.4384863  46.7750900
  59.4197441 101.9374493  51.9265802  58.5324219 101.6000415  52.0492201
  59.9895992 101.2057524  52.1634567  41.0726588  98.2698585  45.2508853
  41.7597628  97.9560315  44.6629868  40.9174716  99.1739949  44.9776105
  52.9498594 106.5975945  48.8927045  52.8768765 107.4030917  49.4046349
  52.5075987 106.7967911  48.0675066  52.7388374 105.8347715  42.4029866
  51.9555895 106.3769396  42.4968091  53.4381119 106.3521695  42.8024108
  56.0485024  91.6442345  45.0464072  56.5453723  90.8912307  44.7265142
  55.2772005  91.6806662  44.4807281  63.9014781  97.3482710  46.6882363
  63.8904657  98.2307426  46.3176296  63.0332161  96.9954261  46.4936900
  55.4097277 106.4962779  51.0485204  56.1225250 107.1310244  50.9761105
  54.9187306 106.5926645  50.2325205  57.1314804 100.4014032  42.6202495
  56.1971083 100.5215495  42.4507200  57.3091473  99.4986499  42.3562505
  60.5187356  96.2431351  43.1552529  60.9847808  97.0759343  43.0812832
  60.9694856  95.7776333  43.8597788  50.4609191 104.2457223  51.8690774
  51.1618651 104.8793706  52.0220169  49.9904306 104.5871954  51.1086414
  58.5863587 102.5875173  40.1538681  58.8623431 102.4731767  41.0632555
  57.7168086 102.1892658  40.1150855  58.4904019  88.6111938  47.1943431
  57.5767098  88.8416165  47.3625638  58.9197120  88.6950382  48.0457463
  58.2610477  96.8001830  49.6943325  57.6081927  97.0477738  49.0395778
  58.6390857  95.9865969  49.3605802  55.2217651 106.8361524  43.7971495
  55.4040045 106.0183179  44.2599247  56.0450637 107.0529216  43.3596385
  55.5559816 105.7629709  41.0586544  56.0847583 105.2522163  40.4456706
  55.8188036 105.4472239  41.9232077  54.3098050  97.5421641  56.1809362
  53.6338687  97.4415771  56.8511737  55.1325684  97.3860855  56.6445359
  46.0576909 103.7793578  48.8021877  46.6430346 103.0337266  48.9349781
  45.8601748 104.0897535  49.6858541  48.9115564 106.8144825  43.8184319
  48.2425940 107.2990953  43.3348360  48.7728434 107.0614046  44.7327698
  40.6494564  96.3499178  47.5226320  40.6878663  95.8162769  48.3163438
  40.1434857  95.8234384  46.9037297  53.0520833 108.8488569  50.4166978
  53.6039141 109.0120190  51.1816063  53.3927026 109.4393007  49.7447003
  47.5037599  93.2686851  54.6661897  48.1309637  92.8863929  55.2799421
  46.6465518  93.0501053  55.0317589  57.9031707 103.6749826  56.2715632
  58.4471611 104.2879785  55.7770587  57.3218552 104.2329405  56.7882645
  56.1889220 106.7970544  47.4030660  56.0640360 105.9960284  46.8941605
  56.8468311 107.2916738  46.9144630  58.2524129 104.5979564  49.0310210
  57.3054464 104.4784916  48.9588537  58.6006902 103.7102063  49.1136472
  55.2570562 104.3932281  45.2314562  55.1095524 103.4648988  45.4122132
  56.0824055 104.4152371  44.7471638  58.8604684 105.2160839  46.3179435
  59.7851231 105.0103701  46.1803886  58.6919987 104.9677241  47.2268777
  55.2532076  92.2470118  40.2246680  55.4695691  93.1294756  39.9235508
  54.7726143  91.8556332  39.4952322  58.6500000 105.7346507  41.6741527
  58.8236877 105.1692929  40.9215379  59.1428891 106.5347402  41.4921016
  64.5039391  98.4982930  43.2931826  64.9470537  97.7490255  42.8950950
  63.6265901  98.4893066  42.9105558  59.6375172 105.0513271  38.7738425
  60.3326077 105.6719964  38.9925739  59.9798323 104.2008623  39.0490803
  61.5366596 102.5012977  40.3025756  62.0617920 102.8400250  39.5775076
  61.4488948 101.5659992  40.1188890  53.1986644 106.4147050  52.4315632
  53.5073771 106.1696197  53.3038332  53.9962126 106.6193689  51.9434502
  53.2207256 108.5684960  44.6621009  52.7812247 108.0761339  45.3553865
  53.9715373 108.0257928  44.4213084  45.6999595 104.7596501  44.6645637
  46.5257615 104.4600273  44.2844280  45.3493647 103.9904123  45.1135425
  50.6681128 104.1122969  46.7343310  50.0461138 103.4493674  46.4345538
  51.3385995 104.1384101  46.0516958  43.9008200 102.6782827  45.6234570
  43.0640109 102.2505002  45.4418572  43.8731846 102.8715271  46.5605362
  50.7405656  92.5904757  56.3275816  50.7893811  93.4666880  55.9453586
  51.2828170  92.0482150  55.7547460  61.2260502 103.1345880  55.6076954
  60.4356045 103.1170019  55.0681453  60.9893856 103.6734174  56.3625990
  61.3458377  99.9838347  52.9209682  61.3956382  99.8188354  53.8625205
  61.2372300  99.1165606  52.5307563  50.2294635 102.6626893  40.2101771
  50.3782756 103.3462357  39.5568444  51.0361079 102.6431983  40.7251227
  58.6362139  95.9669275  54.2368989  59.5372002  95.8275740  53.9452987
  58.7110114  96.1323730  55.1767166  52.9704944  93.3436130  53.0822175
  52.1008254  93.6369696  52.8104764  53.2064425  93.9276575  53.8029439
  62.8476573 102.4035288  53.1651704  62.5561382 102.7665269  54.0015165
  62.2348705 101.6902297  52.9865036  64.0472256  99.9688168  45.6854274
  64.8819147 100.4077972  45.8491834  64.1831385  99.4926821  44.8662520
  61.0963762  97.5267903  51.6331762  61.5717883  97.7195549  50.8250613
  60.1729327  97.5827089  51.3875145  55.6743978  89.5615747  50.5987595
  56.1925922  90.2976773  50.2734084  55.3199111  89.8679740  51.4334355
  53.7290041 105.1575023  37.6813518  53.1564008 105.7765210  37.2283990
  54.3022835 105.7074385  38.2153440  59.7965431  94.4033663  49.8660067
  60.7482854  94.5031761  49.8872291  59.6268881  93.6111932  50.3758152
  57.8179810  91.4889246  50.0519468  57.2229742  91.7694259  49.3565957
  57.5329507  91.9783147  50.8236209  56.9487301 105.4412173  38.8122101
  57.8817974 105.3757735  39.0154976  56.8610513 106.2768440  38.3536633
  59.5775317 104.7578043  35.7726048  59.4988949 104.4237907  36.6661806
  60.3984984 105.2499811  35.7717521  62.2753508  97.6239783  48.9802367
  62.2429829  96.6855783  49.1662051  62.8854132  97.7023819  48.2468192
  54.1136839  96.4935836  35.0229571  55.0595944  96.3642044  35.0917989
  53.7351084  95.7550498  35.4998999  62.4247997  94.4150826  49.0260650
  61.9087046  93.6309283  48.8390579  63.3087946  94.0869543  49.1907169
  60.0858724  88.1591842  44.9856463  59.8883545  87.8506930  45.8699795
  60.6958429  88.8853481  45.1154393  68.0930058  98.6855790  48.1208404
  68.8233447  98.4241078  48.6816107  67.4837004  97.9484512  48.1610472
  66.1745355  96.8263652  48.7182855  65.4478519  96.6919617  48.1099346
  65.7592642  97.1340481  49.5239573  53.9975532 100.5453582  56.4830228
  54.9178541 100.7232181  56.6770274  53.9625115  99.6009627  56.3309927
  52.2979757  94.4185812  34.9584456  51.3911212  94.1218925  35.0347170
  52.5755738  94.1215630  34.0918742  51.8665470  94.0287822  58.5155758
  51.7662197  94.9782179  58.4467849  51.6487012  93.7006061  57.6431828
  59.2211178  90.1501274  42.2431658  58.6409847  90.8086078  41.8609711
  58.9547110  89.3278618  41.8319076  57.6714744  89.5506332  44.4452979
  58.1714522  89.6622866  43.6367297  58.3150352  89.2467384  45.0853787
  51.7296740  97.4584961  57.3320820  51.2463822  98.2585321  57.5384709
  51.8157679  97.4692906  56.3788264  58.0036056  92.3101364  41.2988007
  57.1161911  92.5951015  41.0808201  58.4190045  92.1495128  40.4515283
  61.3550592  92.3347885  45.0142346  62.1310982  92.8244338  45.2866963
  60.6298726  92.7605939  45.4714215  63.7923150  93.0475504  46.0716286
  64.3867641  92.8071240  45.3609595  63.8649734  92.3282635  46.6989823
  46.0120306 106.8909115  46.3859451  45.8774774 106.1309516  45.8197449
  45.5952368 107.6150015  45.9188240  57.1479269 102.0746039  35.3936027
  57.8515119 102.2796041  36.0093682  56.4241918 102.6422801  35.6585110
  57.9777079  97.8255900  41.5138297  57.9212281  98.2824452  40.6745929
  58.5305422  97.0646585  41.3361139  61.7881885  93.6145632  42.3388416
  61.5318820  93.2142268  43.1696624  61.1634753  94.3289426  42.2138555
  66.0994223  96.3541705  44.8459708  65.5393781  96.4234895  45.6191270
  65.4937727  96.1782690  44.1259204  49.1689432 107.7878432  46.5977894
  49.0521816 108.7323865  46.4956584  48.3481878 107.4851994  46.9863693
  59.0565966 102.5128568  37.4434487  59.8911570 102.0809767  37.2611961
  58.8950309 102.3410582  38.3711381  58.7111859  99.0160681  38.8090826
  58.6560662  98.8504953  37.8679270  58.0857914  99.7236714  38.9653016
  56.0257766 101.3209593  58.1344389  56.8948925 101.4950246  57.7731024
  55.5464517 102.1404010  58.0120118  50.1943946 108.4406694  49.8133822
  51.0971193 108.4730305  50.1300317  49.9681316 107.5107145  49.8280158
  51.9497548 107.1937681  46.4743901  50.9993179 107.1939542  46.3608273
  52.2530034 106.4470415  45.9579936  47.8401865  91.3996363  56.7327262
  48.7033326  91.0433168  56.9430587  47.2667275  91.0610258  57.4202667
  67.6850242 113.0298219  47.5389663  68.3228652 112.9104967  46.8353003
  67.5671084 113.9779063  47.5977615  64.4939948 112.9825647  47.4751188
  64.1558459 112.8666712  46.5871723  65.3629716 112.5816812  47.4552194
  60.3526764 114.8361124  43.4648079  59.7891629 114.7451061  42.6964367
  60.2379159 114.0161028  43.9450572  64.9759731 114.1360499  53.4337394
  64.9648372 113.7413297  52.5617897  65.1380370 113.4026572  54.0271165
  57.8991195 116.3312315  46.3032299  58.6912487 115.9903140  45.8878599
  58.1387846 116.4407290  47.2234453  65.9326322 118.5032091  38.7762544
  65.2814302 119.0886172  38.3896558  66.7270685 119.0338286  38.8357581
  59.8581949 115.5921229  39.1749678  60.6312825 115.0450216  39.0362554
  60.2107348 116.4565478  39.3864140  61.6966992 116.9197611  52.3816578
  61.4056858 117.8243242  52.2663244  62.3323976 116.9614138  53.0960647
  62.6223199 114.2974459  48.9717937  63.2186771 114.0730482  48.2574900
  62.6798170 113.5559205  49.5743385  62.1948227 111.7513895  36.8068128
  62.4473748 111.2295416  36.0451591  61.2572786 111.5880040  36.9094812
  67.2391510 110.7549673  44.6142871  68.0254599 110.3369096  44.2633288
  67.5030214 111.6595765  44.7824520  67.4101587 116.1922523  39.3131528
  66.7747420 116.2657150  40.0252433  67.0798994 116.7816122  38.6350607
  72.6399937 110.6924906  45.5175850  73.3725109 110.1224123  45.7513679
  71.8839293 110.3046507  45.9582355  61.9144516 113.6542001  39.0092503
  61.7980774 112.9786904  39.6773587  62.0246776 113.1674375  38.1924656
  64.2576057 113.1152148  42.7139192  63.8934264 112.5882769  43.4252114
  65.1143173 112.7250617  42.5405678  70.1625358 104.4046480  49.9770458
  69.8308682 105.2741891  49.7531673  69.5670971 104.0882764  50.6564489
  63.8981544 108.1442047  37.7100541  64.0655946 109.0122284  38.0771012
  63.7078713 108.3069329  36.7861830  66.6556877 116.6059026  49.3766371
  66.3557600 117.5084065  49.2682178  66.3107937 116.3391210  50.2287524
  60.1069359 113.0572823  45.4103076  59.1819855 112.9249037  45.6180767
  60.3553772 113.8367042  45.9073018  70.0554021 109.1241567  47.0563809
  69.1470898 109.0556975  46.7622570  70.0041617 109.6013511  47.8845634
  63.8770765 110.5999705  38.6947208  63.7570390 111.0456756  39.5332688
  63.1823353 110.9485023  38.1360746  57.4678170 112.7006097  46.2446865
  57.5970551 112.9540576  47.1586276  56.7875621 113.2933805  45.9251520
  64.1294887 110.5431212  54.9998706  63.3528221 111.1025132  54.9901570
  64.7685450 111.0287995  55.5213576  71.9215667 107.3258005  48.8341682
  71.2790048 107.6190538  48.1881477  71.4170596 107.2110925  49.6394879
  69.5755831 111.0721178  39.5227542  70.4873687 111.3048565  39.3475239
  69.0665478 111.6558222  38.9602620  62.3841259 113.3516665  54.5616673
  63.1255943 113.8901709  54.2851496  61.6778244 113.9782954  54.7188225
  67.8596599 115.4945806  53.1588834  68.2679955 115.0528216  52.4143467
  67.1373860 114.9198433  53.4123027  64.2127669 110.4318413  50.5322391
  65.0588864 110.8557826  50.6757040  64.1526306 109.7752037  51.2260954
  68.1825413 116.0546997  46.9141123  67.5534276 116.2192711  46.2117191
  67.7951075 116.4688606  47.6852087  72.0614645 116.9901434  44.2685487
  71.3765683 117.3700336  43.7182520  72.1458494 117.5996761  45.0017435
  67.3627114 108.0922781  52.1903565  67.1188046 108.8464842  51.6537841
  67.6387044 108.4708129  53.0250812  69.3165577 114.6361393  50.8680830
  69.5282472 115.2793153  50.1915212  69.2695325 113.8023710  50.4002761
  66.9191806 107.2479214  47.7717403  66.0576285 107.5460468  48.0634140
  66.9454240 107.4649613  46.8398435  63.7353375 115.7921405  44.1791208
  64.1991721 116.0709108  43.3895831  63.4710173 114.8904849  43.9964299
  60.6277456 115.3392886  47.1170972  61.1978813 115.7680155  46.4788456
  61.2185568 115.0575471  47.8155157  62.6722261 111.9144557  40.9880773
  63.3746305 112.3665601  41.4554700  62.3402890 111.2728376  41.6160667
  61.1202623 110.5056314  55.3631983  60.4901283 111.1872594  55.5967380
  61.0138711 110.3939395  54.4185121  56.4147595 110.1728110  46.2897907
  55.6246649 110.4285638  45.8138018  56.9058843 110.9876448  46.3949948
  70.4311405 117.5133349  49.0403188  71.2528848 117.1113536  48.7585869
  70.4273808 117.4101583  49.9919304  58.3662341 110.5372689  43.2481384
  57.5693504 110.6491383  43.7664879  58.1387933 110.8759341  42.3822274
  64.1968008 117.0617392  51.1963898  64.2612441 117.5237799  52.0322070
  63.4878932 116.4314757  51.3246208  54.6985298 110.4258600  48.7212898
  54.9493337 111.3105610  48.9870474  55.2344847 110.2463202  47.9487990
  78.5217398 113.8572097  45.3888159  77.7681106 113.2879495  45.2332164
  78.6564939 113.8234762  46.3358794  63.9116026 118.7285500  41.0642879
  63.7761701 119.5737035  41.4927726  64.4525838 118.9304777  40.3008812
  60.3983365 104.8077079  57.7257234  60.0050311 104.2543278  58.4004878
  61.2149506 105.1187658  58.1163751  57.3645423 116.2460938  41.6370804
  57.8769944 117.0404188  41.7876368  58.0168136 115.5487228  41.5704405
  59.1740308 119.3626694  43.7193557  59.3506936 120.2844659  43.5314541
  59.9697141 119.0485113  44.1487937  63.3151326 106.2234959  55.3177490
  64.0561040 106.8242112  55.2381953  63.5469249 105.4812596  54.7595533
  58.4592664 111.4091326  53.5955720  58.3446180 110.5076583  53.8962819
  57.6037182 111.6555023  53.2440537  65.5384502 119.3509066  55.1943221
  65.0948356 118.5645445  54.8764125  66.2001716 119.5388217  54.5287112
  60.2971623 120.8804868  49.7203899  60.8479048 120.7521931  48.9480893
  59.4583099 121.1799757  49.3698792  67.6365740 119.6311866  53.2224622
  67.6184216 120.4520747  52.7304891  68.5585660 119.5065941  53.4474763
  64.0938794 117.1455996  54.0648130  64.6267131 116.3844284  53.8347438
  63.5652876 116.8529647  54.8072285  67.2608489 102.2516061  49.5941772
  66.9172759 103.1417703  49.5180883  67.6287452 102.0617719  48.7311357
  55.3294340 114.5749592  42.4130374  56.1669562 114.9846600  42.1964082
  55.5072608 113.6349034  42.3830568  67.2258772 112.2424673  38.1014207
  66.7105396 113.0129277  38.3402595  66.9536081 111.5689809  38.7247269
  64.8105883 107.0874373  43.1599446  63.9547479 106.6981224  42.9805084
  65.2232835 107.1666334  42.2999231  66.3405030 104.6220717  47.5591005
  65.8369825 104.5850852  46.7458811  66.6335637 105.5313459  47.6187662
  62.5847916 104.7059446  46.5657187  63.4500912 104.5102255  46.2063077
  62.6525425 104.4769798  47.4926544  72.1993046 114.9957027  40.0367381
  71.4222489 114.6568187  39.5922543  72.8784527 115.0009650  39.3622346
  67.0145075 110.1151765  39.9273988  66.7095211 110.4297914  40.7784132
  67.9675517 110.1933185  39.9701321  65.4591507 116.2741988  41.5766942
  64.9312869 115.5394748  41.2640180  64.9579010 117.0516664  41.3306911
  70.4384353 114.4691009  46.6933989  69.7808028 115.1590270  46.7814117
  71.2424752 114.8587440  47.0367975  60.1910235 106.9361654  43.9373554
  60.7653987 106.7136836  43.2046747  60.7781217 107.0050349  44.6902155
  69.2489812 112.8235381  44.7437930  69.7621694 113.4565373  45.2459640
  69.8991036 112.2236577  44.3781290  60.5179822 108.9666115  37.9569439
  59.6817134 109.3040802  38.2778714  60.3784591 108.8315095  37.0196576
  62.4932902 103.8102903  42.6648623  61.8397315 103.4951920  42.0405238
  62.4513377 103.1878644  43.3908446  63.6044107 114.0922198  34.5801915
  62.6971169 113.8611452  34.7793064  64.1015139 113.2959818  34.7675897
  66.5112186 122.8019705  37.4998602  65.8373885 123.1051402  38.1083559
  66.8978008 123.6048786  37.1504059  65.7270643 110.2984837  46.9896271
  64.8093204 110.5199784  46.8317959  66.1430786 110.3731147  46.1307978
  66.5105691 111.6976252  42.1198951  67.2577509 112.2097650  41.8106073
  66.7797280 111.3760305  42.9803345  64.7832341 114.1934793  39.1025906
  63.8743560 113.9093826  39.1998375  64.8127425 114.6133872  38.2429212
  70.0151608 117.8041383  42.8717073  69.5613935 116.9632293  42.9282264
  69.3845575 118.4402781  43.2091853  68.9584528 108.7333369  44.1017741
  68.2207284 108.2210755  44.4327983  69.2111301 108.2933750  43.2901017
  68.4584547 119.6417879  43.8066891  68.7507522 120.2022936  43.0879257
  68.9683168 119.9346440  44.5620050  69.0596155 101.5109621  44.6959510
  69.3655032 100.6506984  44.4085425  69.7848760 102.1027241  44.4958504
  55.3520511 111.9140307  43.0841108  55.1544911 111.3209668  42.3592174
  54.7967175 111.6092517  43.8017047  63.3317235 111.8063414  45.2035701
  63.3865845 110.8537250  45.1278177  62.5208437 111.9622853  45.6876999
  64.4808429 115.7343537  36.4413984  64.0427858 115.0179396  35.9819621
  65.2218869 115.9619652  35.8799075  61.2709595 110.4240473  42.9626080
  60.4577460 110.7234644  43.3691272  61.7668589 110.0296162  43.6800562
  63.4218173 120.4198230  44.8960344  63.3794351 120.6459077  43.9668876
  64.3380871 120.1861605  45.0446146  66.8683806 110.8882298  51.7940974
  67.2233194 111.1153771  52.6535439  67.5155938 111.2200675  51.1718229
  72.5981543 114.0100734  42.4990303  72.4599442 114.2002330  41.5711492
  72.2417762 114.7720117  42.9558354  60.7623669 107.9958829  48.5787315
  61.4023049 107.8547588  47.8810278  59.9301200 107.7093342  48.2025917
  72.6250923 116.0777261  47.5101574  73.0587430 115.9852550  48.3584628
  73.3382504 116.0534761  46.8721590  61.5383973 117.2961259  44.6922307
  62.3324572 116.8011580  44.4904882  60.8275666 116.7679123  44.3290013
  66.3578818 119.6779355  49.0434675  66.4115840 120.2470291  49.8112391
  65.4893599 119.8481240  48.6788712  57.8466737 111.4404341  40.7682060
  56.9164325 111.3788797  40.9852022  57.9424209 110.9180294  39.9718701
  57.7652286 107.9659154  43.3560301  58.0259103 108.8804487  43.2469462
  58.5869458 107.4983597  43.5056914  59.2377211 109.3796911  50.5259126
  59.9100265 109.1714273  49.8771775  58.4106998 109.1818997  50.0864358
  73.4866472 116.1200962  50.0434460  73.6802363 117.0246772  50.2893734
  73.3867091 115.6608381  50.8773045  65.1402783 106.0058852  52.5424787
  64.4930698 106.7048802  52.4489263  65.9103799 106.4394996  52.9101035
  68.5481581 116.2707704  55.6175340  68.3967088 116.0418256  54.7005424
  68.5386261 117.2278306  55.6306685  65.3166918 113.8439617  50.6021607
  66.2458978 113.9950777  50.4290574  64.8957948 113.9323638  49.7470253
  64.1155249 117.8690281  48.3720144  63.9766335 117.5009066  49.2446082
  63.3269846 118.3837921  48.2004102  64.7103401 122.9699378  39.7145681
  64.8855157 122.4987421  40.5291303  64.0236189 123.5965144  39.9426941
  65.6660464 117.2471884  45.7608982  65.3310297 117.2072654  46.6566632
  65.1664410 116.5816600  45.2879392  59.6404708 112.6539514  51.2861563
  59.5024506 111.9219753  51.8873102  60.5509632 112.5648414  51.0045751
  68.6019656 114.5927918  36.0346042  67.9848827 113.8674747  35.9379094
  68.1336145 115.3537279  35.6913116  62.2687009 112.3659473  50.7745243
  62.9786628 111.7252666  50.7331861  62.2256317 112.6172368  51.6971424
  70.2573788 119.3026827  53.6951822  70.1986334 118.6186047  53.0282405
  70.6593306 120.0445817  53.2432448  60.9815943 109.3524691  52.5940882
  60.4453300 108.9015430  53.2462479  60.3932652 109.4870600  51.8511347
  60.3918202 108.8113343  35.1567346  59.5147668 108.6902144  34.7929593
  60.8675955 108.0199421  34.9046235  70.2591195 117.2666411  51.9265802
  69.3717974 116.9292333  52.0492201  70.8289746 116.5349442  52.1634567
  51.9120342 113.5990502  45.2508853  52.5991382 113.2852233  44.6629868
  51.7568471 114.5031867  44.9776105  56.7155064 108.4880699  49.6793877
  56.6313253 107.8806369  48.9444287  55.8937771 108.9789717  49.6803373
  63.7892348 121.9267863  48.8927045  63.7162520 122.7322835  49.4046349
  63.3469742 122.1259829  48.0675066  63.5782128 121.1639633  42.4029866
  62.7949650 121.7061313  42.4968091  64.2774873 121.6813613  42.8024108
  66.8878778 106.9734263  45.0464072  67.3847478 106.2204225  44.7265142
  66.1165760 107.0098579  44.4807281  74.7408536 112.6774628  46.6882363
  74.7298412 113.5599344  46.3176296  73.8725915 112.3246179  46.4936900
  66.2491032 121.8254697  51.0485204  66.9619004 122.4602162  50.9761105
  65.7581061 121.9218563  50.2325205  67.9708559 115.7305950  42.6202495
  67.0364838 115.8507412  42.4507200  68.1485227 114.8278417  42.3562505
  63.4713747 109.1151646  44.7735756  63.1011534 108.5622686  45.4616662
  63.9672839 108.5109779  44.2210756  71.3581110 111.5723269  43.1552529
  71.8241562 112.4051261  43.0812832  71.8088611 111.1068251  43.8597788
  61.3002946 119.5749141  51.8690774  62.0012405 120.2085624  52.0220169
  60.8298061 119.9163872  51.1086414  69.4257341 117.9167090  40.1538681
  69.7017185 117.8023685  41.0632555  68.5561840 117.5184575  40.1150855
  69.3297773 103.9403856  47.1943431  68.4160853 104.1708083  47.3625638
  69.7590874 104.0242300  48.0457463  69.1004231 112.1293748  49.6943325
  68.4475682 112.3769655  49.0395778  69.4784611 111.3157886  49.3605802
  66.0611405 122.1653441  43.7971495  66.2433800 121.3475097  44.2599247
  66.8844391 122.3821133  43.3596385  66.3953571 121.0921626  41.0586544
  66.9241337 120.5814081  40.4456706  66.6581790 120.7764157  41.9232077
  65.1491805 112.8713559  56.1809362  64.4732442 112.7707688  56.8511737
  65.9719438 112.7152773  56.6445359  56.8970664 119.1085496  48.8021877
  57.4824100 118.3629184  48.9349781  56.6995502 119.4189452  49.6858541
  51.4888318 111.6791096  47.5226320  51.5272418 111.1454687  48.3163438
  50.9828611 111.1526301  46.9037297  58.8679081 106.5255636  51.0188863
  58.9320407 107.3870467  50.6066260  58.8046201 105.9129638  50.2861221
  58.3431353 108.5978769  54.6661897  58.9703392 108.2155846  55.2799421
  57.4859272 108.3792971  55.0317589  68.7425462 119.0041744  56.2715632
  69.2865366 119.6171702  55.7770587  68.1612307 119.5621322  56.7882645
  55.1196896 110.4055198  40.5980252  55.4150337 109.4965876  40.5447305
  54.2184932 110.3842937  40.2761254  67.0282975 122.1262462  47.4030660
  66.9034114 121.3252202  46.8941605  67.6862066 122.6208655  46.9144630
  58.6491143 108.4811195  46.5807800  57.9277729 109.0947162  46.4415274
  59.4384399 109.0168959  46.5024446  69.0917883 119.9271482  49.0310210
  68.1448219 119.8076833  48.9588537  69.4400656 119.0393980  49.1136472
  61.4517456 105.8165621  52.8548452  61.9751858 106.0627918  53.6174761
  61.2329790 106.6485656  52.4351589  56.8484737 108.0869296  40.7219577
  56.5197444 107.2066675  40.5394683  57.2024108 108.0316964  41.6095966
  66.0964316 119.7224198  45.2314562  65.9489279 118.7940906  45.4122132
  66.9217810 119.7444289  44.7471638  59.9626561 108.3742265  41.0895054
  60.3022633 108.9028187  40.3673663  60.4098681 108.7122672  41.8653621
  69.6998438 120.5452757  46.3179435  70.6244986 120.3395618  46.1803886
  69.5313742 120.2969158  47.2268777  62.6570001 106.7579316  50.5398122
  62.3166822 105.9587129  50.9418802  61.9509008 107.0581027  49.9674956
  63.3086473 103.8428629  48.9925446  64.1312543 103.3689107  48.8704336
  63.5524537 104.6219112  49.4924132  61.9494708 106.8716887  39.2888347
  62.6703070 107.2498140  38.7852064  61.3260012 107.5905764  39.3923325
  66.0925831 107.5762036  40.2246680  66.3089445 108.4586674  39.9235508
  65.6119898 107.1848249  39.4952322  60.8325052 110.5347749  46.8017424
  60.6869633 110.8488052  47.6941706  60.3550256 111.1532650  46.2488323
  62.6921435 107.5250297  46.8498314  62.6783004 106.6291391  46.5130612
  63.4093863 107.5320961  47.4836600  64.5447566 107.9587637  48.8951441
  64.2865343 108.8804708  48.8935772  64.0132606 107.5618072  49.5851905
  69.4893754 121.0638425  41.6741527  69.6630632 120.4984847  40.9215379
  69.9822646 121.8639319  41.4921016  55.3070714 113.0753094  49.7405085
  54.7624182 113.8512902  49.8725360  56.1850064 113.4223898  49.5824207
  62.0958331 106.4064678  42.1185884  62.2174242 105.4781324  42.3176771
  61.8060373 106.4203363  41.2064199  64.9649521 104.0919588  45.2552604
  64.9871218 104.1558921  44.3004583  65.3817580 103.2524097  45.4493110
  75.3433146 113.8274848  43.2931826  75.7864292 113.0782173  42.8950950
  74.4659656 113.8184984  42.9105558  70.4768927 120.3805189  38.7738425
  71.1719832 121.0011882  38.9925739  70.8192077 119.5300540  39.0490803
  56.0936736 112.2022990  52.6335242  55.3518472 112.3505625  53.2199873
  55.7729480 112.4631256  51.7701992  72.3760350 117.8304894  40.3025756
  72.9011674 118.1692167  39.5775076  72.2882703 116.8951910  40.1188890
  64.0380399 121.7438968  52.4315632  64.3467525 121.4988115  53.3038332
  64.8355881 121.9485607  51.9434502  56.5393350 120.0888419  44.6645637
  57.3651370 119.7892191  44.2844280  56.1887402 119.3196041  45.1135425
  61.5074883 119.4414887  46.7343310  60.8854892 118.7785592  46.4345538
  62.1779750 119.4676019  46.0516958  54.7401955 118.0074745  45.6234570
  53.9033863 117.5796919  45.4418572  54.7125600 118.2007188  46.5605362
  61.5799410 107.9196675  56.3275816  61.6287566 108.7958798  55.9453586
  62.1221925 107.3774068  55.7547460  72.0654256 118.4637798  55.6076954
  71.2749800 118.4461937  55.0681453  71.8287611 119.0026092  56.3625990
  72.1852131 115.3130265  52.9209682  72.2350136 115.1480272  53.8625205
  72.0766054 114.4457524  52.5307563  61.0688390 117.9918810  40.2101771
  61.2176510 118.6754275  39.5568444  61.8754833 117.9723900  40.7251227
  69.4755894 111.2961193  54.2368989  70.3765756 111.1567657  53.9452987
  69.5503868 111.4615647  55.1767166  63.8098699 108.6728047  53.0822175
  62.9402008 108.9661613  52.8104764  64.0458179 109.2568492  53.8029439
  73.6870328 117.7327206  53.1651704  73.3955136 118.0957187  54.0015165
  73.0742459 117.0194214  52.9865036  74.8866010 115.2980086  45.6854274
  75.7212902 115.7369890  45.8491834  75.0225139 114.8218739  44.8662520
  71.9357516 112.8559821  51.6331762  72.4111638 113.0487467  50.8250613
  71.0123082 112.9119006  51.3875145  58.8241023 114.0183988  41.2162840
  58.5787065 113.1146318  41.4143050  58.9936937 114.0201138  40.2742318
  66.5137733 104.8907664  50.5987595  67.0319677 105.6268691  50.2734084
  66.1592865 105.1971658  51.4334355  58.0936670 109.7512345  38.7149001
  57.4005915 109.8256700  38.0589037  57.8488422 108.9872689  39.2370518
  66.7650327 101.3107947  46.1188492  67.0452081 100.6431136  46.7448919
  67.5500934 101.5037042  45.6063156  64.5683795 120.4866941  37.6813518
  63.9957762 121.1057128  37.2283990  65.1416589 121.0366302  38.2153440
  70.6359185 109.7325581  49.8660067  71.5876608 109.8323678  49.8872291
  70.4662636 108.9403849  50.3758152  68.6573565 106.8181164  50.0519468
  68.0623497 107.0986177  49.3565957  68.3723261 107.3075065  50.8236209
  67.7881055 120.7704091  38.8122101  68.7211728 120.7049652  39.0154976
  67.7004268 121.6060358  38.3536633  70.4169072 120.0869961  35.7726048
  70.3382703 119.7529825  36.6661806  71.2378739 120.5791729  35.7717521
  73.1147263 112.9531700  48.9802367  73.0823583 112.0147701  49.1662051
  73.7247887 113.0315737  48.2468192  64.9530594 111.8227753  35.0229571
  65.8989699 111.6933962  35.0917989  64.5744839 111.0842415  35.4998999
  73.2641751 109.7442744  49.0260650  72.7480800 108.9601200  48.8390579
  74.1481700 109.4161460  49.1907169  70.9252478 103.4883759  44.9856463
  70.7277300 103.1798848  45.8699795  71.5352184 104.2145398  45.1154393
  78.9323813 114.0147707  48.1208404  79.6627201 113.7532995  48.6816107
  78.3230758 113.2776429  48.1610472  77.0139110 112.1555570  48.7182855
  76.2872274 112.0211535  48.1099346  76.5986397 112.4632398  49.5239573
  64.8369286 115.8745500  56.4830228  65.7572296 116.0524099  56.6770274
  64.8018869 114.9301545  56.3309927  63.1373511 109.7477730  34.9584456
  62.2304966 109.4510843  35.0347170  63.4149492 109.4507548  34.0918742
  54.0551451 111.0684093  45.4083502  53.7354236 110.2149401  45.1157876
  53.5084880 111.2832671  46.1641470  57.8331359 113.7846534  49.1253009
  58.0517369 114.7163642  49.1441043  58.2457133 113.4254509  49.9107813
  64.7535577 104.2914620  41.1128697  63.9436305 103.9461704  41.4883943
  65.4419994 103.9822163  41.7016309  66.6826125 103.3692666  42.7352994
  67.2357164 103.7888120  43.3943017  66.9196211 102.4428414  42.7775950
  62.7059224 109.3579740  58.5155758  62.6055951 110.3074097  58.4467849
  62.4880766 109.0297979  57.6431828  61.9072296 106.6064665  35.0996435
  62.7691460 106.9319563  35.3592253  62.0922640 105.8196161  34.5869501
  53.9239711 114.6887005  47.3776624  53.2303183 114.2740957  46.8646578
  54.6712702 114.7307541  46.7810043  70.0604932 105.4793191  42.2431658
  69.4803601 106.1377996  41.8609711  69.7940865 104.6570536  41.8319076
  68.5108498 104.8798249  44.4452979  69.0108277 104.9914784  43.6367297
  69.1544106 104.5759302  45.0853787  62.5690494 112.7876879  57.3320820
  62.0857576 113.5877239  57.5384709  62.6551433 112.7984824  56.3788264
  55.8376454 114.6205258  45.2542639  55.8147142 114.7192946  44.3024522
  56.1477090 115.4670409  45.5759805  58.4963832 116.6781413  49.3689253
  59.4507085 116.6465356  49.3019185  58.2976355 116.2172037  50.1839479
  59.0863214 115.2482530  51.9360051  59.9056103 115.7426608  51.9594888
  59.3600022 114.3314498  51.9077619  68.8429810 107.6393282  41.2988007
  67.9555665 107.9242932  41.0808201  69.2583799 107.4787045  40.4515283
  72.1944346 107.6639803  45.0142346  72.9704736 108.1536255  45.2866963
  71.4692480 108.0897857  45.4714215  74.6316905 108.3767422  46.0716286
  75.2261396 108.1363158  45.3609595  74.7043489 107.6574553  46.6989823
  67.9873024 117.4037957  35.3936027  68.6908874 117.6087959  36.0093682
  67.2635672 117.9714718  35.6585110  68.8170834 113.1547818  41.5138297
  68.7606035 113.6116369  40.6745929  69.3699176 112.3938502  41.3361139
  72.6275640 108.9437550  42.3388416  72.3712574 108.5434185  43.1696624
  72.0028508 109.6581344  42.2138555  76.9387978 111.6833623  44.8459708
  76.3787536 111.7526812  45.6191270  76.3331481 111.5074608  44.1259204
  69.8959721 117.8420486  37.4434487  70.7305325 117.4101684  37.2611961
  69.7344064 117.6702499  38.3711381  69.5505613 114.3452599  38.8090826
  69.4954417 114.1796870  37.8679270  68.9251668 115.0528632  38.9653016
  54.3398128 109.5820663  52.6352248  54.9856992 109.0719617  53.1239473
  54.1315279 110.3189345  53.2095673  66.8651520 116.6501511  58.1344389
  67.7342680 116.8242163  57.7731024  66.3858272 117.4695928  58.0120118
  62.8601739 103.8460708  38.3876144  62.8480408 104.7902548  38.5444415
  63.7525160 103.6630853  38.0935605  62.7891303 122.5229598  46.4743901
  61.8386934 122.5231460  46.3608273  63.0923789 121.7762333  45.9579936
  66.6753858 100.4403485  42.6422081  65.9086254  99.8861971  42.7878763
  67.0864563 100.5125353  43.5036233  58.6795619 106.7288280  56.7327262
  59.5427081 106.3725085  56.9430587  58.1061030 106.3902175  57.4202667
  78.0785265 126.0841591  44.6142871  78.8648354 125.6661014  44.2633288
  78.3423969 126.9887683  44.7824520  81.0019112 119.7338398  49.9770458
  80.6702437 120.6033809  49.7531673  80.4064725 119.4174682  50.6564489
  74.7375298 123.4733965  37.7100541  74.9049701 124.3414201  38.0771012
  74.5472467 123.6361247  36.7861830  80.8947775 124.4533484  47.0563809
  79.9864653 124.3848893  46.7622570  80.8435371 124.9305429  47.8845634
  74.7164519 125.9291623  38.6947208  74.5964144 126.3748673  39.5332688
  74.0217108 126.2776940  38.1360746  74.9688641 125.8723130  54.9998706
  74.1921975 126.4317050  54.9901570  75.6079204 126.3579913  55.5213576
  82.7609422 122.6549923  48.8341682  82.1183802 122.9482456  48.1881477
  82.2564350 122.5402843  49.6394879  80.4149585 126.4013096  39.5227542
  81.3267442 126.6340483  39.3475239  79.9059232 126.9850140  38.9602620
  75.0521423 125.7610330  50.5322391  75.8982618 126.1849744  50.6757040
  74.9920061 125.1043955  51.2260954  78.2020868 123.4214699  52.1903565
  77.9581800 124.1756759  51.6537841  78.4780799 123.8000046  53.0250812
  77.7585560 122.5771132  47.7717403  76.8970039 122.8752385  48.0634140
  77.7847995 122.7941531  46.8398435  71.2377120 120.1368997  57.7257234
  70.8444065 119.5835196  58.4004878  72.0543260 120.4479576  58.1163751
  74.1545081 121.5526876  55.3177490  74.8954794 122.1534029  55.2381953
  74.3863004 120.8104514  54.7595533  78.1002244 117.5807979  49.5941772
  77.7566513 118.4709621  49.5180883  78.4681206 117.3909637  48.7311357
  78.0652527 127.5716590  38.1014207  77.5499150 128.3421195  38.3402595
  77.7929835 126.8981726  38.7247269  75.6499638 122.4166291  43.1599446
  74.7941234 122.0273141  42.9805084  76.0626589 122.4958252  42.2999231
  77.1798784 119.9512634  47.5591005  76.6763580 119.9142769  46.7458811
  77.4729391 120.8605377  47.6187662  73.4241670 120.0351364  46.5657187
  74.2894667 119.8394173  46.2063077  73.4919179 119.8061716  47.4926544
  77.8538830 125.4443682  39.9273988  77.5488965 125.7589832  40.7784132
  78.8069272 125.5225102  39.9701321  71.0303989 122.2653572  43.9373554
  71.6047741 122.0428753  43.2046747  71.6174972 122.3342266  44.6902155
  71.3573576 124.2958033  37.9569439  70.5210889 124.6332720  38.2778714
  71.2178346 124.1607013  37.0196576  73.3326657 119.1394821  42.6648623
  72.6791069 118.8243838  42.0405238  73.2907131 118.5170561  43.3908446
  76.5664397 125.6276754  46.9896271  75.6486959 125.8491701  46.8317959
  76.9824541 125.7023065  46.1307978  77.3499445 127.0268170  42.1198951
  78.0971264 127.5389567  41.8106073  77.6191035 126.7052223  42.9803345
  79.7978282 124.0625286  44.1017741  79.0601039 123.5502673  44.4327983
  80.0505056 123.6225668  43.2901017  79.8989910 116.8401538  44.6959510
  80.2048786 115.9798902  44.4085425  80.6242514 117.4319159  44.4958504
  72.1103349 125.7532391  42.9626080  71.2971215 126.0526562  43.3691272
  72.6062343 125.3588080  43.6800562  77.7077561 126.2174216  51.7940974
  78.0626949 126.4445689  52.6535439  78.3549692 126.5492592  51.1718229
  71.6017424 123.3250747  48.5787315  72.2416803 123.1839506  47.8810278
  70.7694954 123.0385260  48.2025917  68.6046040 123.2951072  43.3560301
  68.8652858 124.2096405  43.2469462  69.4263213 122.8275514  43.5056914
  70.0770966 124.7088829  50.5259126  70.7494019 124.5006191  49.8771775
  69.2500752 124.5110915  50.0864358  75.9796538 121.3350770  52.5424787
  75.3324453 122.0340719  52.4489263  76.7497553 121.7686914  52.9101035
  71.8209698 124.6816609  52.5940882  71.2847055 124.2307347  53.2462479
  71.2326406 124.8162518  51.8511347  71.2311957 124.1405260  35.1567346
  70.3541423 124.0194061  34.7929593  71.7069710 123.3491339  34.9046235
  67.5548819 123.8172617  49.6793877  67.4707008 123.2098286  48.9444287
  66.7331525 124.3081635  49.6803373  77.7272533 122.3026180  45.0464072
  78.2241232 121.5496143  44.7265142  76.9559514 122.3390497  44.4807281
  74.3107501 124.4443563  44.7735756  73.9405289 123.8914604  45.4616662
  74.8066594 123.8401697  44.2210756  80.1691527 119.2695774  47.1943431
  79.2554607 119.5000001  47.3625638  80.5984629 119.3534218  48.0457463
  79.9397986 127.4585666  49.6943325  79.2869436 127.7061573  49.0395778
  80.3178366 126.6449804  49.3605802  69.7072835 121.8547554  51.0188863
  69.7714162 122.7162385  50.6066260  69.6439955 121.2421556  50.2861221
  69.1825108 123.9270687  54.6661897  69.8097146 123.5447764  55.2799421
  68.3253026 123.7084889  55.0317589  69.4884897 123.8103112  46.5807800
  68.7671483 124.4239080  46.4415274  70.2778153 124.3460877  46.5024446
  72.2911211 121.1457539  52.8548452  72.8145613 121.3919835  53.6174761
  72.0723544 121.9777574  52.4351589  67.6878492 123.4161213  40.7219577
  67.3591198 122.5358592  40.5394683  68.0417863 123.3608882  41.6095966
  70.8020315 123.7034183  41.0895054  71.1416388 124.2320104  40.3673663
  71.2492436 124.0414589  41.8653621  73.4963756 122.0871234  50.5398122
  73.1560576 121.2879047  50.9418802  72.7902762 122.3872945  49.9674956
  74.1480228 119.1720546  48.9925446  74.9706297 118.6981024  48.8704336
  74.3918291 119.9511030  49.4924132  72.7888462 122.2008805  39.2888347
  73.5096825 122.5790058  38.7852064  72.1653766 122.9197682  39.3923325
  76.9319585 122.9053954  40.2246680  77.1483200 123.7878592  39.9235508
  76.4513652 122.5140167  39.4952322  73.5315189 122.8542215  46.8498314
  73.5176758 121.9583308  46.5130612  74.2487618 122.8612879  47.4836600
  75.3841320 123.2879555  48.8951441  75.1259098 124.2096626  48.8935772
  74.8526361 122.8909990  49.5851905  72.9352085 121.7356595  42.1185884
  73.0567997 120.8073241  42.3176771  72.6454128 121.7495281  41.2064199
  75.8043276 119.4211506  45.2552604  75.8264973 119.4850839  44.3004583
  76.2211335 118.5816014  45.4493110  72.4193165 123.2488593  56.3275816
  72.4681320 124.1250715  55.9453586  72.9615679 122.7065986  55.7547460
  80.3149648 126.6253110  54.2368989  81.2159511 126.4859575  53.9452987
  80.3897623 126.7907565  55.1767166  74.6492453 124.0019965  53.0822175
  73.7795763 124.2953531  52.8104764  74.8851934 124.5860410  53.8029439
  77.3531487 120.2199582  50.5987595  77.8713431 120.9560609  50.2734084
  76.9986620 120.5263575  51.4334355  68.9330425 125.0804263  38.7149001
  68.2399670 125.1548618  38.0589037  68.6882177 124.3164607  39.2370518
  77.6044081 116.6399864  46.1188492  77.8845835 115.9723053  46.7448919
  78.3894688 116.8328960  45.6063156  81.4752940 125.0617498  49.8660067
  82.4270363 125.1615596  49.8872291  81.3056390 124.2695767  50.3758152
  79.4967319 122.1473082  50.0519468  78.9017251 122.4278094  49.3565957
  79.2117016 122.6366983  50.8236209  75.7924348 127.1519671  35.0229571
  76.7383453 127.0225879  35.0917989  75.4138593 126.4134333  35.4998999
  84.1035506 125.0734662  49.0260650  83.5874555 124.2893118  48.8390579
  84.9875454 124.7453378  49.1907169  81.7646233 118.8175677  44.9856463
  81.5671054 118.5090765  45.8699795  82.3745938 119.5437316  45.1154393
  73.9767265 125.0769647  34.9584456  73.0698721 124.7802760  35.0347170
  74.2543246 124.7799466  34.0918742  75.5929331 119.6206537  41.1128697
  74.7830060 119.2753622  41.4883943  76.2813748 119.3114081  41.7016309
  77.5219879 118.6984584  42.7352994  78.0750918 119.1180037  43.3943017
  77.7589966 117.7720332  42.7775950  73.5452979 124.6871658  58.5155758
  73.4449706 125.6366015  58.4467849  73.3274521 124.3589897  57.6431828
  72.7466050 121.9356583  35.0996435  73.6085214 122.2611481  35.3592253
  72.9316394 121.1488079  34.5869501  80.8998687 120.8085109  42.2431658
  80.3197356 121.4669913  41.8609711  80.6334619 119.9862454  41.8319076
  79.3502253 120.2090167  44.4452979  79.8502031 120.3206701  43.6367297
  79.9937861 119.9051220  45.0853787  79.6823565 122.9685200  41.2988007
  78.7949420 123.2534850  41.0808201  80.0977554 122.8078963  40.4515283
  83.0338101 122.9931721  45.0142346  83.8098491 123.4828173  45.2866963
  82.3086235 123.4189775  45.4714215  85.4710659 123.7059340  46.0716286
  86.0655150 123.4655076  45.3609595  85.5437243 122.9866470  46.6989823
  83.4669394 124.2729467  42.3388416  83.2106328 123.8726103  43.1696624
  82.8422262 124.9873261  42.2138555  73.6995493 119.1752626  38.3876144
  73.6874163 120.1194466  38.5444415  74.5918915 118.9922771  38.0935605
  77.5147613 115.7695402  42.6422081  76.7480008 115.2153889  42.7878763
  77.9258318 115.8417271  43.5036233  69.5189374 122.0580198  56.7327262
  70.3820835 121.7017003  56.9430587  68.9454784 121.7194093  57.4202667
  13.4881470  13.3900753  34.2634970  14.1259880  13.2707501  33.5598310
  13.3702313  14.3381597  34.3222922  10.7790960  14.4963033  40.1582700
  10.7679600  14.1015831  39.2863204  10.9411599  13.7629106  40.7516472
   7.4998221  17.2800145  39.1061884   7.2088087  18.1845776  38.9908550
   8.1355205  17.3216673  39.8205954   8.4254428  14.6576994  35.6963244
   9.0218000  14.4333016  34.9820207   8.4829399  13.9161739  36.2988692
  18.4431166  11.0527440  32.2421157  19.1756338  10.4826657  32.4758986
  17.6870522  10.6649041  32.6827662  12.4588106  16.9661561  36.1011678
  12.1588829  17.8686599  35.9927485  12.1139165  16.6993744  36.9532831
   7.4408886  23.7305881  29.0682646   7.3632915  24.6813706  29.1471126
   6.8370529  23.3851753  29.7257572  17.7246896   7.6860539  35.5586989
  17.0821276   7.9793072  34.9126784  17.2201825   7.5713459  36.3640186
   8.1872488  13.7119200  41.2861979   8.9287172  14.2504244  41.0096803
   7.4809473  14.3385488  41.4433531  13.6627827  15.8548340  39.8834141
  14.0711183  15.4130751  39.1388773  12.9405089  15.2800968  40.1368334
  13.9856642  16.4149531  33.6386430  13.3565505  16.5795245  32.9362498
  13.5982304  16.8291140  34.4097394  17.8645874  17.3503969  30.9930794
  17.1796912  17.7302870  30.4427827  17.9489723  17.9599295  31.7262741
  15.1196806  14.9963928  37.5926137  15.3313701  15.6395688  36.9160518
  15.0726554  14.1626244  37.1248067  16.2342634  17.8735883  35.7648494
  17.0560077  17.4716070  35.4831176  16.2305036  17.7704117  36.7164610
   9.9999237  17.4219926  37.9209205  10.0643669  17.8840334  38.7567377
   9.2910161  16.7917291  38.0491515  24.3248627  14.2174632  32.1133466
  23.5712335  13.6482030  31.9577470  24.4596168  14.1837296  33.0604101
  11.3415731  19.7111600  41.9188527  10.8979585  18.9247979  41.6009432
  12.0032945  19.8990751  41.2532418   6.1002852  21.2407402  36.4449206
   6.6510277  21.1124465  35.6726200   5.2614328  21.5402291  36.0944099
  13.4396969  19.9914400  39.9469929  13.4215444  20.8123281  39.4550198
  14.3616889  19.8668475  40.1720070   9.8970023  17.5058530  40.7893437
  10.4298360  16.7446818  40.5592745   9.3684104  17.2132182  41.5317591
  16.2415582  14.8293543  33.4179295  15.5839256  15.5192804  33.5059424
  17.0455981  15.2189975  33.7613282  15.8182837  18.1643917  29.5962380
  15.3645164  17.3234827  29.6527570  15.1876804  18.8005315  29.9337160
  14.2615776  20.0020414  30.5312198  14.5538751  20.5625471  29.8124563
  14.7714397  20.2948975  31.2865357   9.2249401  20.7800765  31.6205651
   9.1825580  21.0061611  30.6914183  10.1412100  20.5464139  31.7691452
  12.6715035  11.2484832  38.5186280  13.0264423  11.4756305  39.3780746
  13.3187166  11.5803209  37.8963536  18.4282152  16.4379795  34.2346881
  18.8618658  16.3455084  35.0829935  19.1413732  16.4137296  33.5966897
  12.1610047  20.0381889  35.7679981  12.2147069  20.6072826  36.5357697
  11.2924828  20.2083774  35.4034019  19.2897701  16.4803496  36.7679766
  19.4833591  17.3849306  37.0139041  19.1898319  16.0210915  37.6018351
  14.3512810  16.6310238  42.3420647  14.1998316  16.4020790  41.4250731
  14.3417489  17.5880840  42.3551992  11.1198146  14.2042151  37.3266913
  12.0490206  14.3553311  37.1535881  10.6989176  14.2926172  36.4715560
   9.9186478  18.2292816  35.0965451   9.7797564  17.8611600  35.9691389
   9.1301074  18.7440455  34.9249409  11.4691693  17.6074418  32.4854289
  11.1341526  17.5675188  33.3811939  10.9695639  16.9419134  32.0124699
   8.0718238  12.7262008  37.4990549   8.7817856  12.0855200  37.4577168
   8.0287546  12.9774903  38.4216730  16.0605017  19.6629361  40.4197129
  16.0017563  18.9788581  39.7527712  16.4624535  20.4048351  39.9677755
   5.0795715  26.4791275  33.2130848   5.3192314  27.1109799  33.8909866
   4.2364912  26.1279315  33.4996207  16.0622424  17.6268945  38.6511108
  15.1749203  17.2894867  38.7737507  16.6320975  16.8951976  38.8879874
   9.5923577  22.2870397  35.6172352   9.5193749  23.0925369  36.1291656
   9.1500970  22.4862363  34.7920373  20.5439764  13.0377162  33.4127670
  20.5329641  13.9201878  33.0421603  19.6757144  12.6848713  33.2182207
  12.0522261  22.1857231  37.7730510  12.7650233  22.8204696  37.7006412
  11.5612289  22.2821097  36.9570512   7.1034174  19.9351675  38.5936081
   7.8043634  20.5688158  38.7465475   6.6329289  20.2766406  37.8331720
  14.9035460  12.4896282  36.4188631  14.2506911  12.7372190  35.7641084
  15.2815840  11.6760420  36.0851109  11.8642634  22.5255975  30.5216802
  12.0465029  21.7077631  30.9844554  12.6875620  22.7423668  30.0841692
  10.9523033  13.2316093  42.9054668  10.2763670  13.1310223  43.5757044
  11.7750667  13.0755307  43.3690666   2.7001892  19.4688030  35.5267184
   3.2855329  18.7231718  35.6595088   2.5026731  19.7791987  36.4103848
   9.6945816  24.5383021  37.1412284  10.2464124  24.7014642  37.9061370
  10.0352010  25.1287459  36.4692309  14.5456691  19.3644278  42.9960939
  15.0896595  19.9774237  42.5015894  13.9643535  19.9223857  43.5127952
  12.8314203  22.4864996  34.1275967  12.7065343  21.6854736  33.6186912
  13.4893295  22.9811190  33.6389937  14.8949112  20.2874016  35.7555517
  13.9479447  20.1679368  35.6833843  15.2431885  19.3996514  35.8381778
  11.8995545  20.0826733  31.9559869  11.7520508  19.1543440  32.1367439
  12.7249039  20.1046823  31.4716944  15.5029667  20.9055291  33.0424742
  16.4276214  20.6998153  32.9049193  15.3344970  20.6571692  33.9514083
  15.2924983  21.4240959  28.3986833  15.4661861  20.8587381  27.6460686
  15.7853874  22.2241854  28.2166323  21.1464374  14.1877382  30.0177133
  21.5895520  13.4384707  29.6196256  20.2690885  14.1787518  29.6350865
   9.8411628  22.1041502  39.1560939  10.1498754  21.8590649  40.0283638
  10.6387110  22.3088141  38.6679809   9.8632240  24.2579412  31.3866315
   9.4237230  23.7655791  32.0799172  10.6140357  23.7152380  31.1458391
   7.3106112  19.8017421  33.4588617   6.6886121  19.1388126  33.1590845
   7.9810979  19.8278553  32.7762265  17.8685485  18.8240332  42.3322260
  17.0781029  18.8064471  41.7926760  17.6318839  19.3628626  43.0871297
  17.9883360  15.6732799  39.6454989  18.0381365  15.5082806  40.5870511
  17.8797283  14.8060058  39.2552869  15.2787122  11.6563727  40.9614295
  16.1796985  11.5170192  40.6698293  15.3535097  11.8218182  41.9012473
  19.4901557  18.0929740  39.8897010  19.1986365  18.4559721  40.7260471
  18.8773688  17.3796749  39.7110342  20.6897239  15.6582620  32.4099580
  21.5244130  16.0972424  32.5737141  20.8256368  15.1821273  31.5907826
  17.7388745  13.2162355  38.3577068  18.2142867  13.4090001  37.5495920
  16.8154310  13.2721541  38.1120452  16.4390414  10.0928115  36.5905374
  17.3907837  10.1926213  36.6117598  16.2693864   9.3006384  37.1003458
  18.9178492  13.3134235  35.7047673  18.8854812  12.3750235  35.8907357
  19.5279115  13.3918271  34.9713498  19.0672980  10.1045278  35.7505957
  18.5512029   9.3203735  35.5635886  19.9512929   9.7763995  35.9152476
  24.7355042  14.3750241  34.8453710  25.4658430  14.1135530  35.4061414
  24.1261987  13.6378963  34.8855778  22.8170339  12.5158104  35.4428161
  22.0903502  12.3814069  34.8344653  22.4017626  12.8234933  36.2484879
  10.6400515  16.2348034  43.2075534  11.5603525  16.4126633  43.4015581
  10.6050098  15.2904079  43.0555234   8.3721723  13.1479413  44.0566126
   7.8888805  13.9479773  44.2630015   8.4582662  13.1587358  43.1033570
   4.2995061  17.0383948  36.0934560   5.2538314  17.0067890  36.0264492
   4.1007584  16.5774571  36.9084786   4.8894443  15.6085064  38.6605358
   5.7087332  16.1029142  38.6840195   5.1631250  14.6917032  38.6322925
   2.6545289  22.5803567  33.1104758   2.5199757  21.8203968  32.5442756
   2.2377352  23.3044467  32.6433547  22.7419206  12.0436157  31.5705014
  22.1818764  12.1129346  32.3436576  22.1362710  11.8677142  30.8504510
   5.8114415  23.4772884  33.3223201   5.6946799  24.4218317  33.2201891
   4.9906862  23.1746446  33.7109000  12.6682749  17.0104045  44.8589695
  13.5373909  17.1844697  44.4976330  12.1889501  17.8298462  44.7365425
   6.8368929  24.1301146  36.5379129   7.7396176  24.1624756  36.8545624
   6.6106299  23.2001597  36.5525465   8.5922531  22.8832133  33.1989208
   7.6418162  22.8833994  33.0853580   8.8955018  22.1364867  32.6825242
  24.3275225  28.7192671  34.2634970  24.9653635  28.5999418  33.5598310
  24.2096068  29.6673515  34.3222922  21.1364931  28.6720099  34.1996495
  20.7983443  28.5561164  33.3117030  22.0054699  28.2711264  34.1797501
  16.9951747  30.5255576  30.1893386  16.4316612  30.4345513  29.4209673
  16.8804142  29.7055480  30.6695878  21.6184714  29.8254951  40.1582700
  21.6073355  29.4307749  39.2863204  21.7805354  29.0921023  40.7516472
  14.5416179  32.0206767  33.0277606  15.3337471  31.6797592  32.6123905
  14.7812829  32.1301742  33.9479759  22.5751306  34.1926543  25.5007851
  21.9239285  34.7780624  25.1141864  23.3695668  34.7232738  25.5602888
  16.5006933  31.2815680  25.8994985  17.2737809  30.7344668  25.7607861
  16.8532332  32.1459930  26.1109446  18.3391975  32.6092063  39.1061884
  18.0481841  33.5137694  38.9908550  18.9748960  32.6508590  39.8205954
  19.2648182  29.9868911  35.6963244  19.8611754  29.7624934  34.9820207
  19.3223154  29.2453657  36.2988692  18.8373211  27.4408347  23.5313435
  19.0898731  26.9189868  22.7696898  17.8997770  27.2774492  23.6340118
  23.8816493  26.4444125  31.3388178  24.6679583  26.0263548  30.9878595
  24.1455198  27.3490217  31.5069826  24.0526571  31.8816975  26.0376835
  23.4172404  31.9551602  26.7497739  23.7223977  32.4710574  25.3595914
  29.2824921  26.3819358  32.2421157  30.0150092  25.8118575  32.4758986
  28.5264276  25.9940959  32.6827662  18.5569499  29.3436452  25.7337810
  18.4405757  28.6681356  26.4018894  18.6671759  28.8568826  24.9169963
  20.9001040  28.8046600  29.4384499  20.5359247  28.2777221  30.1497420
  21.7568156  28.4145069  29.2650984  26.8050341  20.0940932  36.7015765
  26.4733666  20.9636343  36.4776980  26.2095954  19.7777216  37.3809796
  23.2981860  32.2953478  36.1011678  22.9982583  33.1978517  35.9927485
  22.9532920  32.0285661  36.9532831  16.7494342  28.7467275  32.1348382
  15.8244838  28.6143489  32.3426074  16.9978755  29.5261494  32.6318325
  26.6979004  24.8136018  33.7809115  25.7895882  24.7451427  33.4867876
  26.6466600  25.2907963  34.6090941  20.5195748  26.2894157  25.4192514
  20.3995373  26.7351208  26.2577995  19.8248336  26.6379474  24.8606052
  14.1103153  28.3900549  32.9692171  14.2395534  28.6435028  33.8831583
  13.4300604  28.9828257  32.6496826  18.2802640  39.0597799  29.0682646
  18.2026670  40.0105624  29.1471126  17.6764284  38.7143671  29.7257572
  20.7719870  26.2325664  41.7244012  19.9953204  26.7919584  41.7146877
  21.4110433  26.7182447  42.2458883  28.5640651  23.0152457  35.5586989
  27.9215031  23.3084990  34.9126784  28.0595579  22.9005377  36.3640186
  26.2180814  26.7615630  26.2472848  27.1298670  26.9943017  26.0720546
  25.7090461  27.3452674  25.6847927  19.0266242  29.0411117  41.2861979
  19.7680927  29.5796161  41.0096803  18.3203228  29.6677406  41.4433531
  24.5021582  31.1840258  39.8834141  24.9104938  30.7422668  39.1388773
  23.7798843  30.6092885  40.1368334  20.8552652  26.1212865  37.2567698
  21.7013847  26.5452278  37.4002347  20.7951290  25.4646489  37.9506261
  24.8250397  31.7441448  33.6386430  24.1959259  31.9087163  32.9362498
  24.4376059  32.1583058  34.4097394  28.7039628  32.6795886  30.9930794
  28.0190667  33.0594788  30.4427827  28.7883478  33.2891213  31.7262741
  24.0052097  23.7817233  38.9148872  23.7613029  24.5359293  38.3783147
  24.2812028  24.1602581  39.7496119  25.9590560  30.3255845  37.5926137
  26.1707455  30.9687605  36.9160518  25.9120308  29.4918162  37.1248067
  23.5616789  22.9373666  34.4962709  22.7001268  23.2354920  34.7879447
  23.5879224  23.1544065  33.5643742  20.3778358  31.4815857  30.9036515
  20.8416704  31.7603560  30.1141137  20.1135157  30.5799301  30.7209606
  17.2702439  31.0287338  33.8416278  17.8403797  31.4574606  33.2033763
  17.8610551  30.7469923  34.5400464  19.3147244  27.6039009  27.7126080
  20.0171288  28.0560053  28.1800006  18.9827873  26.9622828  28.3405973
  17.7627606  26.1950766  42.0877289  17.1326267  26.8767046  42.3212686
  17.6563694  26.0833847  41.1430428  13.0572578  25.8622562  33.0143214
  12.2671632  26.1180090  32.5383324  13.5483826  26.6770899  33.1195254
  27.0736388  33.2027801  35.7648494  27.8953832  32.8007988  35.4831176
  27.0698791  33.0996035  36.7164610  15.0087324  26.2267141  29.9726690
  14.2118487  26.3385835  30.4910186  14.7812916  26.5653793  29.1067581
  20.8392991  32.7511844  37.9209205  20.9037424  33.2132251  38.7567377
  20.1303915  32.1209209  38.0491515  11.3410281  26.1153052  35.4458204
  11.5918320  27.0000062  35.7115780  11.8769830  25.9357654  34.6733296
  35.1642381  29.5466549  32.1133466  34.4106089  28.9773947  31.9577470
  35.2989922  29.5129214  33.0604101  20.5541009  34.4179952  27.7888185
  20.4186684  35.2631487  28.2173033  21.0950822  34.6199229  27.0254119
  17.0408349  20.4971531  44.4502541  16.6475294  19.9437730  45.1250185
  17.8574489  20.8082110  44.8409058  14.0070406  31.9355390  28.3616110
  14.5194927  32.7298640  28.5121675  14.6593119  31.2381680  28.2949712
  15.8165291  35.0521146  30.4438864  15.9931920  35.9739111  30.2559847
  16.6122125  34.7379565  30.8733243  19.9576310  21.9129410  42.0422797
  20.6986023  22.5136564  41.9627260  20.1894233  21.1707048  41.4840840
  15.1017648  27.0985778  40.3201027  14.9871163  26.1971035  40.6208126
  14.2462165  27.3449474  39.9685843  22.1809485  35.0403518  41.9188527
  21.7373340  34.2539897  41.6009432  22.8426699  35.2282669  41.2532418
  16.9396607  36.5699320  36.4449206  17.4904032  36.4416383  35.6726200
  16.1008083  36.8694209  36.0944099  24.2790724  35.3206318  39.9469929
  24.2609199  36.1415199  39.4550198  25.2010644  35.1960393  40.1720070
  20.7363778  32.8350447  40.7893437  21.2692114  32.0738736  40.5592745
  20.2077859  32.5424099  41.5317591  23.9033473  17.9410513  36.3187079
  23.5597742  18.8312155  36.2426189  24.2712435  17.7512171  35.4556664
  11.9719323  30.2644044  29.1375681  12.8094545  30.6741052  28.9209389
  12.1497591  29.3243486  29.1075875  23.8683755  27.9319124  24.8259514
  23.3530379  28.7023729  25.0647901  23.5961064  27.2584261  25.4492575
  21.4530866  22.7768825  29.8844752  20.5972463  22.3875676  29.7050391
  21.8657818  22.8560786  29.0244538  22.9830013  20.3115169  34.2836312
  22.4794809  20.2745304  33.4704117  23.2760620  21.2207911  34.3432969
  19.2272899  20.3953898  33.2902494  20.0925896  20.1996707  32.9308383
  19.2950408  20.1664250  34.2171850  28.8418030  30.6851479  26.7612687
  28.0647472  30.3462639  26.3167849  29.5209510  30.6904102  26.0867652
  23.6570059  25.8046217  26.6519295  23.3520194  26.1192366  27.5029438
  24.6100501  25.8827636  26.6946628  22.1016490  31.9636440  28.3012249
  21.5737852  31.2289199  27.9885486  21.6003993  32.7411116  28.0552217
  27.0809336  30.1585460  33.4179295  26.4233011  30.8484722  33.5059424
  27.8849736  30.5481892  33.7613282  16.8335218  22.6256106  30.6618861
  17.4078970  22.4031288  29.9292053  17.4206200  22.6944801  31.4147462
  25.8914795  28.5129833  31.4683237  26.4046677  29.1459825  31.9704947
  26.5416019  27.9131029  31.1026597  19.1357886  19.4997355  29.3893930
  18.4822298  19.1846372  28.7650545  19.0938360  18.8773096  30.1153753
  20.2469091  29.7816650  21.3047222  19.3396152  29.5505904  21.5038371
  20.7440123  28.9854269  21.4921204  23.1537169  38.4914157  24.2243908
  22.4798868  38.7945854  24.8328866  23.5402991  39.2943238  23.8749365
  22.3695626  25.9879289  33.7141578  21.4518187  26.2094236  33.5563266
  22.7855770  26.0625599  32.8553285  23.1530674  27.3870704  28.8444258
  23.9002493  27.8992102  28.5351380  23.4222263  27.0654757  29.7048651
  21.4257324  29.8829245  25.8271212  20.5168543  29.5988278  25.9243682
  21.4552408  30.3028324  24.9674519  26.6576591  33.4935835  29.5962380
  26.2038919  32.6526744  29.6527570  26.0270558  34.1297233  29.9337160
  25.6009511  24.4227821  30.8263047  24.8632268  23.9105207  31.1573290
  25.8536285  23.9828202  30.0146324  25.1009531  35.3312331  30.5312198
  25.3932505  35.8917388  29.8124563  25.6108151  35.6240892  31.2865357
  25.7021138  17.2004073  31.4204816  26.0080015  16.3401436  31.1330732
  26.4273743  17.7921693  31.2203810  11.9945494  27.6034759  29.8086414
  11.7969894  27.0104120  29.0837481  11.4392158  27.2986969  30.5262353
  19.9742218  27.4957866  31.9281008  20.0290828  26.5431702  31.8523484
  19.1633420  27.6517305  32.4122306  21.1233412  31.4237989  23.1659291
  20.6852842  30.7073848  22.7064928  21.8643853  31.6514104  22.6044382
  17.9134578  26.1134925  29.6871386  17.1002444  26.4129096  30.0936579
  18.4093572  25.7190614  30.4045869  20.0643156  36.1092682  31.6205651
  20.0219335  36.3353529  30.6914183  20.9805855  35.8756057  31.7691452
  23.5108790  26.5776750  38.5186280  23.8658177  26.8048223  39.3780746
  24.1580921  26.9095127  37.8963536  29.2406527  29.6995186  29.2235609
  29.1024425  29.8896782  28.2956799  28.8842745  30.4614569  29.6803660
  17.4048653  23.6853281  35.3032621  18.0448032  23.5442040  34.6055585
  16.5726183  23.3987794  34.9271223  29.2675906  31.7671713  34.2346881
  29.7012413  31.6747002  35.0829935  29.9807487  31.7429213  33.5966897
  18.1808957  32.9855711  31.4167614  18.9749555  32.4906031  31.2150189
  17.4700649  32.4573574  31.0535319  23.0003801  35.3673807  35.7679981
  23.0540823  35.9364743  36.5357697  22.1318582  35.5375692  35.4034019
  14.4891720  27.1298793  27.4927366  13.5589308  27.0683249  27.7097329
  14.5849192  26.6074746  26.6964008  14.4077269  23.6553606  30.0805608
  14.6684086  24.5698939  29.9714769  15.2294441  23.1878048  30.2302221
  15.8802194  25.0691363  37.2504433  16.5525248  24.8608725  36.6017082
  15.0531981  24.8713449  36.8109665  30.1291456  31.8095413  36.7679766
  30.3227346  32.7141224  37.0139041  30.0292074  31.3502832  37.6018351
  21.7827767  21.6953304  39.2670094  21.1355682  22.3943254  39.1734570
  22.5528782  22.1289448  39.6346342  25.1906564  31.9602156  42.3420647
  25.0392071  31.7312708  41.4250731  25.1811244  32.9172758  42.3551992
  21.9591901  29.5334069  37.3266913  22.8883961  29.6845229  37.1535881
  21.5382931  29.6218090  36.4715560  20.7580233  33.5584733  35.0965451
  20.6191318  33.1903518  35.9691389  19.9694829  34.0732373  34.9249409
  21.3528385  38.6593830  26.4390987  21.5280140  38.1881873  27.2536610
  20.6661173  39.2859596  26.6672248  22.3085448  32.9366336  32.4854289
  21.9735280  32.8967106  33.3811939  21.8089393  32.2711052  32.0124699
  16.2829692  28.3433966  38.0106870  16.1449490  27.6114205  38.6118409
  17.1934615  28.2542866  37.7291058  25.2444639  30.2822370  22.7591348
  24.6273810  29.5569199  22.6624401  24.7761128  31.0431731  22.4158423
  18.9111992  28.0553925  37.4990549  19.6211611  27.4147118  37.4577168
  18.8681301  28.3066820  38.4216730  26.8998771  34.9921279  40.4197129
  26.8411317  34.3080499  39.7527712  27.3018289  35.7340269  39.9677755
  17.6240926  25.0419143  39.3186189  17.0878283  24.5909882  39.9707785
  17.0357635  25.1765052  38.5756653  15.9189470  41.8083193  33.2130848
  16.1586068  42.4401717  33.8909866  15.0758666  41.4571233  33.4996207
  26.9016178  32.9560863  38.6511108  26.0142957  32.6186784  38.7737507
  27.4714729  32.2243894  38.8879874   8.5545325  29.2884954  31.9754160
   9.2416365  28.9746684  31.3875175   8.3993454  30.1926319  31.7021411
  13.3580048  24.1775151  36.4039183  13.2738236  23.5700821  35.6689593
  12.5362754  24.6684169  36.4048680  20.4317332  37.6162315  35.6172352
  20.3587503  38.4217286  36.1291656  19.9894725  37.8154281  34.7920373
  20.2207111  36.8534085  29.1275173  19.4374633  37.3955765  29.2213398
  20.9199857  37.3708065  29.5269414  23.5303761  22.6628714  31.7709378
  24.0272461  21.9098677  31.4510449  22.7590743  22.6993031  31.2052588
  31.3833519  28.3669080  33.4127670  31.3723395  29.2493795  33.0421603
  30.5150898  28.0140631  33.2182207  22.8916015  37.5149149  37.7730510
  23.6043987  38.1496614  37.7006412  22.4006044  37.6113015  36.9570512
  24.6133542  31.4200402  29.3447802  23.6789821  31.5401864  29.1752506
  24.7910211  30.5172868  29.0807812  20.1138730  24.8046097  31.4981063
  19.7436518  24.2517138  32.1861969  20.6097823  24.2004231  30.9456063
  28.0006094  27.2617721  29.8797836  28.4666546  28.0945713  29.8058139
  28.4513594  26.7962703  30.5843095  17.9427929  35.2643592  38.5936081
  18.6437388  35.8980075  38.7465475  17.4723044  35.6058324  37.8331720
  26.0682325  33.6061542  26.8783988  26.3442169  33.4918137  27.7877862
  25.1986823  33.2079027  26.8396161  25.9722756  19.6298308  33.9188737
  25.0585836  19.8602535  34.0870944  26.4015858  19.7136752  34.7702770
  25.7429215  27.8188200  36.4188631  25.0900665  28.0664107  35.7641084
  26.1209595  27.0052338  36.0851109  22.7036389  37.8547893  30.5216802
  22.8858783  37.0369549  30.9844554  23.5269375  38.0715585  30.0841692
  23.0378554  36.7816078  27.7831850  23.5666321  36.2708533  27.1702012
  23.3006774  36.4658608  28.6477383  21.7916788  28.5608011  42.9054668
  21.1157425  28.4602140  43.5757044  22.6144422  28.4047225  43.3690666
  13.5395647  34.7979948  35.5267184  14.1249084  34.0523635  35.6595088
  13.3420485  35.1083904  36.4103848  16.3934302  37.8331195  30.5429626
  15.7244677  38.3177323  30.0593666  16.2547172  38.0800415  31.4573005
   8.1313302  27.3685548  34.2471627   8.1697401  26.8349138  35.0408745
   7.6253594  26.8420753  33.6282604  20.5339571  39.8674938  37.1412284
  21.0857879  40.0306560  37.9061370  20.8745764  40.4579376  36.4692309
  15.5104064  22.2150088  37.7434169  15.5745390  23.0764919  37.3311567
  15.4471184  21.6024090  37.0106528  14.9856336  24.2873221  41.3907203
  15.6128375  23.9050298  42.0044728  14.1284255  24.0687423  41.7562896
  25.3850445  34.6936196  42.9960939  25.9290349  35.3066154  42.5015894
  24.8037290  35.2515774  43.5127952  11.7621879  26.0949650  27.3225558
  12.0575320  25.1860328  27.2692612  10.8609915  26.0737389  27.0006561
  23.6707958  37.8156914  34.1275967  23.5459097  37.0146654  33.6186912
  24.3287049  38.3103107  33.6389937  15.2916126  24.1705646  33.3053107
  14.5702712  24.7841614  33.1660580  16.0809382  24.7063411  33.2269753
  25.7342866  35.6165934  35.7555517  24.7873202  35.4971285  35.6833843
  26.0825639  34.7288432  35.8381778  18.0942440  21.5060073  39.5793759
  18.6176842  21.7522370  40.3420068  17.8754773  22.3380108  39.1596896
  13.4909721  23.7763748  27.4464883  13.1622427  22.8961126  27.2639989
  13.8449091  23.7211416  28.3341273  22.7389300  35.4118650  31.9559869
  22.5914262  34.4835358  32.1367439  23.5642793  35.4338741  31.4716944
  16.6051544  24.0636717  27.8140361  16.9447616  24.5922639  27.0918969
  17.0523664  24.4017123  28.5898928  26.3423421  36.2347209  33.0424742
  27.2669969  36.0290070  32.9049193  26.1738725  35.9863610  33.9514083
  19.2994985  22.4473768  37.2643429  18.9591805  21.6481581  37.6664109
  18.5933991  22.7475479  36.6920262  19.9511457  19.5323080  35.7170752
  20.7737526  19.0583559  35.5949642  20.1949520  20.3113564  36.2169438
  18.5919691  22.5611339  26.0133654  19.3128054  22.9392592  25.5097371
  17.9684995  23.2800216  26.1168632  22.7350814  23.2656488  26.9491986
  22.9514428  24.1481126  26.6480814  22.2544881  22.8742701  26.2197628
  17.4750035  26.2242201  33.5262731  17.3294616  26.5382504  34.4187012
  16.9975239  26.8427101  32.9733629  19.3346418  23.2144749  33.5743620
  19.3207987  22.3185842  33.2375918  20.0518846  23.2215413  34.2081906
  21.1872549  23.6482089  35.6196748  20.9290327  24.5699160  35.6181078
  20.6557589  23.2512524  36.3097212  26.1318738  36.7532876  28.3986833
  26.3055615  36.1879299  27.6460686  26.6247629  37.5533771  28.2166323
  11.9495697  28.7647546  36.4650392  11.4049166  29.5407353  36.5970666
  12.8275047  29.1118350  36.3069513  18.7383314  22.0959129  28.8431190
  18.8599225  21.1675776  29.0422078  18.4485357  22.1097815  27.9309506
  21.6074505  19.7814040  31.9797910  21.6296201  19.8453373  31.0249890
  22.0242564  18.9418548  32.1738416  31.9858129  29.5169299  30.0177133
  32.4289275  28.7676625  29.6196256  31.1084639  29.5079436  29.6350865
  27.1193910  36.0699641  25.4983731  27.8144815  36.6906334  25.7171046
  27.4617060  35.2194992  25.7736109  12.7361719  27.8917442  39.3580549
  11.9943455  28.0400077  39.9445179  12.4154464  28.1525707  38.4947298
  29.0185333  33.5199346  27.0271062  29.5436657  33.8586619  26.3020382
  28.9307686  32.5846362  26.8434197  20.6805382  37.4333420  39.1560939
  20.9892508  37.1882567  40.0283638  21.4780864  37.6380058  38.6679809
  20.7025994  39.5871330  31.3866315  20.2630984  39.0947708  32.0799172
  21.4534111  39.0444297  31.1458391  13.1818333  35.7782871  31.3890943
  14.0076353  35.4786642  31.0089587  12.8312385  35.0090493  31.8380732
  18.1499866  35.1309339  33.4588617  17.5279875  34.4680044  33.1590845
  18.8204733  35.1570471  32.7762265  11.3826938  33.6969197  32.3479877
  10.5458846  33.2691371  32.1663878  11.3550584  33.8901640  33.2850668
  18.2224394  23.6091127  43.0521123  18.2712549  24.4853250  42.6698893
  18.7646908  23.0668520  42.4792766  28.7079239  34.1532250  42.3322260
  27.9174783  34.1356389  41.7926760  28.4712594  34.6920544  43.0871297
  28.8277114  31.0024716  39.6454989  28.8775119  30.8374724  40.5870511
  28.7191038  30.1351975  39.2552869  17.7113373  33.6813262  26.9347078
  17.8601493  34.3648726  26.2813750  18.5179817  33.6618352  27.4496533
  26.1180877  26.9855644  40.9614295  27.0190740  26.8462109  40.6698293
  26.1928851  27.1510099  41.9012473  20.4523682  24.3622499  39.8067482
  19.5826992  24.6556065  39.5350070  20.6883163  24.9462944  40.5274745
  30.3295311  33.4221658  39.8897010  30.0380120  33.7851638  40.7260471
  29.7167443  32.7088666  39.7110342  31.5290994  30.9874538  32.4099580
  32.3637885  31.4264342  32.5737141  31.6650122  30.5113191  31.5907826
  28.5782499  28.5454273  38.3577068  29.0536621  28.7381919  37.5495920
  27.6548065  28.6013458  38.1120452  15.4666006  29.7078440  27.9408146
  15.2212048  28.8040770  28.1388357  15.6361921  29.7095590  26.9987624
  23.1562716  20.5802116  37.3232902  23.6744660  21.3163143  36.9979391
  22.8017849  20.8866109  38.1579661  23.4075310  17.0002399  32.8433799
  23.6877064  16.3325588  33.4694225  24.1925917  17.1931494  32.3308463
  21.2108779  36.1761393  24.4058825  20.6382746  36.7951580  23.9529297
  21.7841572  36.7260754  24.9398747  27.2784168  25.4220033  36.5905374
  28.2301591  25.5218130  36.6117598  27.1087619  24.6298301  37.1003458
  25.2998548  22.5075616  36.7764775  24.7048480  22.7880629  36.0811263
  25.0148245  22.9969517  37.5481516  24.4306038  36.4598543  25.5367407
  25.3636712  36.3944104  25.7400283  24.3429251  37.2954810  25.0781940
  27.0594055  35.7764413  22.4971355  26.9807687  35.4424277  23.3907113
  27.8803722  36.2686181  22.4962827  29.7572246  28.6426152  35.7047673
  29.7248566  27.7042153  35.8907357  30.3672870  28.7210189  34.9713498
  21.5955577  27.5122205  21.7474878  22.5414682  27.3828413  21.8163296
  21.2169822  26.7736867  22.2244306  29.9066735  25.4337196  35.7505957
  29.3905783  24.6495652  35.5635886  30.7906683  25.1055912  35.9152476
  27.5677462  19.1778211  31.7101769  27.3702283  18.8693300  32.5945101
  28.1777167  19.9039850  31.8399699  35.5748796  29.7042159  34.8453710
  36.3052185  29.4427447  35.4061414  34.9655742  28.9670881  34.8855778
  33.6564093  27.8450022  35.4428161  32.9297257  27.7105987  34.8344653
  33.2411380  28.1526850  36.2484879  21.4794270  31.5639951  43.2075534
  22.3997279  31.7418550  43.4015581  21.4443853  30.6195997  43.0555234
  10.6976435  26.7578545  32.1328809  10.3779219  25.9043853  31.8403183
  10.1509863  26.9727123  32.8886776  14.4756342  29.4740986  35.8498316
  14.6942352  30.4058094  35.8686349  14.8882116  29.1148960  36.6353119
  21.3960560  19.9809071  27.8374004  20.5861288  19.6356156  28.2129250
  22.0844977  19.6716615  28.4261616  23.3251108  19.0587118  29.4598301
  23.8782147  19.4782572  30.1188324  23.5621195  18.1322866  29.5021257
  19.3484208  25.0474192  45.2401065  19.2480934  25.9968549  45.1713156
  19.1305750  24.7192431  44.3677135  10.5664695  30.3781457  34.1021931
   9.8728166  29.9635409  33.5891885  11.3137686  30.4201993  33.5055350
  26.7029915  21.1687643  28.9676965  26.1228584  21.8272447  28.5855017
  26.4365848  20.3464988  28.5564382  25.1533482  20.5692701  31.1698285
  25.6533260  20.6809236  30.3612604  25.7969090  20.2653754  31.8099094
  19.2115478  28.4771331  44.0566126  18.7282559  29.2771691  44.2630015
  19.2976417  28.4879276  43.1033570  12.4801437  30.3099710  31.9787946
  12.4572125  30.4087398  31.0269829  12.7902074  31.1564861  32.3005112
  15.1388815  32.3675865  36.0934560  16.0932069  32.3359808  36.0264492
  14.9401339  31.9066489  36.9084786  15.7288197  30.9376981  38.6605358
  16.5481086  31.4321060  38.6840195  16.0025005  30.0208950  38.6322925
  25.4854793  23.3287734  28.0233313  24.5980648  23.6137384  27.8053508
  25.9008782  23.1681497  27.1760590  28.8369330  23.3534255  31.7387652
  29.6129720  23.8430707  32.0112269  28.1117464  23.7792309  32.1959522
  31.2741888  24.0661874  32.7961593  31.8686379  23.8257610  32.0854901
  31.3468472  23.3469005  33.4235129  13.4939044  37.9095485  33.1104758
  13.3593512  37.1495886  32.5442756  13.0771106  38.6336385  32.6433547
  24.6298007  33.0932408  22.1181333  25.3333857  33.2982411  22.7338989
  23.9060656  33.6609170  22.3830417  25.4595817  28.8442270  28.2383603
  25.4031019  29.3010821  27.3991236  26.0124160  28.0832954  28.0606446
  29.2700623  24.6332002  29.0633723  29.0137557  24.2328637  29.8941931
  28.6453491  25.3475795  28.9383862  33.5812961  27.3728075  31.5705014
  33.0212519  27.4421264  32.3436576  32.9756464  27.1969059  30.8504510
  16.6508170  38.8064802  33.3223201  16.5340554  39.7510234  33.2201891
  15.8300616  38.5038363  33.7109000  26.5384704  33.5314938  24.1679793
  27.3730308  33.0996136  23.9857268  26.3769047  33.3596951  25.0956688
  26.1930596  30.0347051  25.5336133  26.1379400  29.8691322  24.5924577
  25.5676652  30.7423084  25.6898322  10.9823111  25.2715115  39.3597555
  11.6281975  24.7614069  39.8484780  10.7740263  26.0083797  39.9340980
  23.5076504  32.3395963  44.8589695  24.3767663  32.5136615  44.4976330
  23.0283255  33.1590380  44.7365425  17.6762684  39.4593064  36.5379129
  18.5789931  39.4916674  36.8545624  17.4500054  38.5293515  36.5525465
  19.4316286  38.2124050  33.1989208  18.4811917  38.2125912  33.0853580
  19.7348772  37.4656785  32.6825242  23.3178841  16.1297937  29.3667388
  22.5511237  15.5756423  29.5124070  23.7289546  16.2019805  30.2281539
  15.3220602  22.4182732  43.4572569  16.1852064  22.0619537  43.6675894
  14.7486013  22.0796627  44.1447973  35.1668979  44.0484589  34.2634970
  35.8047389  43.9291336  33.5598310  35.0489822  44.9965433  34.3222922
  31.9758686  44.0012017  34.1996495  31.6377197  43.8853082  33.3117030
  32.8448454  43.6003182  34.1797501  27.8345501  45.8547493  30.1893386
  27.2710366  45.7637430  29.4209673  27.7197896  45.0347398  30.6695878
  25.3809933  47.3498685  33.0277606  26.1731225  47.0089509  32.6123905
  25.6206583  47.4593660  33.9479759  33.4145060  49.5218461  25.5007851
  32.7633040  50.1072541  25.1141864  34.2089423  50.0524656  25.5602888
  27.3400687  46.6107598  25.8994985  28.1131563  46.0636585  25.7607861
  27.6926086  47.4751847  26.1109446  30.1041937  45.3160829  35.6963244
  30.7005509  45.0916851  34.9820207  30.1616908  44.5745574  36.2988692
  29.6766965  42.7700264  23.5313435  29.9292486  42.2481785  22.7696898
  28.7391524  42.6066410  23.6340118  34.7210248  41.7736043  31.3388178
  35.5073337  41.3555466  30.9878595  34.9848952  42.6782135  31.5069826
  34.8920325  47.2108893  26.0376835  34.2566158  47.2843519  26.7497739
  34.5617732  47.8002492  25.3595914  40.1218675  41.7111276  32.2421157
  40.8543847  41.1410493  32.4758986  39.3658031  41.3232876  32.6827662
  29.3963254  44.6728370  25.7337810  29.2799512  43.9973274  26.4018894
  29.5065514  44.1860744  24.9169963  31.7394795  44.1338517  29.4384499
  31.3753002  43.6069138  30.1497420  32.5961911  43.7436986  29.2650984
  37.6444095  35.4232850  36.7015765  37.3127420  36.2928261  36.4776980
  37.0489709  35.1069134  37.3809796  31.3800282  39.1628417  24.4345848
  31.5474684  40.0308653  24.8016319  31.1897451  39.3255699  23.5107137
  34.1375615  47.6245396  36.1011678  33.8376338  48.5270435  35.9927485
  33.7926674  47.3577579  36.9532831  27.5888096  44.0759193  32.1348382
  26.6638593  43.9435407  32.3426074  27.8372510  44.8553412  32.6318325
  37.5372759  40.1427936  33.7809115  36.6289636  40.0743344  33.4867876
  37.4860354  40.6199881  34.6090941  31.3589503  41.6186074  25.4192514
  31.2389128  42.0643125  26.2577995  30.6642091  41.9671392  24.8606052
  24.9496907  43.7192466  32.9692171  25.0789289  43.9726945  33.8831583
  24.2694359  44.3120174  32.6496826  29.1196395  54.3889716  29.0682646
  29.0420424  55.3397541  29.1471126  28.5158038  54.0435589  29.7257572
  31.6113624  41.5617582  41.7244012  30.8346959  42.1211502  41.7146877
  32.2504188  42.0474365  42.2458883  39.4034405  38.3444374  35.5586989
  38.7608785  38.6376908  34.9126784  38.8989334  38.2297295  36.3640186
  37.0574569  42.0907548  26.2472848  37.9692425  42.3234934  26.0720546
  36.5484216  42.6744592  25.6847927  31.6946406  41.4504782  37.2567698
  32.5407602  41.8744196  37.4002347  31.6345044  40.7938407  37.9506261
  35.6644151  47.0733366  33.6386430  35.0353013  47.2379080  32.9362498
  35.2769813  47.4874976  34.4097394  39.5433383  48.0087804  30.9930794
  38.8584421  48.3886705  30.4427827  39.6277232  48.6183131  31.7262741
  34.8445852  39.1109151  38.9148872  34.6006784  39.8651211  38.3783147
  35.1205782  39.4894498  39.7496119  34.4010543  38.2665584  34.4962709
  33.5395023  38.5646837  34.7879447  34.4272978  38.4835983  33.5643742
  31.2172113  46.8107774  30.9036515  31.6810458  47.0895477  30.1141137
  30.9528911  45.9091219  30.7209606  28.1096194  46.3579256  33.8416278
  28.6797551  46.7866524  33.2033763  28.7004306  46.0761840  34.5400464
  30.1540999  42.9330927  27.7126080  30.8565042  43.3851970  28.1800006
  29.8221627  42.2914745  28.3405973  28.6021360  41.5242683  42.0877289
  27.9720021  42.2058964  42.3212686  28.4957448  41.4125765  41.1430428
  23.8966333  41.1914479  33.0143214  23.1065387  41.4472008  32.5383324
  24.3877580  42.0062817  33.1195254  37.9130142  48.5319718  35.7648494
  38.7347586  48.1299906  35.4831176  37.9092545  48.4287953  36.7164610
  25.8481078  41.5559058  29.9726690  25.0512242  41.6677753  30.4910186
  25.6206671  41.8945711  29.1067581  22.1804036  41.4444970  35.4458204
  22.4312074  42.3291980  35.7115780  22.7163584  41.2649571  34.6733296
  46.0036136  44.8758467  32.1133466  45.2499844  44.3065865  31.9577470
  46.1383677  44.8421131  33.0604101  31.3934764  49.7471869  27.7888185
  31.2580438  50.5923405  28.2173033  31.9344576  49.9491147  27.0254119
  27.8802103  35.8263449  44.4502541  27.4869049  35.2729648  45.1250185
  28.6968244  36.1374028  44.8409058  24.8464161  47.2647307  28.3616110
  25.3588682  48.0590557  28.5121675  25.4986874  46.5673598  28.2949712
  26.6559046  50.3813064  30.4438864  26.8325674  51.3031028  30.2559847
  27.4515879  50.0671483  30.8733243  30.7970064  37.2421328  42.0422797
  31.5379778  37.8428481  41.9627260  31.0287987  36.4998966  41.4840840
  25.9411402  42.4277695  40.3201027  25.8264917  41.5262953  40.6208126
  25.0855920  42.6741392  39.9685843  27.7790361  51.8991237  36.4449206
  28.3297786  51.7708301  35.6726200  26.9401837  52.1986126  36.0944099
  34.7427227  33.2702431  36.3187079  34.3991497  34.1604073  36.2426189
  35.1106190  33.0804089  35.4556664  22.8113078  45.5935962  29.1375681
  23.6488300  46.0032970  28.9209389  22.9891345  44.6535404  29.1075875
  34.7077510  43.2611042  24.8259514  34.1924133  44.0315647  25.0647901
  34.4354818  42.5876178  25.4492575  32.2924621  38.1060743  29.8844752
  31.4366217  37.7167593  29.7050391  32.7051573  38.1852704  29.0244538
  33.8223768  35.6407086  34.2836312  33.3188563  35.6037221  33.4704117
  34.1154374  36.5499829  34.3432969  30.0666653  35.7245816  33.2902494
  30.9319650  35.5288625  32.9308383  30.1344162  35.4956168  34.2171850
  39.6811784  46.0143397  26.7612687  38.9041227  45.6754556  26.3167849
  40.3603265  46.0196020  26.0867652  34.4963813  41.1338134  26.6519295
  34.1913949  41.4484283  27.5029438  35.4494255  41.2119554  26.6946628
  32.9410245  47.2928358  28.3012249  32.4131606  46.5581117  27.9885486
  32.4397748  48.0703034  28.0552217  37.9203091  45.4877378  33.4179295
  37.2626765  46.1776639  33.5059424  38.7243490  45.8773810  33.7613282
  27.6728973  37.9548024  30.6618861  28.2472724  37.7323205  29.9292053
  28.2599955  38.0236718  31.4147462  36.7308550  43.8421751  31.4683237
  37.2440431  44.4751743  31.9704947  37.3809774  43.2422946  31.1026597
  27.9998560  39.9852485  24.6814746  27.1635872  40.3227171  25.0024021
  27.8603329  39.8501465  23.7441883  29.9751640  34.8289273  29.3893930
  29.3216053  34.5138290  28.7650545  29.9332114  34.2065013  30.1153753
  31.0862845  45.1108568  21.3047222  30.1789907  44.8797821  21.5038371
  31.5833877  44.3146187  21.4921204  33.9930924  53.8206075  24.2243908
  33.3192623  54.1237772  24.8328866  34.3796746  54.6235155  23.8749365
  33.2089381  41.3171206  33.7141578  32.2911942  41.5386153  33.5563266
  33.6249524  41.3917517  32.8553285  33.9924428  42.7162622  28.8444258
  34.7396247  43.2284019  28.5351380  34.2616018  42.3946675  29.7048651
  32.2651079  45.2121163  25.8271212  31.3562298  44.9280196  25.9243682
  32.2946162  45.6320241  24.9674519  37.4970346  48.8227752  29.5962380
  37.0432673  47.9818662  29.6527570  36.8664313  49.4589151  29.9337160
  36.4403265  39.7519738  30.8263047  35.7026022  39.2397124  31.1573290
  36.6930039  39.3120120  30.0146324  35.9403285  50.6604249  30.5312198
  36.2326260  51.2209306  29.8124563  36.4501906  50.9532810  31.2865357
  36.5414893  32.5295990  31.4204816  36.8473770  31.6693354  31.1330732
  37.2667498  33.1213610  31.2203810  22.8339249  42.9326677  29.8086414
  22.6363649  42.3396038  29.0837481  22.2785913  42.6278887  30.5262353
  30.8135973  42.8249783  31.9281008  30.8684582  41.8723620  31.8523484
  30.0027175  42.9809222  32.4122306  31.9627166  46.7529906  23.1659291
  31.5246596  46.0365765  22.7064928  32.7037607  46.9806021  22.6044382
  28.7528332  41.4426843  29.6871386  27.9396198  41.7421014  30.0936579
  29.2487327  41.0482532  30.4045869  30.9036910  51.4384600  31.6205651
  30.8613089  51.6645446  30.6914183  31.8199609  51.2047975  31.7691452
  34.3502544  41.9068668  38.5186280  34.7051932  42.1340141  39.3780746
  34.9974675  42.2387044  37.8963536  40.0800281  45.0287103  29.2235609
  39.9418180  45.2188699  28.2956799  39.7236500  45.7906486  29.6803660
  28.2442407  39.0145199  35.3032621  28.8841787  38.8733958  34.6055585
  27.4119938  38.7279712  34.9271223  40.1069661  47.0963630  34.2346881
  40.5406167  47.0038920  35.0829935  40.8201241  47.0721131  33.5966897
  29.0202711  48.3147629  31.4167614  29.8143310  47.8197949  31.2150189
  28.3094404  47.7865492  31.0535319  33.8397556  50.6965725  35.7679981
  33.8934578  51.2656661  36.5357697  32.9712337  50.8667610  35.4034019
  25.3285475  42.4590711  27.4927366  24.3983063  42.3975166  27.7097329
  25.4242947  41.9366664  26.6964008  25.2471024  38.9845524  30.0805608
  25.5077841  39.8990857  29.9714769  26.0688196  38.5169966  30.2302221
  26.7195949  40.3983281  37.2504433  27.3919002  40.1900643  36.6017082
  25.8925736  40.2005367  36.8109665  32.6221521  37.0245222  39.2670094
  31.9749436  37.7235171  39.1734570  33.3922536  37.4581366  39.6346342
  31.5973987  48.8876651  35.0965451  31.4585073  48.5195435  35.9691389
  30.8088583  49.4024290  34.9249409  32.1922139  53.9885747  26.4390987
  32.3673895  53.5173791  27.2536610  31.5054927  54.6151514  26.6672248
  33.1479202  48.2658254  32.4854289  32.8129035  48.2259024  33.3811939
  32.6483148  47.6002970  32.0124699  27.1223446  43.6725884  38.0106870
  26.9843244  42.9406123  38.6118409  28.0328370  43.5834784  37.7291058
  36.0838394  45.6114288  22.7591348  35.4667565  44.8861116  22.6624401
  35.6154882  46.3723648  22.4158423  29.7505747  43.3845843  37.4990549
  30.4605365  42.7439035  37.4577168  29.7075055  43.6358738  38.4216730
  28.4634681  40.3711061  39.3186189  27.9272038  39.9201799  39.9707785
  27.8751389  40.5056970  38.5756653  26.7583224  57.1375110  33.2130848
  26.9979823  57.7693634  33.8909866  25.9152421  56.7863150  33.4996207
  27.8736940  39.8299712  21.8812653  26.9966406  39.7088513  21.5174899
  28.3494693  39.0385791  21.6291541  19.3939080  44.6176872  31.9754160
  20.0810120  44.3038602  31.3875175  19.2387209  45.5218237  31.7021411
  24.1973802  39.5067069  36.4039183  24.1131991  38.8992738  35.6689593
  23.3756509  39.9976087  36.4048680  31.2711086  52.9454233  35.6172352
  31.1981258  53.7509204  36.1291656  30.8288479  53.1446198  34.7920373
  31.0600866  52.1826003  29.1275173  30.2768388  52.7247683  29.2213398
  31.7593611  52.6999982  29.5269414  34.3697516  37.9920632  31.7709378
  34.8666216  37.2390594  31.4510449  33.5984497  38.0284949  31.2052588
  42.2227273  43.6960998  33.4127670  42.2117150  44.5785713  33.0421603
  41.3544653  43.3432549  33.2182207  35.4527297  46.7492319  29.3447802
  34.5183575  46.8693782  29.1752506  35.6303965  45.8464786  29.0807812
  30.9532485  40.1338015  31.4981063  30.5830272  39.5809056  32.1861969
  31.4491577  39.5296149  30.9456063  38.8399848  42.5909639  29.8797836
  39.3060300  43.4237630  29.8058139  39.2907349  42.1254620  30.5843095
  36.9076079  48.9353460  26.8783988  37.1835923  48.8210055  27.7877862
  36.0380578  48.5370945  26.8396161  36.8116511  34.9590226  33.9188737
  35.8979591  35.1894452  34.0870944  37.2409612  35.0428670  34.7702770
  36.5822969  43.1480118  36.4188631  35.9294420  43.3956025  35.7641084
  36.9603349  42.3344256  36.0851109  33.5430143  53.1839811  30.5216802
  33.7252538  52.3661467  30.9844554  34.3663129  53.4007503  30.0841692
  33.8772309  52.1107996  27.7831850  34.4060075  51.6000451  27.1702012
  34.1400528  51.7950526  28.6477383  24.3789401  50.1271865  35.5267184
  24.9642838  49.3815553  35.6595088  24.1814240  50.4375822  36.4103848
  27.2328057  53.1623113  30.5429626  26.5638432  53.6469240  30.0593666
  27.0940926  53.4092333  31.4573005  18.9707056  42.6977465  34.2471627
  19.0091156  42.1641056  35.0408745  18.4647349  42.1712671  33.6282604
  26.3497818  37.5442006  37.7434169  26.4139145  38.4056837  37.3311567
  26.2864939  36.9316008  37.0106528  25.8250091  39.6165138  41.3907203
  26.4522130  39.2342216  42.0044728  24.9678010  39.3979340  41.7562896
  22.6015634  41.4241568  27.3225558  22.8969075  40.5152246  27.2692612
  21.7003669  41.4029307  27.0006561  34.5101712  53.1448832  34.1275967
  34.3852852  52.3438571  33.6186912  35.1680804  53.6395025  33.6389937
  26.1309881  39.4997564  33.3053107  25.4096466  40.1133532  33.1660580
  26.9203136  40.0355329  33.2269753  36.5736621  50.9457852  35.7555517
  35.6266956  50.8263203  35.6833843  36.9219394  50.0580350  35.8381778
  28.9336194  36.8351991  39.5793759  29.4570596  37.0814287  40.3420068
  28.7148527  37.6672025  39.1596896  24.3303475  39.1055665  27.4464883
  24.0016181  38.2253044  27.2639989  24.6842846  39.0503334  28.3341273
  33.5783054  50.7410568  31.9559869  33.4308017  49.8127275  32.1367439
  34.4036548  50.7630659  31.4716944  27.4445298  39.3928635  27.8140361
  27.7841371  39.9214556  27.0918969  27.8917419  39.7309041  28.5898928
  37.1817176  51.5639127  33.0424742  38.1063723  51.3581988  32.9049193
  37.0132479  51.3155528  33.9514083  30.1388739  37.7765686  37.2643429
  29.7985560  36.9773499  37.6664109  29.4327746  38.0767397  36.6920262
  30.7905211  34.8614998  35.7170752  31.6131280  34.3875476  35.5949642
  31.0343275  35.6405482  36.2169438  29.4313446  37.8903257  26.0133654
  30.1521808  38.2684509  25.5097371  28.8078750  38.6092133  26.1168632
  33.5744568  38.5948406  26.9491986  33.7908183  39.4773043  26.6480814
  33.0938636  38.2034619  26.2197628  28.3143790  41.5534119  33.5262731
  28.1688371  41.8674422  34.4187012  27.8368993  42.1719019  32.9733629
  30.1740173  38.5436667  33.5743620  30.1601741  37.6477760  33.2375918
  30.8912601  38.5507331  34.2081906  32.0266303  38.9774007  35.6196748
  31.7684081  39.8991078  35.6181078  31.4951344  38.5804442  36.3097212
  36.9712492  52.0824794  28.3986833  37.1449370  51.5171217  27.6460686
  37.4641383  52.8825689  28.2166323  22.7889452  44.0939463  36.4650392
  22.2442920  44.8699271  36.5970666  23.6668802  44.4410268  36.3069513
  29.5777069  37.4251047  28.8431190  29.6992980  36.4967693  29.0422078
  29.2879111  37.4389733  27.9309506  32.4468259  35.1105958  31.9797910
  32.4689956  35.1745291  31.0249890  32.8636318  34.2710466  32.1738416
  42.8251883  44.8461217  30.0177133  43.2683029  44.0968542  29.6196256
  41.9478394  44.8371353  29.6350865  37.9587665  51.3991559  25.4983731
  38.6538569  52.0198251  25.7171046  38.3010815  50.5486910  25.7736109
  23.5755474  43.2209359  39.3580549  22.8337210  43.3691995  39.9445179
  23.2548218  43.4817625  38.4947298  39.8579088  48.8491264  27.0271062
  40.3830412  49.1878537  26.3020382  39.7701440  47.9138279  26.8434197
  31.5419749  54.9163247  31.3866315  31.1024739  54.4239626  32.0799172
  32.2927866  54.3736215  31.1458391  24.0212088  51.1074788  31.3890943
  24.8470107  50.8078560  31.0089587  23.6706140  50.3382411  31.8380732
  28.9893621  50.4601256  33.4588617  28.3673630  49.7971961  33.1590845
  29.6598488  50.4862388  32.7762265  22.2220693  49.0261115  32.3479877
  21.3852601  48.5983289  32.1663878  22.1944338  49.2193558  33.2850668
  29.0618148  38.9383044  43.0521123  29.1106304  39.8145167  42.6698893
  29.6040662  38.3960438  42.4792766  28.5507128  49.0105180  26.9347078
  28.6995248  49.6940644  26.2813750  29.3573571  48.9910270  27.4496533
  31.2917437  39.6914417  39.8067482  30.4220746  39.9847983  39.5350070
  31.5276917  40.2754862  40.5274745  42.3684748  46.3166455  32.4099580
  43.2031639  46.7556259  32.5737141  42.5043877  45.8405109  31.5907826
  39.4176254  43.8746190  38.3577068  39.8930376  44.0673837  37.5495920
  38.4941819  43.9305376  38.1120452  26.3059761  45.0370357  27.9408146
  26.0605803  44.1332687  28.1388357  26.4755675  45.0387508  26.9987624
  33.9956470  35.9094034  37.3232902  34.5138414  36.6455061  36.9979391
  33.6411603  36.2158027  38.1579661  25.5755408  40.7698715  25.4394308
  24.8824653  40.8443070  24.7834344  25.3307160  40.0059059  25.9615825
  34.2469065  32.3294316  32.8433799  34.5270818  31.6617505  33.4694225
  35.0319672  32.5223412  32.3308463  32.0502533  51.5053310  24.4058825
  31.4776500  52.1243497  23.9529297  32.6235327  52.0552672  24.9398747
  38.1177923  40.7511950  36.5905374  39.0695346  40.8510048  36.6117598
  37.9481373  39.9590219  37.1003458  36.1392302  37.8367534  36.7764775
  35.5442235  38.1172546  36.0811263  35.8541999  38.3261434  37.5481516
  35.2699793  51.7890460  25.5367407  36.2030466  51.7236022  25.7400283
  35.1823006  52.6246727  25.0781940  37.8987810  51.1056331  22.4971355
  37.8201441  50.7716194  23.3907113  38.7197476  51.5978099  22.4962827
  40.5966001  43.9718070  35.7047673  40.5642321  43.0334071  35.8907357
  41.2066624  44.0502107  34.9713498  32.4349332  42.8414123  21.7474878
  33.3808436  42.7120331  21.8163296  32.0563577  42.1028785  22.2244306
  40.7460489  40.7629113  35.7505957  40.2299538  39.9787570  35.5635886
  41.6300438  40.4347830  35.9152476  38.4071216  34.5070129  31.7101769
  38.2096037  34.1985217  32.5945101  39.0170922  35.2331768  31.8399699
  30.6192249  40.7664099  21.6829763  29.7123704  40.4697212  21.7592476
  30.8968230  40.4693917  20.8164049  21.5370189  42.0870463  32.1328809
  21.2172974  41.2335771  31.8403183  20.9903617  42.3019041  32.8886776
  25.3150097  44.8032904  35.8498316  25.5336106  45.7350012  35.8686349
  25.7275871  44.4440878  36.6353119  32.2354315  35.3100989  27.8374004
  31.4255043  34.9648074  28.2129250  32.9238731  35.0008533  28.4261616
  34.1644863  34.3879036  29.4598301  34.7175901  34.8074489  30.1188324
  34.4014949  33.4614784  29.5021257  30.1877962  40.3766110  45.2401065
  30.0874689  41.3260466  45.1713156  29.9699504  40.0484348  44.3677135
  29.3891033  37.6251035  21.8241742  30.2510197  37.9505933  22.0837559
  29.5741378  36.8382530  21.3114808  21.4058449  45.7073374  34.1021931
  20.7121921  45.2927327  33.5891885  22.1531440  45.7493911  33.5055350
  37.5423670  36.4979561  28.9676965  36.9622339  37.1564365  28.5855017
  37.2759603  35.6756906  28.5564382  35.9927236  35.8984619  31.1698285
  36.4927015  36.0101153  30.3612604  36.6362844  35.5945672  31.8099094
  30.0509232  43.8063248  44.0566126  29.5676314  44.6063608  44.2630015
  30.1370171  43.8171193  43.1033570  23.3195192  45.6391628  31.9787946
  23.2965880  45.7379315  31.0269829  23.6295828  46.4856779  32.3005112
  25.9782570  47.6967783  36.0934560  26.9325823  47.6651725  36.0264492
  25.7795093  47.2358407  36.9084786  26.5681952  46.2668899  38.6605358
  27.3874841  46.7612978  38.6840195  26.8418759  45.3500867  38.6322925
  36.3248548  38.6579651  28.0233313  35.4374403  38.9429302  27.8053508
  36.7402537  38.4973415  27.1760590  39.6763084  38.6826172  31.7387652
  40.4523474  39.1722625  32.0112269  38.9511218  39.1084227  32.1959522
  42.1135643  39.3953792  32.7961593  42.7080133  39.1549528  32.0854901
  42.1862226  38.6760922  33.4235129  24.3332798  53.2387403  33.1104758
  24.1987266  52.4787803  32.5442756  23.9164861  53.9628302  32.6433547
  35.4691761  48.4224326  22.1181333  36.1727611  48.6274329  22.7338989
  34.7454410  48.9901088  22.3830417  36.2989572  44.1734187  28.2383603
  36.2424773  44.6302739  27.3991236  36.8517914  43.4124872  28.0606446
  40.1094378  39.9623919  29.0633723  39.8531312  39.5620555  29.8941931
  39.4847246  40.6767713  28.9383862  44.4206715  42.7019992  31.5705014
  43.8606273  42.7713182  32.3436576  43.8150219  42.5260977  30.8504510
  27.4901924  54.1356720  33.3223201  27.3734308  55.0802152  33.2201891
  26.6694371  53.8330281  33.7109000  37.3778459  48.8606855  24.1679793
  38.2124063  48.4288054  23.9857268  37.2162802  48.6888869  25.0956688
  37.0324351  45.3638969  25.5336133  36.9773155  45.1983240  24.5924577
  36.4070406  46.0715002  25.6898322  21.8216866  40.6007033  39.3597555
  22.4675730  40.0905987  39.8484780  21.6134017  41.3375715  39.9340980
  30.3420476  34.8647078  25.1121451  30.3299146  35.8088918  25.2689722
  31.2343898  34.6817223  24.8180912  28.5156438  54.7884981  36.5379129
  29.4183685  54.8208592  36.8545624  28.2893808  53.8585432  36.5525465
  30.2710040  53.5415968  33.1989208  29.3205671  53.5417830  33.0853580
  30.5742527  52.7948703  32.6825242  34.1572596  31.4589854  29.3667388
  33.3904992  30.9048341  29.5124070  34.5683301  31.5311723  30.2281539
  26.1614357  37.7474650  43.4572569  27.0245818  37.3911455  43.6675894
  25.5879768  37.4088545  44.1447973  40.5160720  58.0992182  23.5313435
  40.7686240  57.5773703  22.7696898  39.5785279  57.9358327  23.6340118
  45.5604002  57.1027960  31.3388178  46.3467092  56.6847383  30.9878595
  45.8242707  58.0074052  31.5069826  40.2357008  60.0020288  25.7337810
  40.1193266  59.3265191  26.4018894  40.3459268  59.5152662  24.9169963
  42.5788549  59.4630435  29.4384499  42.2146756  58.9361056  30.1497420
  43.4355665  59.0728904  29.2650984  42.2194036  54.4920335  24.4345848
  42.3868439  55.3600571  24.8016319  42.0291205  54.6547616  23.5107137
  42.1983257  56.9477992  25.4192514  42.0782882  57.3935043  26.2577995
  41.5035845  57.2963310  24.8606052  35.7890662  59.0484384  32.9692171
  35.9183043  59.3018863  33.8831583  35.1088113  59.6412092  32.6496826
  47.8968323  57.4199465  26.2472848  48.8086179  57.6526852  26.0720546
  47.3877970  58.0036510  25.6847927  45.2404298  53.5957501  34.4962709
  44.3788777  53.8938755  34.7879447  45.2666733  53.8127900  33.5643742
  40.9934753  58.2622844  27.7126080  41.6958797  58.7143888  28.1800006
  40.6615382  57.6206663  28.3405973  34.7360087  56.5206397  33.0143214
  33.9459141  56.7763925  32.5383324  35.2271335  57.3354735  33.1195254
  36.6874833  56.8850976  29.9726690  35.8905996  56.9969670  30.4910186
  36.4600425  57.2237628  29.1067581  33.0197790  56.7736887  35.4458204
  33.2705829  57.6583897  35.7115780  33.5557339  56.5941489  34.6733296
  33.6506832  60.9227879  29.1375681  34.4882054  61.3324888  28.9209389
  33.8285100  59.9827321  29.1075875  45.5471264  58.5902960  24.8259514
  45.0317888  59.3607564  25.0647901  45.2748573  57.9168096  25.4492575
  43.1318375  53.4352661  29.8844752  42.2759972  53.0459511  29.7050391
  43.5445327  53.5144621  29.0244538  44.6617522  50.9699004  34.2836312
  44.1582318  50.9329139  33.4704117  44.9548129  51.8791747  34.3432969
  40.9060408  51.0537734  33.2902494  41.7713405  50.8580542  32.9308383
  40.9737917  50.8248085  34.2171850  45.3357568  56.4630052  26.6519295
  45.0307703  56.7776201  27.5029438  46.2888010  56.5411472  26.6946628
  38.5122727  53.2839942  30.6618861  39.0866479  53.0615123  29.9292053
  39.0993709  53.3528636  31.4147462  38.8392314  55.3144403  24.6814746
  38.0029626  55.6519089  25.0024021  38.6997084  55.1793382  23.7441883
  40.8145395  50.1581190  29.3893930  40.1609807  49.8430208  28.7650545
  40.7725869  49.5356931  30.1153753  41.9256600  60.4400486  21.3047222
  41.0183661  60.2089739  21.5038371  42.4227632  59.6438105  21.4921204
  44.8318183  58.0454540  28.8444258  45.5790002  58.5575937  28.5351380
  45.1009772  57.7238592  29.7048651  43.1044833  60.5413080  25.8271212
  42.1956052  60.2572113  25.9243682  43.1339917  60.9612159  24.9674519
  47.2797020  55.0811656  30.8263047  46.5419777  54.5689042  31.1573290
  47.5323794  54.6412038  30.0146324  47.3808647  47.8587908  31.4204816
  47.6867524  46.9985271  31.1330732  48.1061252  48.4505528  31.2203810
  33.6733003  58.2618595  29.8086414  33.4757403  57.6687955  29.0837481
  33.1179667  57.9570805  30.5262353  41.6529727  58.1541701  31.9281008
  41.7078337  57.2015537  31.8523484  40.8420929  58.3101140  32.4122306
  42.8020921  62.0821824  23.1659291  42.3640351  61.3657683  22.7064928
  43.5431362  62.3097939  22.6044382  39.5922087  56.7718761  29.6871386
  38.7789953  57.0712931  30.0936579  40.0881081  56.3774450  30.4045869
  39.0836162  54.3437116  35.3032621  39.7235541  54.2025875  34.6055585
  38.2513692  54.0571630  34.9271223  36.1679229  57.7882628  27.4927366
  35.2376817  57.7267084  27.7097329  36.2636701  57.2658581  26.6964008
  36.0864778  54.3137441  30.0805608  36.3471595  55.2282774  29.9714769
  36.9081950  53.8461884  30.2302221  46.9232148  60.9406206  22.7591348
  46.3061319  60.2153034  22.6624401  46.4548637  61.7015566  22.4158423
  38.7130694  55.1591630  21.8812653  37.8360161  55.0380431  21.5174899
  39.1888447  54.3677708  21.6291541  30.2332834  59.9468790  31.9754160
  30.9203874  59.6330520  31.3875175  30.0780963  60.8510154  31.7021411
  45.2091270  53.3212550  31.7709378  45.7059970  52.5682512  31.4510449
  44.4378252  53.3576866  31.2052588  41.7926239  55.4629933  31.4981063
  41.4224027  54.9100973  32.1861969  42.2885332  54.8588066  30.9456063
  47.6510265  50.2882143  33.9188737  46.7373345  50.5186370  34.0870944
  48.0803367  50.3720587  34.7702770  29.8100811  58.0269383  34.2471627
  29.8484910  57.4932974  35.0408745  29.3041103  57.5004589  33.6282604
  33.4409388  56.7533485  27.3225558  33.7362829  55.8444164  27.2692612
  32.5397424  56.7321225  27.0006561  36.9703635  54.8289482  33.3053107
  36.2490221  55.4425450  33.1660580  37.7596891  55.3647247  33.2269753
  35.1697230  54.4347583  27.4464883  34.8409936  53.5544962  27.2639989
  35.5236600  54.3795252  28.3341273  38.2839053  54.7220553  27.8140361
  38.6235125  55.2506474  27.0918969  38.7311173  55.0600959  28.5898928
  40.2707200  53.2195174  26.0133654  40.9915563  53.5976427  25.5097371
  39.6472504  53.9384051  26.1168632  44.4138323  53.9240323  26.9491986
  44.6301937  54.8064961  26.6480814  43.9332390  53.5326537  26.2197628
  41.0133927  53.8728584  33.5743620  40.9995496  52.9769678  33.2375918
  41.7306355  53.8799248  34.2081906  42.8660058  54.3065925  35.6196748
  42.6077836  55.2282995  35.6181078  42.3345098  53.9096359  36.3097212
  33.6283206  59.4231381  36.4650392  33.0836675  60.1991189  36.5970666
  34.5062556  59.7702185  36.3069513  40.4170823  52.7542965  28.8431190
  40.5386734  51.8259611  29.0422078  40.1272866  52.7681651  27.9309506
  43.2862014  50.4397875  31.9797910  43.3083710  50.5037208  31.0249890
  43.7030073  49.6002384  32.1738416  33.0614447  64.3553032  32.3479877
  32.2246355  63.9275207  32.1663878  33.0338092  64.5485476  33.2850668
  36.4149163  56.0990633  25.4394308  35.7218408  56.1734988  24.7834344
  36.1700915  55.3350976  25.9615825  43.2743086  58.1706041  21.7474878
  44.2202191  58.0412249  21.8163296  42.8957331  57.4320703  22.2244306
  49.2464971  49.8362047  31.7101769  49.0489792  49.5277135  32.5945101
  49.8564676  50.5623686  31.8399699  41.4586003  56.0956017  21.6829763
  40.5517459  55.7989130  21.7592476  41.7361984  55.7985835  20.8164049
  32.3763944  57.4162380  32.1328809  32.0566728  56.5627689  31.8403183
  31.8297372  57.6310959  32.8886776  43.0748069  50.6392907  27.8374004
  42.2648797  50.2939992  28.2129250  43.7632486  50.3300450  28.4261616
  45.0038617  49.7170954  29.4598301  45.5569656  50.1366407  30.1188324
  45.2408704  48.7906702  29.5021257  40.2284788  52.9542952  21.8241742
  41.0903952  53.2797851  22.0837559  40.4135132  52.1674448  21.3114808
  32.2452204  61.0365292  34.1021931  31.5515675  60.6219245  33.5891885
  32.9925195  61.0785828  33.5055350  48.3817424  51.8271479  28.9676965
  47.8016093  52.4856283  28.5855017  48.1153357  51.0048823  28.5564382
  46.8320991  51.2276536  31.1698285  47.3320769  51.3393071  30.3612604
  47.4756599  50.9237589  31.8099094  34.1588946  60.9683546  31.9787946
  34.1359634  61.0671233  31.0269829  34.4689583  61.8148697  32.3005112
  47.1642302  53.9871569  28.0233313  46.2768157  54.2721220  27.8053508
  47.5796291  53.8265332  27.1760590  46.3085516  63.7516244  22.1181333
  47.0121366  63.9566246  22.7338989  45.5848165  64.3193006  22.3830417
  41.1814231  50.1938995  25.1121451  41.1692901  51.1380835  25.2689722
  42.0737653  50.0109141  24.8180912  44.9966350  46.7881772  29.3667388
  44.2298746  46.2340259  29.5124070  45.4077055  46.8603641  30.2281539
  58.2202402  63.1879826  31.4204816  58.5261279  62.3277189  31.1330732
  58.9455007  63.7797446  31.2203810  51.0678542  68.2834870  21.8241742
  51.9297706  68.6089768  22.0837559  51.2528887  67.4966366  21.3114808
  52.0207985  65.5230913  25.1121451  52.0086655  66.4672753  25.2689722
  52.9131407  65.3401058  24.8180912  55.8360105  62.1173690  29.3667388
  55.0692501  61.5632176  29.5124070  56.2470810  62.1895558  30.2281539
  67.6850243  90.0360342  34.2634970  68.3228653  89.9167089  33.5598310
  67.5671086  90.9841186  34.3222922  64.4939949  89.9887770  34.1996495
  64.1558461  89.8728835  33.3117030  65.3629717  89.5878935  34.1797501
  60.3526765  91.8423246  30.1893386  59.7891630  91.7513183  29.4209673
  60.2379160  91.0223151  30.6695878  64.9759732  91.1422622  40.1582700
  64.9648373  90.7475420  39.2863204  65.1380372  90.4088694  40.7516472
  57.8991197  93.3374438  33.0277606  58.6912489  92.9965263  32.6123905
  58.1387847  93.4469413  33.9479759  65.9326324  95.5094214  25.5007851
  65.2814303  96.0948294  25.1141864  66.7270686  96.0400409  25.5602888
  59.8581951  92.5983351  25.8994985  60.6312827  92.0512338  25.7607861
  60.2107350  93.4627600  26.1109446  61.6966993  93.9259733  39.1061884
  61.4056859  94.8305364  38.9908550  62.3323978  93.9676261  39.8205954
  62.6223200  91.3036582  35.6963244  63.2186772  91.0792604  34.9820207
  62.6798172  90.5621327  36.2988692  62.1948229  88.7576017  23.5313435
  62.4473749  88.2357539  22.7696898  61.2572788  88.5942163  23.6340118
  67.2391511  87.7611796  31.3388178  68.0254601  87.3431219  30.9878595
  67.5030216  88.6657888  31.5069826  67.4101589  93.1984646  26.0376835
  66.7747422  93.2719272  26.7497739  67.0798995  93.7878245  25.3595914
  72.6399938  87.6987029  32.2421157  73.3725110  87.1286246  32.4758986
  71.8839294  87.3108629  32.6827662  61.9144517  90.6604123  25.7337810
  61.7980775  89.9849027  26.4018894  62.0246777  90.1736497  24.9169963
  64.2576058  90.1214270  29.4384499  63.8934265  89.5944891  30.1497420
  65.1143174  89.7312739  29.2650984  66.6556878  93.6121149  36.1011678
  66.3557601  94.5146188  35.9927485  66.3107938  93.3453332  36.9532831
  60.1069360  90.0634946  32.1348382  59.1819856  89.9311160  32.3426074
  60.3553773  90.8429165  32.6318325  63.8770766  87.6061828  25.4192514
  63.7570391  88.0518878  26.2577995  63.1823354  87.9547145  24.8606052
  61.6377658 100.3765469  29.0682646  61.5601688 101.3273294  29.1471126
  61.0339302 100.0311342  29.7257572  71.9215669  84.3320127  35.5586989
  71.2790049  84.6252661  34.9126784  71.4170597  84.2173048  36.3640186
  69.5755832  88.0783301  26.2472848  70.4873688  88.3110687  26.0720546
  69.0665479  88.6620345  25.6847927  62.3841260  90.3578788  41.2861979
  63.1255945  90.8963832  41.0096803  61.6778246  90.9845077  41.4433531
  67.8596600  92.5007929  39.8834141  68.2679956  92.0590339  39.1388773
  67.1373861  91.9260556  40.1368334  68.1825415  93.0609119  33.6386430
  67.5534277  93.2254833  32.9362498  67.7951077  93.4750729  34.4097394
  72.0614646  93.9963557  30.9930794  71.3765685  94.3762458  30.4427827
  72.1458496  94.6058884  31.7262741  69.3165578  91.6423516  37.5926137
  69.5282473  92.2855276  36.9160518  69.2695326  90.8085833  37.1248067
  63.7353376  92.7983527  30.9036515  64.1991722  93.0771230  30.1141137
  63.4710174  91.8966972  30.7209606  60.6277457  92.3455009  33.8416278
  61.1978815  92.7742277  33.2033763  61.2185569  92.0637593  34.5400464
  61.1202624  87.5118436  42.0877289  60.4901285  88.1934717  42.3212686
  61.0138712  87.4001518  41.1430428  70.4311406  94.5195471  35.7648494
  71.2528850  94.1175659  35.4831176  70.4273809  94.4163706  36.7164610
  64.1968009  94.0679515  37.9209205  64.2612442  94.5299922  38.7567377
  63.4878933  93.4376880  38.0491515  78.5217399  90.8634220  32.1133466
  77.7681107  90.2941618  31.9577470  78.6564940  90.8296884  33.0604101
  63.9116027  95.7347622  27.7888185  63.7761702  96.5799158  28.2173033
  64.4525840  95.9366900  27.0254119  57.3645424  93.2523060  28.3616110
  57.8769945  94.0466311  28.5121675  58.0168137  92.5549351  28.2949712
  59.1740309  96.3688817  30.4438864  59.3506937  97.2906781  30.2559847
  59.9697143  96.0547236  30.8733243  65.5384503  96.3571189  41.9188527
  65.0948358  95.5707567  41.6009432  66.2001717  96.5450339  41.2532418
  60.2971625  97.8866990  36.4449206  60.8479050  97.7584054  35.6726200
  59.4583101  98.1861879  36.0944099  67.6365742  96.6373989  39.9469929
  67.6184217  97.4582870  39.4550198  68.5585662  96.5128064  40.1720070
  64.0938796  94.1518118  40.7893437  64.6267132  93.3906406  40.5592745
  63.5652877  93.8591770  41.5317591  67.2258773  89.2486795  24.8259514
  66.7105397  90.0191400  25.0647901  66.9536082  88.5751931  25.4492575
  72.1993047  92.0019150  26.7612687  71.4222490  91.6630309  26.3167849
  72.8784528  92.0071773  26.0867652  67.0145077  87.1213887  26.6519295
  66.7095212  87.4360036  27.5029438  67.9675519  87.1995307  26.6946628
  65.4591508  93.2804111  28.3012249  64.9312870  92.5456870  27.9885486
  64.9579011  94.0578787  28.0552217  70.4384354  91.4753131  33.4179295
  69.7808029  92.1652392  33.5059424  71.2424754  91.8649563  33.7613282
  69.2489813  89.8297504  31.4683237  69.7621695  90.4627496  31.9704947
  69.8991037  89.2298699  31.1026597  63.6044109  91.0984321  21.3047222
  62.6971170  90.8673574  21.5038371  64.1015141  90.3021940  21.4921204
  66.5112187  99.8081828  24.2243908  65.8373886 100.1113525  24.8328866
  66.8978009 100.6110908  23.8749365  66.5105692  88.7038375  28.8444258
  67.2577511  89.2159772  28.5351380  66.7797281  88.3822428  29.7048651
  64.7832342  91.1996916  25.8271212  63.8743561  90.9155949  25.9243682
  64.8127426  91.6195994  24.9674519  70.0151609  94.8103505  29.5962380
  69.5613937  93.9694415  29.6527570  69.3845576  95.4464904  29.9337160
  68.4584549  96.6480002  30.5312198  68.7507523  97.2085059  29.8124563
  68.9683169  96.9408563  31.2865357  64.4808430  92.7405659  23.1659291
  64.0427860  92.0241518  22.7064928  65.2218871  92.9681774  22.6044382
  63.4218174  97.4260353  31.6205651  63.3794353  97.6521199  30.6914183
  64.3380873  97.1923728  31.7691452  72.5981545  91.0162856  29.2235609
  72.4599443  91.2064452  28.2956799  72.2417763  91.7782239  29.6803660
  72.6250924  93.0839383  34.2346881  73.0587431  92.9914673  35.0829935
  73.3382505  93.0596884  33.5966897  61.5383975  94.3023382  31.4167614
  62.3324573  93.8073702  31.2150189  60.8275667  93.7741245  31.0535319
  66.3578819  96.6841478  35.7679981  66.4115841  97.2532414  36.5357697
  65.4893600  96.8543363  35.4034019  73.4866474  93.1263084  36.7679766
  73.6802364  94.0308895  37.0139041  73.3867092  92.6670503  37.6018351
  68.5481582  93.2769827  42.3420647  68.3967089  93.0480379  41.4250731
  68.5386262  94.2340428  42.3551992  65.3166919  90.8501740  37.3266913
  66.2458979  91.0012899  37.1535881  64.8957949  90.9385760  36.4715560
  64.1155251  94.8752404  35.0965451  63.9766336  94.5071188  35.9691389
  63.3269847  95.3900043  34.9249409  64.7103403  99.9761500  26.4390987
  64.8855158  99.5049544  27.2536610  64.0236191 100.6027267  26.6672248
  65.6660466  94.2534007  32.4854289  65.3310298  94.2134777  33.3811939
  65.1664411  93.5878723  32.0124699  68.6019657  91.5990041  22.7591348
  67.9848828  90.8736869  22.6624401  68.1336146  92.3599401  22.4158423
  70.2573789  96.3088949  40.4197129  70.1986335  95.6248170  39.7527712
  70.6593307  97.0507939  39.9677755  59.2764488 103.1250863  33.2130848
  59.5161086 103.7569387  33.8909866  58.4333684 102.7738903  33.4996207
  70.2591196  94.2728533  38.6511108  69.3717975  93.9354455  38.7737507
  70.8289747  93.5411565  38.8879874  63.7892350  98.9329986  35.6172352
  63.7162521  99.7384957  36.1291656  63.3469743  99.1321952  34.7920373
  63.5782129  98.1701756  29.1275173  62.7949651  98.7123436  29.2213398
  64.2774875  98.6875735  29.5269414  74.7408537  89.6836751  33.4127670
  74.7298413  90.5661466  33.0421603  73.8725916  89.3308302  33.2182207
  66.2491033  98.8316820  37.7730510  66.9619005  99.4664285  37.7006412
  65.7581062  98.9280686  36.9570512  67.9708560  92.7368072  29.3447802
  67.0364839  92.8569535  29.1752506  68.1485229  91.8340539  29.0807812
  71.3581111  88.5785392  29.8797836  71.8241564  89.4113383  29.8058139
  71.8088612  88.1130373  30.5843095  61.3002947  96.5811263  38.5936081
  62.0012406  97.2147746  38.7465475  60.8298062  96.9225995  37.8331720
  69.4257343  94.9229213  26.8783988  69.7017187  94.8085808  27.7877862
  68.5561841  94.5246698  26.8396161  66.0611407  99.1715564  30.5216802
  66.2433801  98.3537220  30.9844554  66.8844393  99.3883256  30.0841692
  66.3953572  98.0983749  27.7831850  66.9241339  97.5876204  27.1702012
  66.6581792  97.7826279  28.6477383  65.1491806  89.8775682  42.9054668
  64.4732443  89.7769811  43.5757044  65.9719440  89.7214895  43.3690666
  56.8970665  96.1147618  35.5267184  57.4824102  95.3691306  35.6595088
  56.6995503  96.4251575  36.4103848  59.7509320  99.1498866  30.5429626
  59.0819695  99.6344993  30.0593666  59.6122190  99.3968086  31.4573005
  63.8914589 101.1842609  37.1412284  64.4432897 101.3474231  37.9061370
  64.2320782 101.7747047  36.4692309  68.7425463  96.0103867  42.9960939
  69.2865367  96.6233825  42.5015894  68.1612308  96.5683445  43.5127952
  67.0282976  99.1324585  34.1275967  66.9034115  98.3314325  33.6186912
  67.6862067  99.6270778  33.6389937  69.0917884  96.9333605  35.7555517
  68.1448220  96.8138956  35.6833843  69.4400657  96.0456103  35.8381778
  66.0964318  96.7286321  31.9559869  65.9489280  95.8003028  32.1367439
  66.9217811  96.7506412  31.4716944  69.6998439  97.5514880  33.0424742
  70.6244987  97.3457741  32.9049193  69.5313743  97.3031281  33.9514083
  69.4893756  98.0700547  28.3986833  69.6630633  97.5046970  27.6460686
  69.9822647  98.8701442  28.2166323  75.3433147  90.8336970  30.0177133
  75.7864293  90.0844295  29.6196256  74.4659657  90.8247106  29.6350865
  70.4768928  97.3867312  25.4983731  71.1719833  98.0074004  25.7171046
  70.8192078  96.5362663  25.7736109  72.3760351  94.8367017  27.0271062
  72.9011675  95.1754290  26.3020382  72.2882704  93.9014032  26.8434197
  64.0380400  98.7501091  39.1560939  64.3467526  98.5050238  40.0283638
  64.8355882  98.9547729  38.6679809  64.0601012 100.9039000  31.3866315
  63.6206002 100.4115379  32.0799172  64.8109129 100.3611968  31.1458391
  56.5393351  97.0950541  31.3890943  57.3651371  96.7954313  31.0089587
  56.1887403  96.3258164  31.8380732  61.5074884  96.4477009  33.4588617
  60.8854893  95.7847714  33.1590845  62.1779751  96.4738141  32.7762265
  54.7401956  95.0136868  32.3479877  53.9033864  94.5859042  32.1663878
  54.7125601  95.2069311  33.2850668  72.0654257  95.4699921  42.3322260
  71.2749801  95.4524060  41.7926760  71.8287612  96.0088214  43.0871297
  72.1852132  92.3192387  39.6454989  72.2350137  92.1542395  40.5870511
  72.0766056  91.4519646  39.2552869  61.0688391  94.9980933  26.9347078
  61.2176511  95.6816397  26.2813750  61.8754835  94.9786023  27.4496533
  69.4755895  88.3023315  40.9614295  70.3765758  88.1629780  40.6698293
  69.5503869  88.4677770  41.9012473  73.6870329  94.7389329  39.8897010
  73.3955138  95.1019309  40.7260471  73.0742460  94.0256337  39.7110342
  74.8866012  92.3042208  32.4099580  75.7212903  92.7432012  32.5737141
  75.0225140  91.8280862  31.5907826  71.9357517  89.8621943  38.3577068
  72.4111639  90.0549590  37.5495920  71.0123083  89.9181129  38.1120452
  58.8241024  91.0246110  27.9408146  58.5787066  90.1208440  28.1388357
  58.9936939  91.0263261  26.9987624  64.5683797  97.4929063  24.4058825
  63.9957764  98.1119250  23.9529297  65.1416590  98.0428425  24.9398747
  67.7881056  97.7766213  25.5367407  68.7211730  97.7111775  25.7400283
  67.7004269  98.6122480  25.0781940  70.4169073  97.0932084  22.4971355
  70.3382705  96.7591947  23.3907113  71.2378740  97.5853852  22.4962827
  73.1147264  89.9593823  35.7047673  73.0823584  89.0209824  35.8907357
  73.7247888  90.0377860  34.9713498  64.9530595  88.8289876  21.7474878
  65.8989700  88.6996084  21.8163296  64.5744840  88.0904538  22.2244306
  73.2641753  86.7504866  35.7505957  72.7480801  85.9663323  35.5635886
  74.1481701  86.4223583  35.9152476  78.9323814  91.0209830  34.8453710
  79.6627203  90.7595118  35.4061414  78.3230760  90.2838552  34.8855778
  77.0139111  89.1617692  35.4428161  76.2872275  89.0273657  34.8344653
  76.5986398  89.4694521  36.2484879  64.8369288  92.8807622  43.2075534
  65.7572297  93.0586221  43.4015581  64.8018871  91.9363667  43.0555234
  63.1373512  86.7539852  21.6829763  62.2304968  86.4572965  21.7592476
  63.4149493  86.4569670  20.8164049  62.5690496  89.7939001  44.0566126
  62.0857577  90.5939362  44.2630015  62.6551435  89.8046946  43.1033570
  58.4963833  93.6843536  36.0934560  59.4507087  93.6527478  36.0264492
  58.2976357  93.2234160  36.9084786  59.0863215  92.2544652  38.6605358
  59.9056104  92.7488731  38.6840195  59.3600023  91.3376620  38.6322925
  72.1944348  84.6701925  31.7387652  72.9704738  85.1598378  32.0112269
  71.4692482  85.0959980  32.1959522  74.6316906  85.3829545  32.7961593
  75.2261397  85.1425281  32.0854901  74.7043490  84.6636675  33.4235129
  56.8514062  99.2263156  33.1104758  56.7168530  98.4663556  32.5442756
  56.4346124  99.9504055  32.6433547  67.9873025  94.4100079  22.1181333
  68.6908875  94.6150082  22.7338989  67.2635674  94.9776841  22.3830417
  68.8170835  90.1609940  28.2383603  68.7606037  90.6178492  27.3991236
  69.3699178  89.4000625  28.0606446  72.6275641  85.9499672  29.0633723
  72.3712575  85.5496308  29.8941931  72.0028509  86.6643466  28.9383862
  76.9387979  88.6895745  31.5705014  76.3787537  88.7588935  32.3436576
  76.3331482  88.5136730  30.8504510  60.0083188 100.1232473  33.3223201
  59.8915572 101.0677905  33.2201891  59.1875634  99.8206034  33.7109000
  69.8959722  94.8482608  24.1679793  70.7305326  94.4163807  23.9857268
  69.7344065  94.6764622  25.0956688  69.5505614  91.3514722  25.5336133
  69.4954418  91.1858993  24.5924577  68.9251670  92.0590755  25.6898322
  66.8651522  93.6563633  44.8589695  67.7342681  93.8304286  44.4976330
  66.3858273  94.4758050  44.7365425  61.0337702 100.7760734  36.5379129
  61.9364949 100.8084345  36.8545624  60.8075072  99.8461185  36.5525465
  62.7891304  99.5291721  33.1989208  61.8386935  99.5293583  33.0853580
  63.0923790  98.7824456  32.6825242  78.5243997 105.3652259  34.2634970
  79.1622407 105.2459007  33.5598310  78.4064840 106.3133103  34.3222922
  75.3333704 105.3179688  34.1996495  74.9952215 105.2020752  33.3117030
  76.2023472 104.9170853  34.1797501  71.1920519 107.1715164  30.1893386
  70.6285384 107.0805101  29.4209673  71.0772914 106.3515068  30.6695878
  75.8153487 106.4714539  40.1582700  75.8042127 106.0767338  39.2863204
  75.9774126 105.7380612  40.7516472  68.7384951 108.6666356  33.0277606
  69.5306243 108.3257180  32.6123905  68.9781601 108.7761331  33.9479759
  76.7720078 110.8386132  25.5007851  76.1208058 111.4240212  25.1141864
  77.5664441 111.3692327  25.5602888  70.6975705 107.9275269  25.8994985
  71.4706581 107.3804256  25.7607861  71.0501104 108.7919518  26.1109446
  72.5360748 109.2551651  39.1061884  72.2450614 110.1597282  38.9908550
  73.1717732 109.2968179  39.8205954  73.4616955 106.6328500  35.6963244
  74.0580527 106.4084522  34.9820207  73.5191926 105.8913245  36.2988692
  73.0341983 104.0867935  23.5313435  73.2867504 103.5649456  22.7696898
  72.0966542 103.9234080  23.6340118  78.0785266 103.0903713  31.3388178
  78.8648355 102.6723136  30.9878595  78.3423970 103.9949805  31.5069826
  78.2495343 108.5276564  26.0376835  77.6141176 108.6011190  26.7497739
  77.9192750 109.1170162  25.3595914  83.4793693 103.0278946  32.2421157
  84.2118865 102.4578163  32.4758986  82.7233049 102.6400547  32.6827662
  72.7538272 105.9896041  25.7337810  72.6374530 105.3140944  26.4018894
  72.8640532 105.5028415  24.9169963  75.0969813 105.4506188  29.4384499
  74.7328020 104.9236809  30.1497420  75.9536929 105.0604657  29.2650984
  81.0019113  96.7400521  36.7015765  80.6702438  97.6095932  36.4776980
  80.4064727  96.4236805  37.3809796  74.7375300 100.4796088  24.4345848
  74.9049702 101.3476324  24.8016319  74.5472469 100.6423369  23.5107137
  77.4950633 108.9413067  36.1011678  77.1951356 109.8438105  35.9927485
  77.1501692 108.6745250  36.9532831  70.9463114 105.3926863  32.1348382
  70.0213611 105.2603078  32.3426074  71.1947528 106.1721083  32.6318325
  80.8947777 101.4595607  33.7809115  79.9864654 101.3911015  33.4867876
  80.8435372 101.9367552  34.6090941  74.7164521 102.9353745  25.4192514
  74.5964146 103.3810796  26.2577995  74.0217109 103.2839063  24.8606052
  68.3071925 105.0360137  32.9692171  68.4364307 105.2894616  33.8831583
  67.6269377 105.6287845  32.6496826  72.4771413 115.7057387  29.0682646
  72.3995442 116.6565212  29.1471126  71.8733056 115.3603259  29.7257572
  74.9688642 102.8785252  41.7244012  74.1921976 103.4379172  41.7146877
  75.6079205 103.3642035  42.2458883  82.7609423  99.6612045  35.5586989
  82.1183803  99.9544578  34.9126784  82.2564352  99.5464966  36.3640186
  80.4149587 103.4075218  26.2472848  81.3267443 103.6402605  26.0720546
  79.9059234 103.9912263  25.6847927  73.2235015 105.6870706  41.2861979
  73.9649699 106.2255750  41.0096803  72.5172000 106.3136994  41.4433531
  78.6990354 107.8299846  39.8834141  79.1073710 107.3882257  39.1388773
  77.9767616 107.2552474  40.1368334  75.0521424 102.7672453  37.2567698
  75.8982620 103.1911867  37.4002347  74.9920062 102.1106077  37.9506261
  79.0219169 108.3901037  33.6386430  78.3928031 108.5546751  32.9362498
  78.6344831 108.8042646  34.4097394  82.9008401 109.3255475  30.9930794
  82.2159439 109.7054376  30.4427827  82.9852250 109.9350801  31.7262741
  78.2020870 100.4276821  38.9148872  77.9581802 101.1818882  38.3783147
  78.4780800 100.8062169  39.7496119  80.1559332 106.9715434  37.5926137
  80.3676228 107.6147194  36.9160518  80.1089081 106.1377750  37.1248067
  77.7585561  99.5833254  34.4962709  76.8970040  99.8814508  34.7879447
  77.7847996  99.8003653  33.5643742  74.5747131 108.1275445  30.9036515
  75.0385476 108.4063148  30.1141137  74.3103929 107.2258889  30.7209606
  71.4671212 107.6746926  33.8416278  72.0372569 108.1034195  33.2033763
  72.0579324 107.3929511  34.5400464  73.5116017 104.2498597  27.7126080
  74.2140060 104.7019641  28.1800006  73.1796645 103.6082416  28.3405973
  71.9596378 102.8410354  42.0877289  71.3295039 103.5226635  42.3212686
  71.8532466 102.7293435  41.1430428  67.2541351 102.5082150  33.0143214
  66.4640405 102.7639678  32.5383324  67.7452598 103.3230488  33.1195254
  81.2705160 109.8487389  35.7648494  82.0922604 109.4467576  35.4831176
  81.2667563 109.7455623  36.7164610  69.2056096 102.8726729  29.9726690
  68.4087260 102.9845423  30.4910186  68.9781688 103.2113381  29.1067581
  75.0361764 109.3971432  37.9209205  75.1006196 109.8591840  38.7567377
  74.3272688 108.7668797  38.0491515  65.5379054 102.7612640  35.4458204
  65.7887092 103.6459650  35.7115780  66.0738602 102.5817242  34.6733296
  89.3611153 106.1926138  32.1133466  88.6074862 105.6233536  31.9577470
  89.4958695 106.1588802  33.0604101  74.7509782 111.0639540  27.7888185
  74.6155456 111.9091076  28.2173033  75.2919594 111.2658818  27.0254119
  71.2377121  97.1431120  44.4502541  70.8444067  96.5897318  45.1250185
  72.0543262  97.4541698  44.8409058  68.2039179 108.5814978  28.3616110
  68.7163700 109.3758228  28.5121675  68.8561892 107.8841268  28.2949712
  70.0134064 111.6980734  30.4438864  70.1900692 112.6198699  30.2559847
  70.8090897 111.3839153  30.8733243  74.1545082  98.5588999  42.0422797
  74.8954796  99.1596152  41.9627260  74.3863005  97.8166637  41.4840840
  69.2986420 103.7445366  40.3201027  69.1839935 102.8430623  40.6208126
  68.4430938 103.9909063  39.9685843  76.3778258 111.6863106  41.9188527
  75.9342112 110.8999485  41.6009432  77.0395472 111.8742257  41.2532418
  71.1365379 113.2158908  36.4449206  71.6872804 113.0875971  35.6726200
  70.2976855 113.5153797  36.0944099  78.4759496 111.9665906  39.9469929
  78.4577971 112.7874787  39.4550198  79.3979416 111.8419982  40.1720070
  74.9332550 109.4810036  40.7893437  75.4660887 108.7198324  40.5592745
  74.4046631 109.1883688  41.5317591  78.1002245  94.5870102  36.3187079
  77.7566515  95.4771743  36.2426189  78.4681208  94.3971759  35.4556664
  66.1688096 106.9103632  29.1375681  67.0063318 107.3200641  28.9209389
  66.3466363 105.9703074  29.1075875  78.0652528 104.5778713  24.8259514
  77.5499151 105.3483318  25.0647901  77.7929836 103.9043849  25.4492575
  75.6499639  99.4228414  29.8844752  74.7941235  99.0335264  29.7050391
  76.0626591  99.5020374  29.0244538  77.1798786  96.9574757  34.2836312
  76.6763581  96.9204892  33.4704117  77.4729392  97.8667500  34.3432969
  73.4241671  97.0413487  33.2902494  74.2894668  96.8456295  32.9308383
  73.4919180  96.8123838  34.2171850  83.0386802 107.3311068  26.7612687
  82.2616245 106.9922227  26.3167849  83.7178283 107.3363691  26.0867652
  77.8538831 102.4505805  26.6519295  77.5488967 102.7651954  27.5029438
  78.8069273 102.5287225  26.6946628  76.2985263 108.6096028  28.3012249
  75.7706624 107.8748788  27.9885486  75.7972766 109.3870705  28.0552217
  81.2778109 106.8045049  33.4179295  80.6201783 107.4944310  33.5059424
  82.0818508 107.1941481  33.7613282  71.0303990  99.2715695  30.6618861
  71.6047742  99.0490876  29.9292053  71.6174973  99.3404389  31.4147462
  80.0883568 105.1589421  31.4683237  80.6015449 105.7919413  31.9704947
  80.7384792 104.5590617  31.1026597  71.3573578 101.3020156  24.6814746
  70.5210890 101.6394842  25.0024021  71.2178347 101.1669135  23.7441883
  73.3326658  96.1456943  29.3893930  72.6791071  95.8305961  28.7650545
  73.2907132  95.5232684  30.1153753  74.4437863 106.4276239  21.3047222
  73.5364925 106.1965492  21.5038371  74.9408895 105.6313858  21.4921204
  76.5664399 102.6338877  33.7141578  75.6486960 102.8553824  33.5563266
  76.9824542 102.7085187  32.8553285  77.3499446 104.0330293  28.8444258
  78.0971265 104.5451690  28.5351380  77.6191036 103.7114345  29.7048651
  75.6226096 106.5288833  25.8271212  74.7137316 106.2447866  25.9243682
  75.6521180 106.9487912  24.9674519  80.8545364 110.1395423  29.5962380
  80.4007691 109.2986333  29.6527570  80.2239331 110.7756821  29.9337160
  79.7978283 101.0687409  30.8263047  79.0601040 100.5564795  31.1573290
  80.0505057 100.6287791  30.0146324  79.2978303 111.9771920  30.5312198
  79.5901278 112.5376977  29.8124563  79.8076924 112.2700481  31.2865357
  79.8989911  93.8463661  31.4204816  80.2048788  92.9861024  31.1330732
  80.6242516  94.4381281  31.2203810  66.1914267 104.2494348  29.8086414
  65.9938667 103.6563708  29.0837481  65.6360931 103.9446558  30.5262353
  74.1710991 104.1417454  31.9281008  74.2259600 103.1891290  31.8523484
  73.3602193 104.2976893  32.4122306  75.3202184 108.0697577  23.1659291
  74.8821614 107.3533436  22.7064928  76.0612625 108.2973692  22.6044382
  72.1103350 102.7594514  29.6871386  71.2971216 103.0588684  30.0936579
  72.6062345 102.3650203  30.4045869  74.2611928 112.7552271  31.6205651
  74.2188107 112.9813117  30.6914183  75.1774627 112.5215645  31.7691452
  77.7077562 103.2236338  38.5186280  78.0626950 103.4507811  39.3780746
  78.3549693 103.5554715  37.8963536  83.4375299 106.3454774  29.2235609
  83.2993198 106.5356370  28.2956799  83.0811518 107.1074157  29.6803660
  71.6017425 100.3312869  35.3032621  72.2416805 100.1901628  34.6055585
  70.7694956 100.0447383  34.9271223  83.4644679 108.4131301  34.2346881
  83.8981185 108.3206590  35.0829935  84.1776259 108.3888802  33.5966897
  72.3777729 109.6315300  31.4167614  73.1718328 109.1365620  31.2150189
  71.6669421 109.1033163  31.0535319  77.1972574 112.0133395  35.7679981
  77.2509596 112.5824332  36.5357697  76.3287355 112.1835280  35.4034019
  68.6860493 103.7758381  27.4927366  67.7558081 103.7142837  27.7097329
  68.7817965 103.2534334  26.6964008  68.6046042 100.3013194  30.0805608
  68.8652859 101.2158528  29.9714769  69.4263214  99.8337637  30.2302221
  70.0770967 101.7150951  37.2504433  70.7494020 101.5068314  36.6017082
  69.2500753 101.5173037  36.8109665  84.3260228 108.4555002  36.7679766
  84.5196118 109.3600812  37.0139041  84.2260846 107.9962421  37.6018351
  75.9796539  98.3412892  39.2670094  75.3324454  99.0402842  39.1734570
  76.7497554  98.7749036  39.6346342  79.3875337 108.6061745  42.3420647
  79.2360843 108.3772296  41.4250731  79.3780016 109.5632346  42.3551992
  76.1560673 106.1793657  37.3266913  77.0852733 106.3304817  37.1535881
  75.7351703 106.2677678  36.4715560  74.9549005 110.2044322  35.0965451
  74.8160091 109.8363106  35.9691389  74.1663601 110.7191961  34.9249409
  75.5497157 115.3053418  26.4390987  75.7248913 114.8341461  27.2536610
  74.8629945 115.9319184  26.6672248  76.5054220 109.5825924  32.4854289
  76.1704053 109.5426694  33.3811939  76.0058166 108.9170640  32.0124699
  70.4798464 104.9893554  38.0106870  70.3418262 104.2573793  38.6118409
  71.3903388 104.9002455  37.7291058  73.1080765 104.7013514  37.4990549
  73.8180383 104.0606706  37.4577168  73.0650073 104.9526409  38.4216730
  81.0967544 111.6380867  40.4197129  81.0380090 110.9540087  39.7527712
  81.4987062 112.3799857  39.9677755  71.8209699 101.6878732  39.3186189
  71.2847056 101.2369470  39.9707785  71.2326407 101.8224640  38.5756653
  70.1158242 118.4542781  33.2130848  70.3554841 119.0861305  33.8909866
  69.2727439 118.1030821  33.4996207  71.2311958 101.1467383  21.8812653
  70.3541424 101.0256184  21.5174899  71.7069711 100.3553461  21.6291541
  81.0984951 109.6020451  38.6511108  80.2111730 109.2646373  38.7737507
  81.6683502 108.8703482  38.8879874  62.7514098 105.9344543  31.9754160
  63.4385138 105.6206273  31.3875175  62.5962227 106.8385907  31.7021411
  67.5548820 100.8234739  36.4039183  67.4707009 100.2160409  35.6689593
  66.7331526 101.3143758  36.4048680  74.6286104 114.2621903  35.6172352
  74.5556276 115.0676875  36.1291656  74.1863497 114.4613869  34.7920373
  74.4175884 113.4993673  29.1275173  73.6343406 114.0415354  29.2213398
  75.1168629 114.0167653  29.5269414  77.7272534  99.3088303  31.7709378
  78.2241233  98.5558265  31.4510449  76.9559515  99.3452620  31.2052588
  85.5802291 105.0128668  33.4127670  85.5692168 105.8953384  33.0421603
  84.7119671 104.6600219  33.2182207  77.0884788 114.1608737  37.7730510
  77.8012760 114.7956202  37.7006412  76.5974816 114.2572603  36.9570512
  78.8102315 108.0659990  29.3447802  77.8758593 108.1861453  29.1752506
  78.9878983 107.1632457  29.0807812  74.3107503 101.4505686  31.4981063
  73.9405290 100.8976726  32.1861969  74.8066595 100.8463819  30.9456063
  82.1974866 103.9077309  29.8797836  82.6635318 104.7405301  29.8058139
  82.6482366 103.4422291  30.5843095  72.1396701 111.9103181  38.5936081
  72.8406161 112.5439664  38.7465475  71.6691816 112.2517912  37.8331720
  80.2651097 110.2521131  26.8783988  80.5410941 110.1377725  27.7877862
  79.3955596 109.8538616  26.8396161  80.1691529  96.2757896  33.9188737
  79.2554609  96.5062123  34.0870944  80.5984630  96.3596340  34.7702770
  79.9397987 104.4647788  36.4188631  79.2869437 104.7123696  35.7641084
  80.3178367 103.6511927  36.0851109  76.9005161 114.5007481  30.5216802
  77.0827556 113.6829137  30.9844554  77.7238147 114.7175174  30.0841692
  77.2347327 113.4275667  27.7831850  77.7635093 112.9168121  27.1702012
  77.4975546 113.1118197  28.6477383  75.9885560 105.2067599  42.9054668
  75.3126197 105.1061729  43.5757044  76.8113194 105.0506813  43.3690666
  67.7364419 111.4439536  35.5267184  68.3217856 110.6983224  35.6595088
  67.5389258 111.7543493  36.4103848  70.5903075 114.4790783  30.5429626
  69.9213450 114.9636911  30.0593666  70.4515944 114.7260004  31.4573005
  62.3282074 104.0145136  34.2471627  62.3666174 103.4808727  35.0408745
  61.8222367 103.4880342  33.6282604  74.7308343 116.5134527  37.1412284
  75.2826651 116.6766148  37.9061370  75.0714537 117.1038965  36.4692309
  69.7072836  98.8609677  37.7434169  69.7714163  99.7224508  37.3311567
  69.6439957  98.2483678  37.0106528  69.1825109 100.9332809  41.3907203
  69.8097148 100.5509886  42.0044728  68.3253028 100.7147011  41.7562896
  79.5819217 111.3395784  42.9960939  80.1259121 111.9525743  42.5015894
  79.0006062 111.8975363  43.5127952  65.9590652 102.7409238  27.3225558
  66.2544093 101.8319917  27.2692612  65.0578687 102.7196978  27.0006561
  77.8676730 114.4616502  34.1275967  77.7427870 113.6606242  33.6186912
  78.5255822 114.9562696  33.6389937  69.4884899 100.8165235  33.3053107
  68.7671484 101.4301203  33.1660580  70.2778154 101.3523000  33.2269753
  79.9311639 112.2625522  35.7555517  78.9841974 112.1430874  35.6833843
  80.2794412 111.3748020  35.8381778  72.2911212  98.1519661  39.5793759
  72.8145614  98.3981958  40.3420068  72.0723545  98.9839696  39.1596896
  67.6878493 100.4223336  27.4464883  67.3591199  99.5420715  27.2639989
  68.0417864 100.3671005  28.3341273  76.9358072 112.0578239  31.9559869
  76.7883035 111.1294946  32.1367439  77.7611566 112.0798329  31.4716944
  70.8020316 100.7096306  27.8140361  71.1416389 101.2382227  27.0918969
  71.2492437 101.0476712  28.5898928  80.5392194 112.8806797  33.0424742
  81.4638741 112.6749659  32.9049193  80.3707497 112.6323199  33.9514083
  73.4963757  99.0933356  37.2643429  73.1560578  98.2941170  37.6664109
  72.7902763  99.3935067  36.6920262  74.1480229  96.1782669  35.7170752
  74.9706298  95.7043147  35.5949642  74.3918293  96.9573153  36.2169438
  72.7888464  99.2070927  26.0133654  73.5096826  99.5852180  25.5097371
  72.1653768  99.9259804  26.1168632  76.9319586  99.9116076  26.9491986
  77.1483201 100.7940714  26.6480814  76.4513654  99.5202290  26.2197628
  71.6718808 102.8701790  33.5262731  71.5263389 103.1842093  34.4187012
  71.1944011 103.4886690  32.9733629  73.5315191  99.8604338  33.5743620
  73.5176759  98.9645431  33.2375918  74.2487619  99.8675001  34.2081906
  75.3841321 100.2941678  35.6196748  75.1259099 101.2158748  35.6181078
  74.8526362  99.8972112  36.3097212  80.3287510 113.3992465  28.3986833
  80.5024388 112.8338887  27.6460686  80.8216401 114.1993360  28.2166323
  66.1464470 105.4107134  36.4650392  65.6017938 106.1866942  36.5970666
  67.0243820 105.7577938  36.3069513  72.9352087  98.7418718  28.8431190
  73.0567998  97.8135364  29.0422078  72.6454129  98.7557404  27.9309506
  75.8043277  96.4273628  31.9797910  75.8264974  96.4912961  31.0249890
  76.2211336  95.5878137  32.1738416  86.1826901 106.1628888  30.0177133
  86.6258047 105.4136213  29.6196256  85.3053412 106.1539024  29.6350865
  66.9330492 104.5377030  39.3580549  66.1912228 104.6859666  39.9445179
  66.6123236 104.7985296  38.4947298  74.8774154 114.0793008  39.1560939
  75.1861281 113.8342155  40.0283638  75.6749636 114.2839647  38.6679809
  74.8994767 116.2330918  31.3866315  74.4599757 115.7407297  32.0799172
  75.6502883 115.6903886  31.1458391  67.3787105 112.4242459  31.3890943
  68.2045125 112.1246231  31.0089587  67.0281157 111.6550081  31.8380732
  72.3468639 111.7768927  33.4588617  71.7248648 111.1139632  33.1590845
  73.0173506 111.8030059  32.7762265  65.5795711 110.3428785  32.3479877
  64.7427619 109.9150960  32.1663878  65.5519356 110.5361229  33.2850668
  72.4193166 100.2550715  43.0521123  72.4681322 101.1312838  42.6698893
  72.9615680  99.7128108  42.4792766  82.9048012 110.7991838  42.3322260
  82.1143556 110.7815977  41.7926760  82.6681366 111.3380132  43.0871297
  83.0245887 107.6484305  39.6454989  83.0743892 107.4834312  40.5870511
  82.9159810 106.7811564  39.2552869  71.9082146 110.3272850  26.9347078
  72.0570266 111.0108315  26.2813750  72.7148589 110.3077941  27.4496533
  80.3149649 103.6315233  40.9614295  81.2159512 103.4921698  40.6698293
  80.3897624 103.7969688  41.9012473  74.6492455 101.0082088  39.8067482
  73.7795764 101.3015654  39.5350070  74.8851935 101.5922533  40.5274745
  84.5264084 110.0681246  39.8897010  84.2348892 110.4311227  40.7260471
  83.9136215 109.3548255  39.7110342  85.7259766 107.6334126  32.4099580
  86.5606657 108.0723930  32.5737141  85.8618895 107.1572779  31.5907826
  82.7751272 105.1913861  38.3577068  83.2505394 105.3841507  37.5495920
  81.8516837 105.2473047  38.1120452  69.6634779 106.3538028  27.9408146
  69.4180820 105.4500358  28.1388357  69.8330693 106.3555179  26.9987624
  77.3531488  97.2261704  37.3232902  77.8713432  97.9622731  36.9979391
  76.9986621  97.5325698  38.1579661  68.9330426 102.0866386  25.4394308
  68.2399671 102.1610741  24.7834344  68.6882178 101.3226729  25.9615825
  77.6044083  93.6461987  32.8433799  77.8845836  92.9785176  33.4694225
  78.3894690  93.8391083  32.3308463  81.4752941 102.0679621  36.5905374
  82.4270364 102.1677719  36.6117598  81.3056391 101.2757890  37.1003458
  79.4967320  99.1535204  36.7764775  78.9017253  99.4340217  36.0811263
  79.2117017  99.6429105  37.5481516  83.9541019 105.2885741  35.7047673
  83.9217339 104.3501741  35.8907357  84.5641642 105.3669777  34.9713498
  75.7924350 104.1581794  21.7474878  76.7383454 104.0288002  21.8163296
  75.4138595 103.4196456  22.2244306  84.1035507 102.0796784  35.7505957
  83.5874556 101.2955241  35.5635886  84.9875456 101.7515501  35.9152476
  81.7646234  95.8237800  31.7101769  81.5671055  95.5152888  32.5945101
  82.3745940  96.5499439  31.8399699  89.7717569 106.3501748  34.8453710
  90.5020957 106.0887036  35.4061414  89.1624514 105.6130469  34.8855778
  87.8532866 104.4909610  35.4428161  87.1266029 104.3565575  34.8344653
  87.4380153 104.7986439  36.2484879  75.6763042 108.2099540  43.2075534
  76.5966052 108.3878139  43.4015581  75.6412625 107.2655585  43.0555234
  73.9767267 102.0831770  21.6829763  73.0698722 101.7864883  21.7592476
  74.2543248 101.7861588  20.8164049  64.8945207 103.4038133  32.1328809
  64.5747991 102.5503442  31.8403183  64.3478635 103.6186712  32.8886776
  68.6725115 106.1200574  35.8498316  68.8911124 107.0517682  35.8686349
  69.0850888 105.7608549  36.6353119  75.5929332  96.6268660  27.8374004
  74.7830061  96.2815745  28.2129250  76.2813749  96.3176204  28.4261616
  77.5219881  95.7046707  29.4598301  78.0750919  96.1242160  30.1188324
  77.7589967  94.7782455  29.5021257  73.5452980 101.6933780  45.2401065
  73.4449707 102.6428137  45.1713156  73.3274522 101.3652019  44.3677135
  72.7466051  98.9418705  21.8241742  73.6085215  99.2673604  22.0837559
  72.9316396  98.1550201  21.3114808  64.7633467 107.0241045  34.1021931
  64.0696939 106.6094998  33.5891885  65.5106458 107.0661581  33.5055350
  80.8998688  97.8147232  28.9676965  80.3197357  98.4732036  28.5855017
  80.6334621  96.9924576  28.5564382  79.3502254  97.2152289  31.1698285
  79.8502033  97.3268824  30.3612604  79.9937862  96.9113342  31.8099094
  73.4084250 105.1230919  44.0566126  72.9251332 105.9231279  44.2630015
  73.4945189 105.1338864  43.1033570  66.6770210 106.9559299  31.9787946
  66.6540898 107.0546986  31.0269829  66.9870846 107.8024450  32.3005112
  69.3357588 109.0135454  36.0934560  70.2900841 108.9819396  36.0264492
  69.1370111 108.5526078  36.9084786  69.9256970 107.5836570  38.6605358
  70.7449859 108.0780648  38.6840195  70.1993777 106.6668538  38.6322925
  79.6823566  99.9747322  28.0233313  78.7949421 100.2596973  27.8053508
  80.0977555  99.8141086  27.1760590  83.0338102  99.9993843  31.7387652
  83.8098492 100.4890296  32.0112269  82.3086236 100.4251897  32.1959522
  85.4710661 100.7121462  32.7961593  86.0655151 100.4717198  32.0854901
  85.5437244  99.9928593  33.4235129  67.6907816 114.5555073  33.1104758
  67.5562284 113.7955474  32.5442756  67.2739879 115.2795973  32.6433547
  79.6564590 105.4901858  28.2383603  79.5999791 105.9470409  27.3991236
  80.2092932 104.7292543  28.0606446  83.4669396 101.2791590  29.0633723
  83.2106330 100.8788226  29.8941931  82.8422264 101.9935384  28.9383862
  87.7781733 104.0187663  31.5705014  87.2181291 104.0880852  32.3436576
  87.1725237 103.8428648  30.8504510  70.8476942 115.4524390  33.3223201
  70.7309326 116.3969823  33.2201891  70.0269388 115.1497952  33.7109000
  80.3899369 106.6806639  25.5336133  80.3348173 106.5150911  24.5924577
  79.7645424 107.3882672  25.6898322  65.1791884 101.9174704  39.3597555
  65.8250748 101.4073658  39.8484780  64.9709035 102.6543385  39.9340980
  77.7045276 108.9855551  44.8589695  78.5736436 109.1596203  44.4976330
  77.2252028 109.8049968  44.7365425  73.6995494  96.1814748  25.1121451
  73.6874164  97.1256588  25.2689722  74.5918916  95.9984894  24.8180912
  71.8731456 116.1052652  36.5379129  72.7758703 116.1376262  36.8545624
  71.6468826 115.1753103  36.5525465  73.6285058 114.8583639  33.1989208
  72.6780689 114.8585500  33.0853580  73.9317544 114.1116373  32.6825242
  77.5147614  92.7757525  29.3667388  76.7480010  92.2216012  29.5124070
  77.9258319  92.8479394  30.2281539  69.5189375  99.0642321  43.4572569
  70.3820836  98.7079126  43.6675894  68.9454786  98.7256216  44.1447973
  86.1727458 120.6471605  34.1996495  85.8345970 120.5312670  33.3117030
  87.0417226 120.2462770  34.1797501  86.6547241 121.8006457  40.1582700
  86.6435882 121.4059255  39.2863204  86.8167881 121.0672530  40.7516472
  83.3754502 124.5843569  39.1061884  83.0844368 125.4889200  38.9908550
  84.0111487 124.6260096  39.8205954  84.3010709 121.9620417  35.6963244
  84.8974281 121.7376440  34.9820207  84.3585681 121.2205163  36.2988692
  91.8412868 112.0692438  36.7015765  91.5096193 112.9387849  36.4776980
  91.2458481 111.7528722  37.3809796  81.7856869 120.7218781  32.1348382
  80.8607365 120.5894995  32.3426074  82.0341282 121.5013000  32.6318325
  91.7341531 116.7887524  33.7809115  90.8258408 116.7202933  33.4867876
  91.6829127 117.2659469  34.6090941  79.1465680 120.3652055  32.9692171
  79.2758061 120.6186534  33.8831583  78.4663131 120.9579763  32.6496826
  85.8082397 118.2077170  41.7244012  85.0315731 118.7671090  41.7146877
  86.4472960 118.6933953  42.2458883  93.6003178 114.9903963  35.5586989
  92.9577558 115.2836496  34.9126784  93.0958106 114.8756883  36.3640186
  84.0628769 121.0162623  41.2861979  84.8043454 121.5547667  41.0096803
  83.3565755 121.6428912  41.4433531  85.8915179 118.0964371  37.2567698
  86.7376374 118.5203784  37.4002347  85.8313817 117.4397995  37.9506261
  89.0414624 115.7568739  38.9148872  88.7975556 116.5110800  38.3783147
  89.3174555 116.1354087  39.7496119  88.5979316 114.9125172  34.4962709
  87.7363795 115.2106426  34.7879447  88.6241751 115.1295571  33.5643742
  82.7990133 118.1702272  42.0877289  82.1688794 118.8518552  42.3212686
  82.6926221 118.0585353  41.1430428  78.0935105 117.8374068  33.0143214
  77.3034159 118.0931596  32.5383324  78.5846353 118.6522405  33.1195254
  76.3772808 118.0904558  35.4458204  76.6280847 118.9751568  35.7115780
  76.9132357 117.9109160  34.6733296  82.0770876 112.4723037  44.4502541
  81.6837821 111.9189236  45.1250185  82.8937016 112.7833616  44.8409058
  84.9938837 113.8880917  42.0422797  85.7348550 114.4888070  41.9627260
  85.2256759 113.1458554  41.4840840  80.1380175 119.0737284  40.3201027
  80.0233690 118.1722541  40.6208126  79.2824692 119.3200981  39.9685843
  88.9396000 109.9162019  36.3187079  88.5960269 110.8063661  36.2426189
  89.3074962 109.7263677  35.4556664  88.0192540 112.2866675  34.2836312
  87.5157336 112.2496810  33.4704117  88.3123147 113.1959417  34.3432969
  84.2635426 112.3705404  33.2902494  85.1288423 112.1748213  32.9308383
  84.3312935 112.1415756  34.2171850  81.8697745 114.6007612  30.6618861
  82.4441497 114.3782794  29.9292053  82.4568727 114.6696307  31.4147462
  84.1720413 111.4748861  29.3893930  83.5184825 111.1597878  28.7650545
  84.1300887 110.8524602  30.1153753  87.4058153 117.9630795  33.7141578
  86.4880714 118.1845742  33.5563266  87.8218297 118.0377105  32.8553285
  90.7383665 109.1755579  31.4204816  91.0442542 108.3152942  31.1330732
  91.4636270 109.7673199  31.2203810  77.0308021 119.5786265  29.8086414
  76.8332421 118.9855626  29.0837481  76.4754685 119.2738475  30.5262353
  88.5471317 118.5528256  38.5186280  88.9020704 118.7799729  39.3780746
  89.1943448 118.8846633  37.8963536  82.4411180 115.6604787  35.3032621
  83.0810559 115.5193546  34.6055585  81.6088710 115.3739300  34.9271223
  79.4439796 115.6305112  30.0805608  79.7046613 116.5450445  29.9714769
  80.2656968 115.1629555  30.2302221  80.9164721 117.0442869  37.2504433
  81.5887775 116.8360231  36.6017082  80.0894508 116.8464955  36.8109665
  86.8190293 113.6704810  39.2670094  86.1718208 114.3694760  39.1734570
  87.5891309 114.1040954  39.6346342  86.9954428 121.5085575  37.3266913
  87.9246488 121.6596735  37.1535881  86.5745458 121.5969596  36.4715560
  81.3192219 120.3185472  38.0106870  81.1812017 119.5865711  38.6118409
  82.2297142 120.2294372  37.7291058  83.9474519 120.0305431  37.4990549
  84.6574138 119.3898624  37.4577168  83.9043828 120.2818326  38.4216730
  82.6603453 117.0170649  39.3186189  82.1240810 116.5661388  39.9707785
  82.0720162 117.1516558  38.5756653  73.5907852 121.2636460  31.9754160
  74.2778892 120.9498190  31.3875175  73.4355981 122.1677825  31.7021411
  78.3942575 116.1526657  36.4039183  78.3100763 115.5452327  35.6689593
  77.5725281 116.6435675  36.4048680  88.5666288 114.6380221  31.7709378
  89.0634988 113.8850183  31.4510449  87.7953270 114.6744537  31.2052588
  85.1501257 116.7797604  31.4981063  84.7799045 116.2268644  32.1861969
  85.6460350 116.1755737  30.9456063  91.0085283 111.6049814  33.9188737
  90.0948363 111.8354041  34.0870944  91.4378385 111.6888258  34.7702770
  90.7791742 119.7939706  36.4188631  90.1263192 120.0415613  35.7641084
  91.1572122 118.9803844  36.0851109  86.8279315 120.5359517  42.9054668
  86.1519952 120.4353646  43.5757044  87.6506949 120.3798731  43.3690666
  78.5758174 126.7731454  35.5267184  79.1611611 126.0275141  35.6595088
  78.3783012 127.0835410  36.4103848  73.1675829 119.3437054  34.2471627
  73.2059928 118.8100644  35.0408745  72.6616121 118.8172259  33.6282604
  80.5466591 114.1901594  37.7434169  80.6107917 115.0516425  37.3311567
  80.4833711 113.5775596  37.0106528  80.0218863 116.2624727  41.3907203
  80.6490902 115.8801804  42.0044728  79.1646782 116.0438929  41.7562896
  80.3278653 116.1457153  33.3053107  79.6065239 116.7593120  33.1660580
  81.1171909 116.6814917  33.2269753  83.1304967 113.4811579  39.5793759
  83.6539368 113.7273876  40.3420068  82.9117300 114.3131614  39.1596896
  84.3357512 114.4225274  37.2643429  83.9954332 113.6233087  37.6664109
  83.6296518 114.7226985  36.6920262  84.9873984 111.5074587  35.7170752
  85.8100053 111.0335065  35.5949642  85.2312047 112.2865070  36.2169438
  82.5112562 118.1993707  33.5262731  82.3657143 118.5134010  34.4187012
  82.0337766 118.8178608  32.9733629  84.3708945 115.1896255  33.5743620
  84.3570514 114.2937348  33.2375918  85.0881373 115.1966919  34.2081906
  86.2235076 115.6233595  35.6196748  85.9652854 116.5450666  35.6181078
  85.6920116 115.2264030  36.3097212  76.9858224 120.7399052  36.4650392
  76.4411693 121.5158860  36.5970666  77.8637574 121.0869856  36.3069513
  86.6437031 111.7565546  31.9797910  86.6658728 111.8204879  31.0249890
  87.0605090 110.9170055  32.1738416  77.7724246 119.8668948  39.3580549
  77.0305982 120.0151583  39.9445179  77.4516991 120.1277213  38.4947298
  83.2586921 115.5842633  43.0521123  83.3075076 116.4604756  42.6698893
  83.8009435 115.0420026  42.4792766  91.1543404 118.9607150  40.9614295
  92.0553267 118.8213615  40.6698293  91.2291378 119.1261605  41.9012473
  85.4886209 116.3374005  39.8067482  84.6189518 116.6307571  39.5350070
  85.7245689 116.9214450  40.5274745  88.1925243 112.5553622  37.3232902
  88.7107187 113.2914649  36.9979391  87.8380376 112.8617615  38.1579661
  88.4437837 108.9753905  32.8433799  88.7239591 108.3077094  33.4694225
  89.2288444 109.1683000  32.3308463  92.3146695 117.3971539  36.5905374
  93.2664118 117.4969636  36.6117598  92.1450146 116.6049807  37.1003458
  90.3361075 114.4827122  36.7764775  89.7411007 114.7632135  36.0811263
  90.0510772 114.9721023  37.5481516  94.9429262 117.4088702  35.7505957
  94.4268310 116.6247158  35.5635886  95.8269210 117.0807418  35.9152476
  92.6039989 111.1529717  31.7101769  92.4064810 110.8444806  32.5945101
  93.2139694 111.8791356  31.8399699  75.7338962 118.7330051  32.1328809
  75.4141746 117.8795359  31.8403183  75.1872390 118.9478629  32.8886776
  79.5118869 121.4492492  35.8498316  79.7304879 122.3809600  35.8686349
  79.9244643 121.0900467  36.6353119  88.3613635 111.0338624  29.4598301
  88.9144674 111.4534078  30.1188324  88.5983722 110.1074372  29.5021257
  84.3846734 117.0225698  45.2401065  84.2843461 117.9720055  45.1713156
  84.1668277 116.6943937  44.3677135  75.6027222 122.3532963  34.1021931
  74.9090693 121.9386915  33.5891885  76.3500213 122.3953499  33.5055350
  84.2478005 120.4522837  44.0566126  83.7645086 121.2523197  44.2630015
  84.3338944 120.4630782  43.1033570  77.5163964 122.2851216  31.9787946
  77.4934652 122.3838904  31.0269829  77.8264601 123.1316367  32.3005112
  80.1751342 124.3427371  36.0934560  81.1294596 124.3111314  36.0264492
  79.9763866 123.8817995  36.9084786  80.7650724 122.9128487  38.6605358
  81.5843613 123.4072566  38.6840195  81.0387532 121.9960456  38.6322925
  76.0185638 117.2466621  39.3597555  76.6644502 116.7365575  39.8484780
  75.8102790 117.9835303  39.9340980  88.3541368 108.1049443  29.3667388
  87.5873764 107.5507929  29.5124070  88.7652073 108.1771311  30.2281539
  80.3583129 114.3934238  43.4572569  81.2214591 114.0371043  43.6675894
  79.7848540 114.0548133  44.1447973  25.3850446  11.6998319  29.7206246
  25.9290350  12.3128277  29.2261200  24.8037291  12.2577897  30.2373259
  28.7079241  11.1594373  29.0567567  27.9174784  11.1418511  28.5172066
  28.4712595  11.6982666  29.8116603  23.5076505   9.3458085  31.5835002
  24.3767665   9.5198738  31.2221637  23.0283256  10.1652502  31.4610731
  35.1668981  21.0546711  20.9880277  35.8047391  20.9353459  20.2843617
  35.0489824  22.0027555  21.0468229  32.4578470  22.1608991  26.8828007
  32.4467111  21.7661789  26.0108511  32.6199109  21.4275064  27.4761778
  29.1785731  24.9446103  25.8307191  28.8875597  25.8491734  25.7153857
  29.8142715  24.9862631  26.5451260  30.1041938  22.3222951  22.4208550
  30.7005510  22.0978974  21.7065513  30.1616909  21.5807697  23.0233998
  40.1218676  18.7173398  18.9666463  40.8543848  18.1472615  19.2004293
  39.3658032  18.3294999  19.4072969  37.6444097  12.4294972  23.4261072
  37.3127421  13.2990383  23.2022287  37.0489710  12.1131256  24.1055102
  34.1375616  24.6307518  22.8256985  33.8376339  25.5332557  22.7172792
  33.7926676  24.3639702  23.6778137  29.1196396  31.3951839  15.7927952
  29.0420426  32.3459664  15.8716433  28.5158040  31.0497711  16.4502879
  31.6113626  18.5679704  28.4489319  30.8346960  19.1273624  28.4392184
  32.2504189  19.0536487  28.9704189  39.4034406  15.3506497  22.2832296
  38.7608787  15.6439030  21.6372090  38.8989335  15.2359417  23.0885492
  29.8659998  21.3765158  28.0107286  30.6074682  21.9150202  27.7342110
  29.1596983  22.0031446  28.1678838  35.3415338  23.5194298  26.6079448
  35.7498694  23.0776709  25.8634080  34.6192599  22.9446926  26.8613640
  31.6946408  18.4566905  23.9813005  32.5407603  18.8806318  24.1247654
  31.6345045  17.8000529  24.6751568  35.6644152  24.0795489  20.3631736
  35.0353015  24.2441203  19.6607804  35.2769814  24.4937098  21.1342701
  39.5433384  25.0149927  17.7176100  38.8584422  25.3948828  17.1673134
  39.6277234  25.6245253  18.4508048  34.8445853  16.1171273  25.6394178
  34.6006785  16.8713334  25.1028454  35.1205784  16.4956621  26.4741425
  36.7984316  22.6609886  24.3171444  37.0101211  23.3041645  23.6405825
  36.7514064  21.8272202  23.8493374  28.6021362  18.5304806  28.8122596
  27.9720022  19.2121087  29.0457993  28.4957450  18.4187887  27.8675734
  37.9130144  25.5381841  22.4893801  38.7347587  25.1362028  22.2076483
  37.9092547  25.4350075  23.4409917  31.6786747  25.0865884  24.6454512
  31.7431180  25.5486292  25.4812683  30.9697671  24.4563249  24.7736821
  46.0036137  21.8820589  18.8378773  45.2499845  21.3127988  18.6822777
  46.1383678  21.8483254  19.7849407  27.8802104  12.8325572  31.1747847
  27.4869050  12.2791770  31.8495491  28.6968245  13.1436150  31.5654365
  30.7970065  14.2483451  28.7668104  31.5379779  14.8490604  28.6872566
  31.0287988  13.5061089  28.2086146  25.9411403  19.4339818  27.0446333
  25.8264919  18.5325075  27.3453432  25.0855921  19.6803515  26.6931150
  33.0203241  27.3757558  28.6433834  32.5767095  26.5893937  28.3254739
  33.6820455  27.5636709  27.9777725  27.7790362  28.9053360  23.1694513
  28.3297788  28.7770423  22.3971506  26.9401838  29.2048249  22.8189405
  35.1184479  27.6560358  26.6715235  35.1002955  28.4769239  26.1795504
  36.0404399  27.5314433  26.8965376  31.5757533  25.1704488  27.5138744
  32.1085870  24.4092776  27.2838052  31.0471615  24.8778140  28.2562898
  37.9203092  22.4939501  20.1424602  37.2626767  23.1838762  20.2304731
  38.7243491  22.8835933  20.4858588  37.4970347  25.8289875  16.3207686
  37.0432674  24.9880785  16.3772877  36.8664314  26.4651273  16.6582467
  35.9403286  27.6666372  17.2557504  36.2326261  28.2271429  16.5369870
  36.4501907  27.9594932  18.0110664  30.9036912  28.4446723  18.3450958
  30.8613090  28.6707569  17.4159490  31.8199610  28.2110097  18.4936759
  34.3502545  18.9130790  25.2431587  34.7051933  19.1402263  26.1026053
  34.9974677  19.2449167  24.6208842  40.1069662  24.1025753  20.9592187
  40.5406169  24.0101042  21.8075241  40.8201243  24.0783253  20.3212203
  33.8397557  27.7027847  22.4925288  33.8934579  28.2718783  23.2603004
  32.9712338  27.8729732  22.1279325  40.9685212  24.1449454  23.4925073
  41.1621102  25.0495264  23.7384348  40.8685830  23.6856873  24.3263658
  32.6221522  14.0307344  25.9915400  31.9749437  14.7297294  25.8979877
  33.3922538  14.4643488  26.3591648  36.0300320  24.2956196  29.0665953
  35.8785827  24.0666748  28.1496037  36.0205000  25.2526798  29.0797298
  32.7985657  21.8688109  24.0512220  33.7277717  22.0199269  23.8781187
  32.3776687  21.9572130  23.1960866  31.5973988  25.8938774  21.8210758
  31.4585074  25.5257558  22.6936696  30.8088585  26.4086413  21.6494715
  33.1479204  25.2720376  19.2099595  32.8129036  25.2321146  20.1057245
  32.6483149  24.6065092  18.7370006  27.1223448  20.6788006  24.7352176
  26.9843245  19.9468245  25.3363716  28.0328371  20.5896906  24.4536364
  29.7505748  20.3907966  24.2235856  30.4605367  19.7501158  24.1822475
  29.7075056  20.6420860  25.1462037  37.7392527  27.3275319  27.1442435
  37.6805073  26.6434539  26.4773018  38.1412045  28.0694309  26.6923061
  28.4634682  17.3773184  26.0431496  27.9272039  16.9263922  26.6953092
  27.8751391  17.5119092  25.3001960  26.7583226  34.1437233  19.9376154
  26.9979824  34.7755757  20.6155173  25.9152422  33.7925273  20.2241513
  37.7409934  25.2914903  25.3756415  36.8536713  24.9540825  25.4982814
  38.3108485  24.5597934  25.6125180  31.2711088  29.9516355  22.3417658
  31.1981259  30.7571327  22.8536963  30.8288481  30.1508321  21.5165680
  42.2227275  20.7023120  20.1372977  42.2117151  21.5847836  19.7666910
  41.3544654  20.3494671  19.9427514  33.7309771  29.8503189  24.4975817
  34.4437743  30.4850654  24.4251718  33.2399800  29.9467055  23.6815819
  28.7821685  27.5997633  25.3181388  29.4831144  28.2334116  25.4710782
  28.3116800  27.9412364  24.5577027  36.5822971  20.1542240  23.1433938
  35.9294421  20.4018148  22.4886391  36.9603350  19.3406378  22.8096415
  33.5430144  30.1901933  17.2462108  33.7252539  29.3723589  17.7089861
  34.3663130  30.4069626  16.8086998  32.6310544  20.8962051  29.6299975
  31.9551181  20.7956181  30.3002350  33.4538177  20.7401265  30.0935972
  24.3789403  27.1333988  22.2512490  24.9642839  26.3877676  22.3840395
  24.1814241  27.4437945  23.1349154  31.3733326  32.2028979  23.8657591
  31.9251634  32.3660600  24.6306676  31.7139520  32.7933417  23.1937616
  25.8250092  16.6227261  28.1152510  26.4522131  16.2404338  28.7290034
  24.9678011  16.4041463  28.4808203  36.2244201  27.0290236  29.7206246
  36.7684105  27.6420195  29.2261200  35.6431046  27.5869815  30.2373259
  34.5101714  30.1510954  20.8521273  34.3852853  29.3500694  20.3432219
  35.1680805  30.6457148  20.3635243  36.5736622  27.9519974  22.4800823
  35.6266958  27.8325326  22.4079150  36.9219395  27.0642472  22.5627085
  28.9336195  13.8414113  26.3039065  29.4570597  14.0876410  27.0665375
  28.7148529  14.6734148  25.8842203  33.5783055  27.7472691  18.6805176
  33.4308018  26.8189398  18.8612746  34.4036549  27.7692781  18.1962251
  37.1817177  28.5701249  19.7670048  38.1063725  28.3644111  19.6294499
  37.0132481  28.3217650  20.6759390  36.9712493  29.0886917  15.1232140
  37.1449371  28.5233339  14.3705992  37.4641385  29.8887812  14.9411630
  42.8251885  21.8523340  16.7422440  43.2683031  21.1030665  16.3441563
  41.9478395  21.8433476  16.3596172  23.5755475  20.2271482  26.0825855
  22.8337211  20.3754117  26.6690486  23.2548219  20.4879748  25.2192605
  31.5199138  29.7687460  25.8806245  31.8286264  29.5236607  26.7528945
  32.3174620  29.9734099  25.3925116  31.5419750  31.9225370  18.1111622
  31.1024740  31.4301749  18.8044479  32.2927867  31.3798338  17.8703697
  28.9893622  27.4663379  20.1833924  28.3673631  26.8034084  19.8836152
  29.6598489  27.4924511  19.5007571  29.0618149  15.9445167  29.7766430
  29.1106305  16.8207290  29.3944199  29.6040664  15.4022560  29.2038073
  39.5472995  26.4886290  29.0567567  38.7568539  26.4710429  28.5172066
  39.3106350  27.0274584  29.8116603  39.6670870  23.3378757  26.3700295
  39.7168875  23.1728764  27.3115818  39.5584794  22.4706016  25.9798176
  36.9574633  19.3209685  27.6859602  37.8584495  19.1816150  27.3943600
  37.0322607  19.4864140  28.6257779  31.2917438  16.6976539  26.5312788
  30.4220747  16.9910106  26.2595377  31.5276918  17.2816984  27.2520052
  41.1689067  25.7575698  26.6142317  40.8773875  26.1205679  27.4505778
  40.5561198  25.0442706  26.4355649  42.3684749  23.3228578  19.1344887
  43.2031641  23.7618382  19.2982447  42.5043878  22.8467231  18.3153133
  39.4176255  20.8808313  25.0822375  39.8930377  21.0735959  24.2741226
  38.4941821  20.9367499  24.8365759  38.1177924  17.7574073  23.3150680
  39.0695347  17.8572171  23.3362904  37.9481375  16.9652341  23.8248765
  36.1392304  14.8429656  23.5010081  35.5442236  15.1234669  22.8056570
  35.8542000  15.3323557  24.2726822  40.5966002  20.9780193  22.4292980
  40.5642322  20.0396193  22.6152664  41.2066626  21.0564229  21.6958805
  40.7460491  17.7691236  22.4751263  40.2299539  16.9849693  22.2881192
  41.6300439  17.4409953  22.6397783  46.4142552  22.0396199  21.5699017
  47.1445940  21.7781488  22.1306720  45.8049497  21.3024921  21.6101085
  44.4957849  20.1804062  22.1673468  43.7691013  20.0460027  21.5589960
  44.0805136  20.4880891  22.9730186  32.3188025  23.8993992  29.9320841
  33.2391035  24.0772591  30.1260888  32.2837608  22.9550037  29.7800540
  30.1877963  17.3828232  31.9646371  30.0874690  18.3322589  31.8958462
  29.9699505  17.0546471  31.0922441  30.0509233  20.8125371  30.7811433
  29.5676315  21.6125731  30.9875322  30.1370172  20.8233316  29.8278877
  25.9782571  24.7029906  22.8179867  26.9325824  24.6713848  22.7509798
  25.7795094  24.2420529  23.6330093  26.5681953  23.2731022  25.3850664
  27.3874842  23.7675100  25.4085502  26.8418761  22.3562990  25.3568232
  24.3332800  30.2449525  19.8350065  24.1987268  29.4849926  19.2688063
  23.9164862  30.9690425  19.3678853  44.4206717  19.7082115  18.2950321
  43.8606275  19.7775304  19.0681883  43.8150220  19.5323100  17.5749817
  27.4901925  31.1418842  20.0468507  27.3734310  32.0864275  19.9447197
  26.6694372  30.8392404  20.4354306  34.3470259  24.6750003  31.5835002
  35.2161419  24.8490655  31.2221637  33.8677011  25.4944420  31.4610731
  28.5156440  31.7947104  23.2624436  29.4183686  31.8270714  23.5790931
  28.2893810  30.8647555  23.2770771  30.2710042  30.5478091  19.9234514
  29.3205673  30.5479952  19.8098887  30.5742528  29.8010825  19.4070549
  26.1614358  14.7536773  30.1817876  27.0245820  14.3973578  30.3921200
  25.5879769  14.4150667  30.8693280  46.0062735  36.3838629  20.9880277
  46.6441145  36.2645376  20.2843617  45.8883578  37.3319473  21.0468229
  42.8152441  36.3366057  20.9241801  42.4770953  36.2207122  20.0362336
  43.6842210  35.9357222  20.9042807  38.6739257  38.1901534  16.9138692
  38.1104122  38.0991470  16.1454980  38.5591652  37.3701438  17.3941185
  43.2972224  37.4900909  26.8828007  43.2860865  37.0953707  26.0108511
  43.4592864  36.7566981  27.4761778  36.2203689  39.6852725  19.7522913
  37.0124981  39.3443550  19.3369212  36.4600339  39.7947700  20.6725066
  44.2538816  41.8572501  12.2253157  43.6026796  42.4426582  11.8387171
  45.0483179  42.3878696  12.2848195  38.1794443  38.9461638  12.6240292
  38.9525319  38.3990625  12.4853167  38.5319842  39.8105888  12.8354753
  40.0179486  40.2738021  25.8307191  39.7269352  41.1783651  25.7153857
  40.6536470  40.3154548  26.5451260  40.9435692  37.6514869  22.4208550
  41.5399265  37.4270892  21.7065513  41.0010664  36.9099615  23.0233998
  40.5160721  35.1054304  10.2558741  40.7686241  34.5835826   9.4942204
  39.5785280  34.9420450  10.3585425  45.5604004  34.1090083  18.0633485
  46.3467093  33.6909506  17.7123902  45.8242708  35.0136175  18.2315133
  45.7314081  39.5462933  12.7622141  45.0959914  39.6197560  13.4743046
  45.4011487  40.1356532  12.0841221  50.9612431  34.0465316  18.9666463
  51.6937603  33.4764533  19.2004293  50.2051786  33.6586916  19.4072969
  40.2357010  37.0082410  12.4583116  40.1193268  36.3327314  13.1264201
  40.3459269  36.5214784  11.6415269  42.5788550  36.4692558  16.1629806
  42.2146758  35.9423179  16.8742727  43.4355666  36.0791027  15.9896291
  48.4837851  27.7586890  23.4261072  48.1521176  28.6282301  23.2022287
  47.8883464  27.4423174  24.1055102  44.9769371  39.9599436  22.8256985
  44.6770094  40.8624475  22.7172792  44.6320430  39.6931619  23.6778137
  38.4281852  36.4113233  18.8593689  37.5032349  36.2789447  19.0671381
  38.6766265  37.1907452  19.3563631  48.3766514  32.4781976  20.5054422
  47.4683392  32.4097385  20.2113183  48.3254110  32.9553921  21.3336247
  42.1983258  33.9540115  12.1437821  42.0782884  34.3997166  12.9823301
  41.5035847  34.3025432  11.5851359  35.7890663  36.0546507  19.6937478
  35.9183044  36.3080985  20.6076890  35.1088114  36.6474215  19.3742133
  39.9590150  46.7243756  15.7927952  39.8814180  47.6751582  15.8716433
  39.3551794  46.3789629  16.4502879  42.4507380  33.8971622  28.4489319
  41.6740714  34.4565542  28.4392184  43.0897943  34.3828405  28.9704189
  50.2428161  30.6798415  22.2832296  49.6002541  30.9730948  21.6372090
  49.7383089  30.5651335  23.0885492  47.8968324  34.4261588  12.9718155
  48.8086181  34.6588975  12.7965853  47.3877972  35.0098632  12.4093234
  40.7053753  36.7057075  28.0107286  41.4468437  37.2442119  27.7342110
  39.9990738  37.3323364  28.1678838  46.1809092  38.8486216  26.6079448
  46.5892448  38.4068626  25.8634080  45.4586354  38.2738843  26.8613640
  42.5340162  33.7858823  23.9813005  43.3801357  34.2098236  24.1247654
  42.4738800  33.1292447  24.6751568  46.5037907  39.4087406  20.3631736
  45.8746769  39.5733121  19.6607804  46.1163569  39.8229016  21.1342701
  50.3827139  40.3441844  17.7176100  49.6978177  40.7240746  17.1673134
  50.4670988  40.9537171  18.4508048  45.6839608  31.4463191  25.6394178
  45.4400539  32.2005251  25.1028454  45.9599538  31.8248538  26.4741425
  47.6378070  37.9901803  24.3171444  47.8494966  38.6333563  23.6405825
  47.5907819  37.1564120  23.8493374  45.2404299  30.6019624  21.2208016
  44.3788778  30.9000877  21.5124753  45.2666734  30.8190023  20.2889049
  42.0565869  39.1461814  17.6281822  42.5204214  39.4249517  16.8386444
  41.7922667  38.2445259  17.4454912  38.9489950  38.6933296  20.5661585
  39.5191307  39.1220564  19.9279069  39.5398062  38.4115881  21.2645770
  40.9934755  35.2684967  14.4371387  41.6958798  35.7206010  14.9045313
  40.6615383  34.6268786  15.0651280  39.4415116  33.8596723  28.8122596
  38.8113777  34.5413004  29.0457993  39.3351204  33.7479805  27.8675734
  34.7360089  33.5268519  19.7388520  33.9459143  33.7826048  19.2628631
  35.2271336  34.3416857  19.8440561  48.7523898  40.8673759  22.4893801
  49.5741342  40.4653946  22.2076483  48.7486301  40.7641993  23.4409917
  36.6874834  33.8913099  16.6971997  35.8905997  34.0031793  17.2155493
  36.4600426  34.2299751  15.8312887  42.5180502  40.4157802  24.6454512
  42.5824934  40.8778209  25.4812683  41.8091426  39.7855167  24.7736821
  33.0197792  33.7799010  22.1703511  33.2705830  34.6646020  22.4361087
  33.5557340  33.6003611  21.3978603  56.8429891  37.2112507  18.8378773
  56.0893600  36.6419905  18.6822777  56.9777432  37.1775172  19.7849407
  42.2328519  42.0825909  14.5133492  42.0974194  42.9277445  14.9418340
  42.7738332  42.2845187  13.7499426  38.7195859  28.1617489  31.1747847
  38.3262805  27.6083688  31.8495491  39.5361999  28.4728068  31.5654365
  35.6857917  39.6001347  15.0861417  36.1982437  40.3944598  15.2366982
  36.3380630  38.9027638  15.0195018  37.4952801  42.7167104  17.1684170
  37.6719430  43.6385068  16.9805154  38.2909635  42.4025523  17.5978550
  41.6363820  29.5775368  28.7668104  42.3773533  30.1782522  28.6872566
  41.8681743  28.8353006  28.2086146  36.7805158  34.7631736  27.0446333
  36.6658673  33.8616993  27.3453432  35.9249676  35.0095432  26.6931150
  43.8596996  42.7049476  28.6433834  43.4160850  41.9185855  28.3254739
  44.5214209  42.8928626  27.9777725  38.6184117  44.2345278  23.1694513
  39.1691542  44.1062341  22.3971506  37.7795593  44.5340167  22.8189405
  45.9578234  42.9852276  26.6715235  45.9396709  43.8061157  26.1795504
  46.8798154  42.8606351  26.8965376  42.4151288  40.4996405  27.5138744
  42.9479625  39.7384694  27.2838052  41.8865369  40.2070057  28.2562898
  45.5820983  25.6056471  23.0432385  45.2385252  26.4958113  22.9671496
  45.9499946  25.4158129  22.1801970  33.6506834  37.9290002  15.8620988
  34.4882056  38.3387010  15.6454695  33.8285101  36.9889444  15.8321181
  45.5471266  35.5965082  11.5504821  45.0317889  36.3669687  11.7893208
  45.2748574  34.9230219  12.1737882  43.1318377  30.4414783  16.6090059
  42.2759973  30.0521634  16.4295698  43.5445328  30.5206744  15.7489844
  44.6617523  27.9761126  21.0081619  44.1582319  27.9391262  20.1949424
  44.9548130  28.8853869  21.0678275  40.9060409  28.0599856  20.0147800
  41.7713406  27.8642665  19.6553690  40.9737918  27.8310208  20.9417157
  50.5205540  38.3497437  13.4857994  49.7434983  38.0108597  13.0413156
  51.1997021  38.3550060  12.8112959  45.3357569  33.4692175  13.3764602
  45.0307704  33.7838324  14.2274745  46.2888011  33.5473594  13.4191935
  43.7804001  39.6282398  15.0257556  43.2525362  38.8935157  14.7130793
  43.2791503  40.4057074  14.7797524  48.7596847  37.8231418  20.1424602
  48.1020521  38.5130680  20.2304731  49.5637246  38.2127850  20.4858588
  38.5122728  30.2902064  17.3864167  39.0866480  30.0677246  16.6537360
  39.0993711  30.3590759  18.1392768  47.5702305  36.1775791  18.1928544
  48.0834187  36.8105783  18.6950253  48.2203529  35.5776987  17.8271904
  40.8145396  27.1643313  16.1139237  40.1609808  26.8492330  15.4895851
  40.7725870  26.5419054  16.8399060  41.9256601  37.4462608   8.0292529
  41.0183663  37.2151862   8.2283678  42.4227633  36.6500227   8.2166510
  44.8324680  46.1560115  10.9489215  44.1586378  46.4591812  11.5574173
  45.2190502  46.9589196  10.5994672  44.0483136  33.6525247  20.4386884
  43.1305698  33.8740194  20.2808572  44.4643280  33.7271557  19.5798592
  44.8318184  35.0516662  15.5689565  45.5790003  35.5638059  15.2596687
  45.1009774  34.7300715  16.4293958  43.1044834  37.5475203  12.5516519
  42.1956054  37.2634236  12.6488989  43.1339918  37.9674282  11.6919826
  48.3364102  41.1581792  16.3207686  47.8826429  40.3172702  16.3772877
  47.7058068  41.7943191  16.6582467  47.2797021  32.0873779  17.5508354
  46.5419778  31.5751165  17.8818596  47.5323795  31.6474160  16.7391631
  46.7797041  42.9958289  17.2557504  47.0720015  43.5563346  16.5369870
  47.2895661  43.2886850  18.0110664  47.3808649  24.8650031  18.1450123
  47.6867525  24.0047394  17.8576038  48.1061253  25.4567651  17.9449117
  33.6733005  35.2680717  16.5331721  33.4757404  34.6750078  15.8082788
  33.1179669  34.9632927  17.2507660  41.6529728  35.1603824  18.6526314
  41.7078338  34.2077660  18.5768791  40.8420930  35.3163263  19.1367613
  42.8020922  39.0883947   9.8904597  42.3640352  38.3719806   9.4310235
  43.5431363  39.3160061   9.3289689  39.5922088  33.7780883  16.4116693
  38.7789954  34.0775054  16.8181885  40.0881082  33.3836572  17.1291175
  41.7430666  43.7738640  18.3450958  41.7006845  43.9999487  17.4159490
  42.6593365  43.5402015  18.4936759  45.1896300  34.2422708  25.2431587
  45.5445688  34.4694181  26.1026053  45.8368431  34.5741085  24.6208842
  50.9194037  37.3641144  15.9480916  50.7811935  37.5542740  15.0202105
  50.5630256  38.1260527  16.4048967  39.0836163  31.3499239  22.0277928
  39.7235542  31.2087998  21.3300891  38.2513694  31.0633752  21.6516530
  50.9463416  39.4317671  20.9592187  51.3799923  39.3392960  21.8075241
  51.6594997  39.4075171  20.3212203  39.8596467  40.6501669  18.1412920
  40.6537065  40.1551989  17.9395495  39.1488159  40.1219532  17.7780626
  44.6791311  43.0319765  22.4925288  44.7328334  43.6010701  23.2603004
  43.8106093  43.2021650  22.1279325  36.1679230  34.7944751  14.2172673
  35.2376818  34.7329207  14.4342635  36.2636702  34.2720704  13.4209314
  36.0864779  31.3199564  16.8050915  36.3471597  32.2344897  16.6960075
  36.9081952  30.8524006  16.9547528  37.5589705  32.7337321  23.9749739
  38.2312758  32.5254683  23.3262388  36.7319491  32.5359407  23.5354972
  51.8078966  39.4741371  23.4925073  52.0014856  40.3787182  23.7384348
  51.7079584  39.0148790  24.3263658  43.4615277  29.3599262  25.9915400
  42.8143192  30.0589212  25.8979877  44.2316292  29.7935406  26.3591648
  46.8694075  39.6248114  29.0665953  46.7179581  39.3958666  28.1496037
  46.8598754  40.5818716  29.0797298  43.6379411  37.1980027  24.0512220
  44.5671471  37.3491186  23.8781187  43.2170441  37.2864048  23.1960866
  42.4367743  41.2230691  21.8210758  42.2978829  40.8549476  22.6936696
  41.6482339  41.7378331  21.6494715  43.0315895  46.3239788  13.1636294
  43.2067651  45.8527831  13.9781917  42.3448683  46.9505554  13.3917555
  43.9872958  40.6012294  19.2099595  43.6522791  40.5613064  20.1057245
  43.4876904  39.9357010  18.7370006  37.9617202  36.0079924  24.7352176
  37.8237000  35.2760163  25.3363716  38.8722125  35.9188824  24.4536364
  46.9232150  37.9468328   9.4836655  46.3061320  37.2215156   9.3869708
  46.4548638  38.7077689   9.1403729  40.5899503  35.7199883  24.2235856
  41.2999121  35.0793076  24.1822475  40.5468811  35.9712778  25.1462037
  48.5786281  42.6567237  27.1442435  48.5198827  41.9726457  26.4773018
  48.9805800  43.3986227  26.6923061  39.3028437  32.7065101  26.0431496
  38.7665794  32.2555840  26.6953092  38.7145145  32.8411010  25.3001960
  37.5976980  49.4729151  19.9376154  37.8373578  50.1047675  20.6155173
  36.7546177  49.1217191  20.2241513  48.5803689  40.6206821  25.3756415
  47.6930467  40.2832742  25.4982814  49.1502240  39.8889852  25.6125180
  30.2332836  36.9530912  18.6999466  30.9203876  36.6392642  18.1120482
  30.0780964  37.8572277  18.4266718  35.0367558  31.8421109  23.1284490
  34.9525747  31.2346778  22.3934900  34.2150264  32.3330127  23.1293986
  42.1104842  45.2808273  22.3417658  42.0375013  46.0863244  22.8536963
  41.6682235  45.4800239  21.5165680  41.8994622  44.5180043  15.8520480
  41.1162144  45.0601723  15.9458704  42.5987367  45.0354023  16.2514721
  45.2091272  30.3274672  18.4954685  45.7059971  29.5744635  18.1755755
  44.4378253  30.3638989  17.9297894  53.0621029  36.0315038  20.1372977
  53.0510905  36.9139753  19.7666910  52.1938409  35.6786589  19.9427514
  44.5703526  45.1795107  24.4975817  45.2831498  45.8142572  24.4251718
  44.0793554  45.2758973  23.6815819  46.2921052  39.0846360  16.0693109
  45.3577331  39.2047822  15.8997813  46.4697721  38.1818826  15.8053118
  41.7926240  32.4692055  18.2226370  41.4224028  31.9163096  18.9107275
  42.2885333  31.8650189  17.6701370  49.6793604  34.9263679  16.6043143
  50.1454056  35.7591671  16.5303445  50.1301104  34.4608661  17.3088401
  39.6215439  42.9289550  25.3181388  40.3224899  43.5626033  25.4710782
  39.1510554  43.2704282  24.5577027  47.7469835  41.2707500  13.6029295
  48.0229679  41.1564095  14.5123169  46.8774334  40.8724985  13.5641468
  47.6510267  27.2944266  20.6434044  46.7373346  27.5248493  20.8116251
  48.0803368  27.3782710  21.4948076  47.4216725  35.4834158  23.1433938
  46.7688175  35.7310065  22.4886391  47.7997105  34.6698296  22.8096415
  44.3823899  45.5193851  17.2462108  44.5646293  44.7015507  17.7089861
  45.2056885  45.7361543  16.8086998  44.7166064  44.4462036  14.5077157
  45.2453831  43.9354491  13.8947319  44.9794284  44.1304566  15.3722690
  43.4704298  36.2253969  29.6299975  42.7944935  36.1248098  30.3002350
  44.2931932  36.0693183  30.0935972  35.2183157  42.4625905  22.2512490
  35.8036594  41.7169593  22.3840395  35.0207996  42.7729862  23.1349154
  38.0721812  45.4977153  17.2674933  37.4032188  45.9823281  16.7838973
  37.9334682  45.7446373  18.1818311  29.8100812  35.0331506  20.9716934
  29.8484911  34.4995096  21.7654052  29.3041105  34.5066711  20.3527911
  42.2127081  47.5320896  23.8657591  42.7645389  47.6952518  24.6306676
  42.5533274  48.1225334  23.1937616  37.1891574  29.8796046  24.4679476
  37.2532901  30.7410877  24.0556874  37.1258694  29.2670048  23.7351834
  36.6643847  31.9519179  28.1152510  37.2915885  31.5696256  28.7290034
  35.8071766  31.7333381  28.4808203  47.0637955  42.3582154  29.7206246
  47.6077859  42.9712112  29.2261200  46.4824800  42.9161732  30.2373259
  33.4409389  33.7595608  14.0470865  33.7362831  32.8506286  13.9937919
  32.5397425  33.7383347  13.7251867  45.3495468  45.4802872  20.8521273
  45.2246608  44.6792612  20.3432219  46.0074559  45.9749065  20.3635243
  36.9703636  31.8351604  20.0298413  36.2490222  32.4487572  19.8905887
  37.7596892  32.3709369  19.9515059  47.4130377  43.2811892  22.4800823
  46.4660712  43.1617243  22.4079150  47.7613150  42.3934390  22.5627085
  39.7729950  29.1706031  26.3039065  40.2964352  29.4168327  27.0665375
  39.5542283  30.0026066  25.8842203  35.1697231  31.4409706  14.1710190
  34.8409937  30.5607084  13.9885296  35.5236602  31.3857374  15.0586579
  44.4176810  43.0764608  18.6805176  44.2701772  42.1481316  18.8612746
  45.2430303  43.0984699  18.1962251  38.2839054  31.7282675  14.5385668
  38.6235127  32.2568597  13.8164276  38.7311175  32.0663081  15.3144234
  48.0210932  43.8993167  19.7670048  48.9457479  43.6936028  19.6294499
  47.8526235  43.6509568  20.6759390  40.9782495  30.1119726  23.9888736
  40.6379315  29.3127539  24.3909416  40.2721501  30.4121437  23.4165569
  41.6298967  27.1969038  22.4416059  42.4525036  26.7229517  22.3194949
  41.8737030  27.9759522  22.9414745  40.2707201  30.2257297  12.7378960
  40.9915564  30.6038550  12.2342677  39.6472505  30.9446174  12.8413938
  44.4138324  30.9302446  13.6737293  44.6301939  31.8127084  13.3726121
  43.9332391  30.5388659  12.9442935  39.1537546  33.8888159  20.2508037
  39.0082126  34.2028462  21.1432319  38.6762749  34.5073059  19.6978936
  41.0133928  30.8790707  20.2988927  40.9995497  29.9831800  19.9621225
  41.7306357  30.8861371  20.9327213  42.8660059  31.3128047  22.3442054
  42.6077837  32.2345118  22.3426385  42.3345100  30.9158482  23.0342519
  47.8106248  44.4178834  15.1232140  47.9843125  43.8525257  14.3705992
  48.3035139  45.2179729  14.9411630  33.6283208  36.4293503  23.1895699
  33.0836676  37.2053311  23.3215973  34.5062558  36.7764308  23.0314820
  40.4170824  29.7605087  15.5676497  40.5386736  28.8321734  15.7667385
  40.1272867  29.7743773  14.6554813  43.2862015  27.4459998  18.7043217
  43.3083712  27.5099331  17.7495197  43.7030074  26.6064506  18.8983723
  53.6645639  37.1815257  16.7422440  54.1076785  36.4322583  16.3441563
  52.7872149  37.1725394  16.3596172  48.7981420  43.7345599  12.2229038
  49.4932325  44.3552291  12.4416353  49.1404571  42.8840950  12.4981416
  34.4149230  35.5563400  26.0825855  33.6730966  35.7046035  26.6690486
  34.0941974  35.8171665  25.2192605  50.6972844  41.1845304  13.7516369
  51.2224168  41.5232577  13.0265689  50.6095196  40.2492320  13.5679503
  42.3592892  45.0979378  25.8806245  42.6680019  44.8528525  26.7528945
  43.1568374  45.3026016  25.3925116  42.3813504  47.2517288  18.1111622
  41.9418495  46.7593666  18.8044479  43.1321621  46.7090255  17.8703697
  34.8605843  43.4428828  18.1136250  35.6863863  43.1432600  17.7334894
  34.5099895  42.6736451  18.5626039  39.8287376  42.7955297  20.1833924
  39.2067386  42.1326002  19.8836152  40.4992243  42.8216429  19.5007571
  33.0614448  41.3615155  19.0725184  32.2246357  40.9337329  18.8909185
  33.0338094  41.5547598  20.0095975  39.9011904  31.2737085  29.7766430
  39.9500059  32.1499208  29.3944199  40.4434418  30.7314478  29.2038073
  50.5064625  38.6670674  26.3700295  50.5562630  38.5020682  27.3115818
  50.3978548  37.7997933  25.9798176  39.3900883  41.3459220  13.6592384
  39.5389004  42.0294684  13.0059057  40.1967327  41.3264310  14.1741840
  47.7968387  34.6501602  27.6859602  48.6978250  34.5108067  27.3943600
  47.8716362  34.8156057  28.6257779  42.1311192  32.0268457  26.5312788
  41.2614502  32.3202023  26.2595377  42.3670673  32.6108902  27.2520052
  53.2078504  38.6520496  19.1344887  54.0425395  39.0910300  19.2982447
  53.3437633  38.1759149  18.3153133  50.2570010  36.2100230  25.0822375
  50.7324131  36.4027877  24.2741226  49.3335575  36.2659416  24.8365759
  37.1453516  37.3724398  14.6653453  36.8999558  36.4686728  14.8633663
  37.3149431  37.3741548  13.7232931  44.8350226  28.2448074  24.0478209
  45.3532170  28.9809101  23.7224697  44.4805359  28.5512067  24.8824968
  45.0862820  24.6648357  19.5679105  45.3664574  23.9971546  20.1939532
  45.8713427  24.8577452  19.0553769  42.8896289  43.8407350  11.1304132
  42.3170256  44.4597538  10.6774604  43.4629083  44.3906712  11.6644054
  48.9571679  33.0865991  23.3150680  49.9089102  33.1864088  23.3362904
  48.7875129  32.2944259  23.8248765  46.9786058  30.1721574  23.5010081
  46.3835990  30.4526587  22.8056570  46.6935755  30.6615475  24.2726822
  46.1093549  44.1244501  12.2612714  47.0424222  44.0590062  12.4645589
  46.0216761  44.9600767  11.8027247  48.7381565  43.4410371   9.2216661
  48.6595197  43.1070235  10.1152419  49.5591232  43.9332139   9.2208134
  51.4359757  36.3072110  22.4292980  51.4036077  35.3688111  22.6152664
  52.0460380  36.3856147  21.6958805  43.2743087  35.1768163   8.4720184
  44.2202192  35.0474371   8.5408602  42.8957332  34.4382825   8.9489612
  51.5854245  33.0983154  22.4751263  51.0693294  32.3141610  22.2881192
  52.4694194  32.7701870  22.6397783  49.2464972  26.8424169  18.4347076
  49.0489793  26.5339257  19.3190408  49.8564678  27.5685808  18.5645006
  57.2536306  37.3688117  21.5699017  57.9839695  37.1073405  22.1306720
  56.6443252  36.6316839  21.6101085  55.3351603  35.5095980  22.1673468
  54.6084767  35.3751945  21.5589960  54.9198890  35.8172808  22.9730186
  43.1581780  39.2285909  29.9320841  44.0784789  39.4064508  30.1260888
  43.1231363  38.2841955  29.7800540  32.3763945  34.4224503  18.8574116
  32.0566729  33.5689811  18.5648490  31.8297373  34.6373081  19.6132083
  36.1543852  37.1386944  22.5743622  36.3729862  38.0704052  22.5931656
  36.5669626  36.7794918  23.3598426  43.0748070  27.6455029  14.5619311
  42.2648799  27.3002114  14.9374557  43.7632487  27.3362573  15.1506922
  45.0038619  26.7233076  16.1843607  45.5569657  27.1428530  16.8433630
  45.2408705  25.7968824  16.2266563  41.0271718  32.7120150  31.9646371
  40.9268445  33.6614507  31.8958462  40.8093260  32.3838389  31.0922441
  32.2452205  38.0427415  20.8267237  31.5515676  37.6281367  20.3137192
  32.9925196  38.0847951  20.2300656  48.3817426  28.8333601  15.6922272
  47.8016095  29.4918405  15.3100324  48.1153358  28.0110946  15.2809689
  46.8320992  28.2338659  17.8943592  47.3320770  28.3455194  17.0857911
  47.4756600  27.9299712  18.5344400  40.8902988  36.1417289  30.7811433
  40.4070070  36.9417649  30.9875322  40.9763927  36.1525234  29.8278877
  34.1588947  37.9745668  18.7033252  34.1359636  38.0733356  17.7515135
  34.4689584  38.8210819  19.0250418  36.8176325  40.0321823  22.8179867
  37.7719579  40.0005766  22.7509798  36.6188849  39.5712447  23.6330093
  37.4075707  38.6022939  25.3850664  38.2268596  39.0967018  25.4085502
  37.6812515  37.6854908  25.3568232  47.1642304  30.9933692  14.7478620
  46.2768159  31.2783342  14.5298815  47.5796293  30.8327455  13.9005897
  50.5156840  31.0180213  18.4632959  51.2917230  31.5076665  18.7357576
  49.7904974  31.4438267  18.9204829  52.9529398  31.7307832  19.5206900
  53.5473889  31.4903568  18.8100208  53.0255982  31.0114962  20.1480436
  35.1726554  45.5741443  19.8350065  35.0381022  44.8141844  19.2688063
  34.7558616  46.2982343  19.3678853  46.3085517  40.7578366   8.8426640
  47.0121367  40.9628369   9.4584295  45.5848166  41.3255128   9.1075723
  47.1383327  36.5088228  14.9628910  47.0818529  36.9656779  14.1236542
  47.6911670  35.7478912  14.7851753  50.9488133  32.2977959  15.7879029
  50.6925068  31.8974595  16.6187237  50.3241001  33.0121753  15.6629169
  55.2600471  35.0374033  18.2950321  54.7000029  35.1067222  19.0681883
  54.6543975  34.8615017  17.5749817  38.3295680  46.4710760  20.0468507
  38.2128064  47.4156192  19.9447197  37.5088126  46.1684321  20.4354306
  48.2172215  41.1960896  10.8925100  49.0517818  40.7642094  10.7102575
  48.0556557  41.0242909  11.8201994  47.8718107  37.6993009  12.2581439
  47.8166910  37.5337280  11.3169883  47.2464162  38.4069042  12.4143629
  32.6610622  32.9361073  26.0842861  33.3069485  32.4260027  26.5730087
  32.4527773  33.6729755  26.6586287  45.1864014  40.0041921  31.5835002
  46.0555174  40.1782573  31.2221637  44.7070765  40.8236338  31.4610731
  39.3550194  47.1239022  23.2624436  40.2577441  47.1562632  23.5790931
  39.1287564  46.1939473  23.2770771  41.1103796  45.8770008  19.9234514
  40.1599427  45.8771870  19.8098887  41.4136282  45.1302743  19.4070549
  44.9966352  23.7943895  16.0912694  44.2298747  23.2402381  16.2369377
  45.4077057  23.8665763  16.9526846  37.0008113  30.0828690  30.1817876
  37.8639574  29.7265495  30.3921200  36.4273523  29.7442585  30.8693280
  56.8456490  51.7130547  20.9880277  57.4834900  51.5937294  20.2843617
  56.7277333  52.6611391  21.0468229  53.6546196  51.6657975  20.9241801
  53.3164707  51.5499039  20.0362336  54.5235964  51.2649140  20.9042807
  49.5133012  53.5193451  16.9138692  48.9497877  53.4283388  16.1454980
  49.3985407  52.6993356  17.3941185  54.1365979  52.8192827  26.8828007
  54.1254620  52.4245625  26.0108511  54.2986618  52.0858899  27.4761778
  47.0597444  55.0144643  19.7522913  47.8518735  54.6735467  19.3369212
  47.2994094  55.1239618  20.6725066  55.0932570  57.1864419  12.2253157
  54.4420550  57.7718499  11.8387171  55.8876933  57.7170614  12.2848195
  49.0188197  54.2753556  12.6240292  49.7919073  53.7282543  12.4853167
  49.3713596  55.1397805  12.8354753  50.8573240  55.6029938  25.8307191
  50.5663106  56.5075569  25.7153857  51.4930224  55.6446466  26.5451260
  51.7829447  52.9806787  22.4208550  52.3793019  52.7562809  21.7065513
  51.8404418  52.2391532  23.0233998  51.3554475  50.4346222  10.2558741
  51.6079996  49.9127743   9.4942204  50.4179034  50.2712368  10.3585425
  56.3997758  49.4382001  18.0633485  57.1860847  49.0201424  17.7123902
  56.6636462  50.3428093  18.2315133  56.5707835  54.8754851  12.7622141
  55.9353668  54.9489477  13.4743046  56.2405242  55.4648450  12.0841221
  61.8006185  49.3757234  18.9666463  62.5331357  48.8056451  19.2004293
  61.0445541  48.9878834  19.4072969  51.0750764  52.3374328  12.4583116
  50.9587022  51.6619232  13.1264201  51.1853024  51.8506702  11.6415269
  53.4182305  51.7984475  16.1629806  53.0540512  51.2715096  16.8742727
  54.2749421  51.4082944  15.9896291  59.3231606  43.0878808  23.4261072
  58.9914930  43.9574219  23.2022287  58.7277219  42.7715092  24.1055102
  53.0587792  46.8274375  11.1591154  53.2262194  47.6954611  11.5261625
  52.8684961  46.9901657  10.2352443  55.8163125  55.2891354  22.8256985
  55.5163848  56.1916393  22.7172792  55.4714185  55.0223537  23.6778137
  49.2675607  51.7405151  18.8593689  48.3426103  51.6081365  19.0671381
  49.5160020  52.5199370  19.3563631  59.2160269  47.8073894  20.5054422
  58.3077146  47.7389302  20.2113183  59.1647865  48.2845839  21.3336247
  53.0377013  49.2832032  12.1437821  52.9176638  49.7289083  12.9823301
  52.3429601  49.6317350  11.5851359  46.6284418  51.3838424  19.6937478
  46.7576799  51.6372903  20.6076890  45.9481869  51.9766132  19.3742133
  50.7983905  62.0535674  15.7927952  50.7207935  63.0043499  15.8716433
  50.1945549  61.7081547  16.4502879  53.2901135  49.2263540  28.4489319
  52.5134469  49.7857460  28.4392184  53.9291698  49.7120323  28.9704189
  61.0821915  46.0090332  22.2832296  60.4396296  46.3022866  21.6372090
  60.5776844  45.8943253  23.0885492  58.7362079  49.7553506  12.9718155
  59.6479935  49.9880892  12.7965853  58.2271726  50.3390550  12.4093234
  51.5447507  52.0348993  28.0107286  52.2862191  52.5734037  27.7342110
  50.8384492  52.6615282  28.1678838  57.0202847  54.1778133  26.6079448
  57.4286203  53.7360544  25.8634080  56.2980108  53.6030761  26.8613640
  53.3733917  49.1150740  23.9813005  54.2195112  49.5390154  24.1247654
  53.3132554  48.4584365  24.6751568  57.3431661  54.7379324  20.3631736
  56.7140524  54.9025038  19.6607804  56.9557323  55.1520934  21.1342701
  61.2220893  55.6733762  17.7176100  60.5371931  56.0532663  17.1673134
  61.3064742  56.2829089  18.4508048  56.5233362  46.7755109  25.6394178
  56.2794294  47.5297169  25.1028454  56.7993293  47.1540456  26.4741425
  58.4771825  53.3193721  24.3171444  58.6888720  53.9625481  23.6405825
  58.4301573  52.4856037  23.8493374  56.0798054  45.9311542  21.2208016
  55.2182533  46.2292795  21.5124753  56.1060488  46.1481940  20.2889049
  52.8959623  54.4753732  17.6281822  53.3597969  54.7541435  16.8386444
  52.6316421  53.5737177  17.4454912  49.7883704  54.0225214  20.5661585
  50.3585061  54.4512482  19.9279069  50.3791816  53.7407798  21.2645770
  51.8328509  50.5976885  14.4371387  52.5352553  51.0497928  14.9045313
  51.5009138  49.9560703  15.0651280  50.2808871  49.1888641  28.8122596
  49.6507531  49.8704922  29.0457993  50.1744959  49.0771723  27.8675734
  45.5753843  48.8560437  19.7388520  44.7852897  49.1117966  19.2628631
  46.0665091  49.6708775  19.8440561  59.5917653  56.1965676  22.4893801
  60.4135096  55.7945864  22.2076483  59.5880056  56.0933911  23.4409917
  47.5268589  49.2205016  16.6971997  46.7299752  49.3323711  17.2155493
  47.2994181  49.5591669  15.8312887  53.3574256  55.7449720  24.6454512
  53.4218689  56.2070127  25.4812683  52.6485180  55.1147085  24.7736821
  43.8591546  49.1090928  22.1703511  44.1099585  49.9937938  22.4361087
  44.3951095  48.9295529  21.3978603  67.6823646  52.5404425  18.8378773
  66.9287354  51.9711823  18.6822777  67.8171187  52.5067089  19.7849407
  53.0722274  57.4117827  14.5133492  52.9367949  58.2569363  14.9418340
  53.6132086  57.6137105  13.7499426  46.5251671  54.9293265  15.0861417
  47.0376192  55.7236515  15.2366982  47.1774384  54.2319556  15.0195018
  48.3346556  58.0459021  17.1684170  48.5113184  58.9676986  16.9805154
  49.1303389  57.7317441  17.5978550  47.6198912  50.0923653  27.0446333
  47.5052428  49.1908911  27.3453432  46.7643430  50.3387350  26.6931150
  49.4577871  59.5637195  23.1694513  50.0085297  59.4354259  22.3971506
  48.6189347  59.8632084  22.8189405  56.7971988  58.3144194  26.6715235
  56.7790464  59.1353075  26.1795504  57.7191908  58.1898269  26.8965376
  53.2545042  55.8288323  27.5138744  53.7873379  55.0676611  27.2838052
  52.7259124  55.5361975  28.2562898  56.4214737  40.9348389  23.0432385
  56.0779007  41.8250031  22.9671496  56.7893700  40.7450047  22.1801970
  44.4900588  53.2581919  15.8620988  45.3275810  53.6678928  15.6454695
  44.6678856  52.3181362  15.8321181  56.3865020  50.9257000  11.5504821
  55.8711644  51.6961605  11.7893208  56.1142329  50.2522136  12.1737882
  53.9712131  45.7706701  16.6090059  53.1153727  45.3813551  16.4295698
  54.3839083  45.8498662  15.7489844  55.5011278  43.3053044  21.0081619
  54.9976073  43.2683179  20.1949424  55.7941885  44.2145787  21.0678275
  51.7454164  43.3891774  20.0147800  52.6107160  43.1934583  19.6553690
  51.8131673  43.1602126  20.9417157  61.3599294  53.6789355  13.4857994
  60.5828737  53.3400514  13.0413156  62.0390775  53.6841978  12.8112959
  56.1751323  48.7984092  13.3764602  55.8701459  49.1130241  14.2274745
  57.1281765  48.8765512  13.4191935  54.6197755  54.9574316  15.0257556
  54.0919117  54.2227075  14.7130793  54.1185258  55.7348992  14.7797524
  59.5990601  53.1523336  20.1424602  58.9414276  53.8422597  20.2304731
  60.4031000  53.5419768  20.4858588  49.3516483  45.6193982  17.3864167
  49.9260235  45.3969163  16.6537360  49.9387465  45.6882676  18.1392768
  58.4096060  51.5067709  18.1928544  58.9227942  52.1397701  18.6950253
  59.0597284  50.9068904  17.8271904  49.6786070  47.6498443  11.4060052
  48.8423382  47.9873129  11.7269327  49.5390840  47.5147423  10.4687189
  51.6539150  42.4935231  16.1139237  51.0003563  42.1784248  15.4895851
  51.6119625  41.8710971  16.8399060  52.7650355  52.7754526   8.0292529
  51.8577417  52.5443779   8.2283678  53.2621387  51.9792145   8.2166510
  55.6718434  61.4852033  10.9489215  54.9980133  61.7883730  11.5574173
  56.0584256  62.2881113  10.5994672  54.8876891  48.9817164  20.4386884
  53.9699452  49.2032111  20.2808572  55.3037034  49.0563475  19.5798592
  55.6711939  50.3808580  15.5689565  56.4183758  50.8929977  15.2596687
  55.9403528  50.0592633  16.4293958  53.9438589  52.8767121  12.5516519
  53.0349808  52.5926153  12.6488989  53.9733673  53.2966199  11.6919826
  59.1757856  56.4873710  16.3207686  58.7220183  55.6464620  16.3772877
  58.5451823  57.1235109  16.6582467  58.1190776  47.4165696  17.5508354
  57.3813533  46.9043082  17.8818596  58.3717549  46.9766078  16.7391631
  57.6190795  58.3250207  17.2557504  57.9113770  58.8855264  16.5369870
  58.1289416  58.6178768  18.0110664  58.2202403  40.1941948  18.1450123
  58.5261280  39.3339312  17.8576038  58.9455008  40.7859568  17.9449117
  44.5126759  50.5972635  16.5331721  44.3151159  50.0041995  15.8082788
  43.9573423  50.2924845  17.2507660  52.4923483  50.4895741  18.6526314
  52.5472093  49.5369578  18.5768791  51.6814685  50.6455180  19.1367613
  53.6414677  54.4175864   9.8904597  53.2034106  53.7011723   9.4310235
  54.3825117  54.6451979   9.3289689  50.4315843  49.1072801  16.4116693
  49.6183708  49.4066972  16.8181885  50.9274837  48.7128490  17.1291175
  52.5824421  59.1030558  18.3450958  52.5400599  59.3291404  17.4159490
  53.4987119  58.8693933  18.4936759  56.0290054  49.5714625  25.2431587
  56.3839442  49.7986099  26.1026053  56.6762186  49.9033002  24.6208842
  61.7587791  52.6933061  15.9480916  61.6205690  52.8834657  15.0202105
  61.4024010  53.4552444  16.4048967  49.9229917  46.6791157  22.0277928
  50.5629297  46.5379916  21.3300891  49.0907448  46.3925670  21.6516530
  61.7857171  54.7609588  20.9592187  62.2193678  54.6684877  21.8075241
  62.4988752  54.7367089  20.3212203  50.6990221  55.9793587  18.1412920
  51.4930820  55.4843907  17.9395495  49.9881914  55.4511450  17.7780626
  55.5185066  58.3611682  22.4925288  55.5722088  58.9302619  23.2603004
  54.6499847  58.5313568  22.1279325  47.0072985  50.1236669  14.2172673
  46.0770573  50.0621124  14.4342635  47.1030457  49.6012621  13.4209314
  46.9258534  46.6491482  16.8050915  47.1865351  47.5636815  16.6960075
  47.7475706  46.1815924  16.9547528  48.3983459  48.0629239  23.9749739
  49.0706513  47.8546601  23.3262388  47.5713246  47.8651325  23.5354972
  62.6472721  54.8033289  23.4925073  62.8408611  55.7079100  23.7384348
  62.5473339  54.3440708  24.3263658  54.3009031  44.6891180  25.9915400
  53.6536946  45.3881129  25.8979877  55.0710047  45.1227324  26.3591648
  57.7087829  54.9540032  29.0665953  57.5573336  54.7250583  28.1496037
  57.6992509  55.9110633  29.0797298  54.4773166  52.5271945  24.0512220
  55.4065226  52.6783104  23.8781187  54.0564196  52.6155965  23.1960866
  53.2761497  56.5522609  21.8210758  53.1372583  56.1841393  22.6936696
  52.4876094  57.0670248  21.6494715  53.8709649  61.6531705  13.1636294
  54.0461405  61.1819749  13.9781917  53.1842437  62.2797472  13.3917555
  54.8266713  55.9304212  19.2099595  54.4916545  55.8904982  20.1057245
  54.3270658  55.2648928  18.7370006  48.8010956  51.3371842  24.7352176
  48.6630754  50.6052080  25.3363716  49.7115880  51.2480742  24.4536364
  57.7625904  53.2760246   9.4836655  57.1455075  52.5507074   9.3869708
  57.2942393  54.0369606   9.1403729  51.4293257  51.0491801  24.2235856
  52.1392876  50.4084993  24.1822475  51.3862565  51.3004696  25.1462037
  59.4180036  57.9859154  27.1442435  59.3592582  57.3018374  26.4773018
  59.8199554  58.7278144  26.6923061  50.1422191  48.0357019  26.0431496
  49.6059548  47.5847757  26.6953092  49.5538900  48.1702928  25.3001960
  49.5524450  47.4945670   8.6057959  48.6753916  47.3734471   8.2420206
  50.0282203  46.7031749   8.3536848  59.4197443  55.9498738  25.3756415
  58.5324222  55.6124660  25.4982814  59.9895994  55.2181769  25.6125180
  41.0726590  52.2822830  18.6999466  41.7597630  51.9684560  18.1120482
  40.9174719  53.1864195  18.4266718  45.8761312  47.1713027  23.1284490
  45.7919501  46.5638696  22.3934900  45.0544019  47.6622045  23.1293986
  52.9498596  60.6100191  22.3417658  52.8768768  61.4155162  22.8536963
  52.5075990  60.8092156  21.5165680  52.7388376  59.8471961  15.8520480
  51.9555898  60.3893641  15.9458704  53.4381121  60.3645940  16.2514721
  56.0485026  45.6566590  18.4954685  56.5453726  44.9036552  18.1755755
  55.2772008  45.6930907  17.9297894  63.9014784  51.3606956  20.1372977
  63.8904660  52.2431671  19.7666910  63.0332163  51.0078506  19.9427514
  55.4097280  60.5087025  24.4975817  56.1225252  61.1434489  24.4251718
  54.9187309  60.6050891  23.6815819  57.1314807  54.4138277  16.0693109
  56.1971086  54.5339740  15.8997813  57.3091475  53.5110744  15.8053118
  52.6319995  47.7983973  18.2226370  52.2617783  47.2455013  18.9107275
  53.1279087  47.1942107  17.6701370  60.5187358  50.2555597  16.6043143
  60.9847810  51.0883588  16.5303445  60.9694859  49.7900578  17.3088401
  50.4609194  58.2581468  25.3181388  51.1618653  58.8917951  25.4710782
  49.9904309  58.5996200  24.5577027  58.5863589  56.5999418  13.6029295
  58.8623433  56.4856012  14.5123169  57.7168088  56.2016903  13.5641468
  58.4904021  42.6236184  20.6434044  57.5767101  42.8540410  20.8116251
  58.9197122  42.7074628  21.4948076  58.2610480  50.8126076  23.1433938
  57.6081930  51.0601983  22.4886391  58.6390859  49.9990214  22.8096415
  55.2217653  60.8485769  17.2462108  55.4040048  60.0307425  17.7089861
  56.0450639  61.0653461  16.8086998  55.5559819  59.7753954  14.5077157
  56.0847585  59.2646408  13.8947319  55.8188038  59.4596484  15.3722690
  46.0576912  57.7917823  22.2512490  46.6430348  57.0461511  22.3840395
  45.8601750  58.1021780  23.1349154  48.9115567  60.8269071  17.2674933
  48.2425942  61.3115198  16.7838973  48.7728437  61.0738291  18.1818311
  40.6494566  50.3623423  20.9716934  40.6878666  49.8287014  21.7654052
  40.1434859  49.8358629  20.3527911  53.0520835  62.8612814  23.8657591
  53.6039143  63.0244436  24.6306676  53.3927029  63.4517252  23.1937616
  48.0285329  45.2087964  24.4679476  48.0926655  46.0702795  24.0556874
  47.9652449  44.5961966  23.7351834  47.5037601  47.2811096  28.1152510
  48.1309640  46.8988174  28.7290034  46.6465520  47.0625298  28.4808203
  57.9031710  57.6874072  29.7206246  58.4471614  58.3004030  29.2261200
  57.3218555  58.2453650  30.2373259  44.2803144  49.0887526  14.0470865
  44.5756585  48.1798204  13.9937919  43.3791180  49.0675265  13.7251867
  56.1889223  60.8094790  20.8521273  56.0640362  60.0084529  20.3432219
  56.8468314  61.3040983  20.3635243  47.8097391  47.1643522  20.0298413
  47.0883977  47.7779490  19.8905887  48.5990647  47.7001287  19.9515059
  58.2524131  58.6103810  22.4800823  57.3054467  58.4909161  22.4079150
  58.6006904  57.7226308  22.5627085  50.6123704  44.4997949  26.3039065
  51.1358106  44.7460245  27.0665375  50.3936038  45.3317983  25.8842203
  46.0090986  46.7701623  14.1710190  45.6803692  45.8899002  13.9885296
  46.3630356  46.7149292  15.0586579  55.2570564  58.4056526  18.6805176
  55.1095527  57.4773233  18.8612746  56.0824058  58.4276617  18.1962251
  49.1232809  47.0574593  14.5385668  49.4628881  47.5860514  13.8164276
  49.5704929  47.3954999  15.3144234  58.8604686  59.2285085  19.7670048
  59.7851234  59.0227946  19.6294499  58.6919990  58.9801486  20.6759390
  51.8176249  45.4411644  23.9888736  51.4773070  44.6419457  24.3909416
  51.1115256  45.7413355  23.4165569  52.4692721  42.5260956  22.4416059
  53.2918791  42.0521434  22.3194949  52.7130785  43.3051440  22.9414745
  51.1100956  45.5549215  12.7378960  51.8309318  45.9330467  12.2342677
  50.4866260  46.2738091  12.8413938  55.2532079  46.2594364  13.6737293
  55.4695693  47.1419001  13.3726121  54.7726146  45.8680577  12.9442935
  49.9931300  49.2180077  20.2508037  49.8475881  49.5320380  21.1432319
  49.5156504  49.8364977  19.6978936  51.8527683  46.2082625  20.2988927
  51.8389252  45.3123718  19.9621225  52.5700111  46.2153288  20.9327213
  53.7053814  46.6419965  22.3442054  53.4471591  47.5637036  22.3426385
  53.1738854  46.2450399  23.0342519  58.6500002  59.7470752  15.1232140
  58.8236880  59.1817175  14.3705992  59.1428894  60.5471647  14.9411630
  44.4676962  51.7585421  23.1895699  43.9230430  52.5345229  23.3215973
  45.3456312  52.1056226  23.0314820  51.2564579  45.0897005  15.5676497
  51.3780490  44.1613651  15.7667385  50.9666621  45.1035691  14.6554813
  54.1255769  42.7751915  18.7043217  54.1477466  42.8391249  17.7495197
  54.5423828  41.9356424  18.8983723  64.5039394  52.5107175  16.7422440
  64.9470540  51.7614500  16.3441563  63.6265904  52.5017311  16.3596172
  59.6375175  59.0637516  12.2229038  60.3326080  59.6844209  12.4416353
  59.9798325  58.2132868  12.4981416  45.2542984  50.8855317  26.0825855
  44.5124720  51.0337953  26.6690486  44.9335728  51.1463583  25.2192605
  61.5366598  56.5137222  13.7516369  62.0617922  56.8524495  13.0265689
  61.4488951  55.5784237  13.5679503  53.1986647  60.4271296  25.8806245
  53.5073773  60.1820442  26.7528945  53.9962129  60.6317934  25.3925116
  53.2207259  62.5809205  18.1111622  52.7812249  62.0885584  18.8044479
  53.9715376  62.0382173  17.8703697  45.6999598  58.7720746  18.1136250
  46.5257618  58.4724518  17.7334894  45.3493650  58.0028369  18.5626039
  50.6681131  58.1247214  20.1833924  50.0461140  57.4617919  19.8836152
  51.3385998  58.1508346  19.5007571  43.9008203  56.6907073  19.0725184
  43.0640111  56.2629247  18.8909185  43.8731848  56.8839516  20.0095975
  50.7405658  46.6029002  29.7766430  50.7893814  47.4791125  29.3944199
  51.2828173  46.0606395  29.2038073  61.2260504  57.1470126  29.0567567
  60.4356048  57.1294265  28.5172066  60.9893859  57.6858419  29.8116603
  61.3458379  53.9962592  26.3700295  61.3956384  53.8312599  27.3115818
  61.2372302  53.1289851  25.9798176  50.2294638  56.6751138  13.6592384
  50.3782758  57.3586602  13.0059057  51.0361081  56.6556228  14.1741840
  58.6362142  49.9793520  27.6859602  59.5372004  49.8399985  27.3943600
  58.7110116  50.1447975  28.6257779  52.9704947  47.3560375  26.5312788
  52.1008256  47.6493941  26.2595377  53.2064427  47.9400820  27.2520052
  62.8476576  56.4159534  26.6142317  62.5561384  56.7789514  27.4505778
  62.2348707  55.7026542  26.4355649  64.0472258  53.9812413  19.1344887
  64.8819150  54.4202217  19.2982447  64.1831387  53.5051067  18.3153133
  61.0963764  51.5392148  25.0822375  61.5717886  51.7319794  24.2741226
  60.1729330  51.5951334  24.8365759  47.9847271  52.7016315  14.6653453
  47.7393313  51.7978645  14.8633663  48.1543185  52.7033466  13.7232931
  55.6743981  43.5739992  24.0478209  56.1925925  44.3101019  23.7224697
  55.3199113  43.8803985  24.8824968  47.2542918  48.4344673  12.1639615
  46.5612163  48.5089028  11.5079651  47.0094670  47.6705017  12.6861132
  55.9256575  39.9940274  19.5679105  56.2058329  39.3263463  20.1939532
  56.7107182  40.1869370  19.0553769  53.7290043  59.1699268  11.1304132
  53.1564010  59.7889455  10.6774604  54.3022837  59.7198630  11.6644054
  59.7965433  48.4157908  23.3150680  60.7482856  48.5156006  23.3362904
  59.6268884  47.6236177  23.8248765  57.8179813  45.5013491  23.5010081
  57.2229745  45.7818504  22.8056570  57.5329509  45.9907392  24.2726822
  56.9487303  59.4536418  12.2612714  57.8817976  59.3881980  12.4645589
  56.8610516  60.2892685  11.8027247  59.5775320  58.7702289   9.2216661
  59.4988951  58.4362152  10.1152419  60.3984987  59.2624057   9.2208134
  62.2753511  51.6364028  22.4292980  62.2429831  50.6980029  22.6152664
  62.8854135  51.7148065  21.6958805  54.1136842  50.5060081   8.4720184
  55.0595947  50.3766289   8.5408602  53.7351087  49.7674743   8.9489612
  62.4247999  48.4275071  22.4751263  61.9087048  47.6433528  22.2881192
  63.3087948  48.0993788  22.6397783  60.0858726  42.1716087  18.4347076
  59.8883548  41.8631175  19.3190408  60.6958432  42.8977726  18.5645006
  68.0930061  52.6980035  21.5699017  68.8233449  52.4365323  22.1306720
  67.4837006  51.9608757  21.6101085  66.1745358  50.8387897  22.1673468
  65.4478522  50.7043862  21.5589960  65.7592645  51.1464726  22.9730186
  52.2979759  48.4310057   8.4075069  51.3911214  48.1343170   8.4837783
  52.5755740  48.1339875   7.5409356  43.2157699  49.7516421  18.8574116
  42.8960484  48.8981729  18.5648490  42.6691128  49.9664999  19.6132083
  46.9937607  52.4678862  22.5743622  47.2123617  53.3995970  22.5931656
  47.4063381  52.1086836  23.3598426  53.9141825  42.9746947  14.5619311
  53.1042553  42.6294032  14.9374557  54.6026242  42.6654491  15.1506922
  55.8432373  42.0524994  16.1843607  56.3963412  42.4720447  16.8433630
  56.0802459  41.1260742  16.2266563  51.0678544  45.2896993   8.5487049
  51.9297708  45.6151891   8.8082866  51.2528888  44.5028488   8.0360114
  43.0845959  53.3719332  20.8267237  42.3909431  52.9573285  20.3137192
  43.8318950  53.4139869  20.2300656  59.2211180  44.1625519  15.6922272
  58.6409849  44.8210323  15.3100324  58.9547113  43.3402864  15.2809689
  57.6714746  43.5630577  17.8943592  58.1714525  43.6747111  17.0857911
  58.3150354  43.2591630  18.5344400  44.9982702  53.3037586  18.7033252
  44.9753390  53.4025273  17.7515135  45.3083338  54.1502737  19.0250418
  47.6570080  55.3613741  22.8179867  48.6113333  55.3297683  22.7509798
  47.4582603  54.9004365  23.6330093  48.2469462  53.9314857  25.3850664
  49.0662351  54.4258936  25.4085502  48.5206270  53.0146825  25.3568232
  58.0036058  46.3225609  14.7478620  57.1161913  46.6075260  14.5298815
  58.4190047  46.1619373  13.9005897  61.3550594  46.3472130  18.4632959
  62.1310984  46.8368583  18.7357576  60.6298728  46.7730185  18.9204829
  63.7923153  47.0599750  19.5206900  64.3867644  46.8195486  18.8100208
  63.8649737  46.3406880  20.1480436  46.0120309  60.9033361  19.8350065
  45.8774777  60.1433761  19.2688063  45.5952371  61.6274260  19.3678853
  57.1479272  56.0870284   8.8426640  57.8515122  56.2920287   9.4584295
  56.4241920  56.6547046   9.1075723  57.9777082  51.8380145  14.9628910
  57.9212283  52.2948697  14.1236542  58.5305424  51.0770830  14.7851753
  61.7881888  47.6269877  15.7879029  61.5318822  47.2266513  16.6187237
  61.1634756  48.3413671  15.6629169  66.0994226  50.3665950  18.2950321
  65.5393784  50.4359140  19.0681883  65.4937729  50.1906935  17.5749817
  49.1689434  61.8002678  20.0468507  49.0521819  62.7448110  19.9447197
  48.3481881  61.4976239  20.4354306  59.0565969  56.5252813  10.8925100
  59.8911573  56.0934012  10.7102575  58.8950312  56.3534827  11.8201994
  58.7111861  53.0284927  12.2581439  58.6560665  52.8629198  11.3169883
  58.0857916  53.7360959  12.4143629  43.5004376  48.2652991  26.0842861
  44.1463240  47.7551945  26.5730087  43.2921527  49.0021673  26.6586287
  52.0207987  42.5293036  11.8366758  52.0086656  43.4734875  11.9935028
  52.9131409  42.3463181  11.5426219  51.9497551  61.2061926  19.9234514
  50.9993182  61.2063788  19.8098887  52.2530037  60.4594661  19.4070549
  55.8360106  39.1235812  16.0912694  55.0692502  38.5694299  16.2369377
  56.2470811  39.1957681  16.9526846  47.8401867  45.4120608  30.1817876
  48.7033329  45.0557413  30.3921200  47.2667278  45.0734503  30.8693280
  67.6850244  67.0422464  20.9880277  68.3228654  66.9229212  20.2843617
  67.5671087  67.9903308  21.0468229  64.4939950  66.9949892  20.9241801
  64.1558462  66.8790957  20.0362336  65.3629719  66.5941058  20.9042807
  60.3526766  68.8485369  16.9138692  59.7891631  68.7575306  16.1454980
  60.2379161  68.0285273  17.3941185  64.9759733  68.1484744  26.8828007
  64.9648374  67.7537542  26.0108511  65.1380373  67.4150817  27.4761778
  57.8991198  70.3436560  19.7522913  58.6912490  70.0027385  19.3369212
  58.1387848  70.4531536  20.6725066  65.9326325  72.5156337  12.2253157
  65.2814305  73.1010417  11.8387171  66.7270688  73.0462531  12.2848195
  59.8581952  69.6045474  12.6240292  60.6312828  69.0574461  12.4853167
  60.2107351  70.4689723  12.8354753  62.6223201  68.3098705  22.4208550
  63.2186774  68.0854727  21.7065513  62.6798173  67.5683450  23.0233998
  62.1948230  65.7638140  10.2558741  62.4473750  65.2419661   9.4942204
  61.2572789  65.6004285  10.3585425  67.2391513  64.7673918  18.0633485
  68.0254602  64.3493341  17.7123902  67.5030217  65.6720010  18.2315133
  67.4101590  70.2046769  12.7622141  66.7747423  70.2781395  13.4743046
  67.0798996  70.7940367  12.0841221  72.6399940  64.7049151  18.9666463
  73.3725112  64.1348368  19.2004293  71.8839295  64.3170752  19.4072969
  61.9144519  67.6666246  12.4583116  61.7980777  66.9911149  13.1264201
  62.0246778  67.1798620  11.6415269  64.2576059  67.1276393  16.1629806
  63.8934267  66.6007014  16.8742727  65.1143175  66.7374862  15.9896291
  70.1625360  58.4170726  23.4261072  69.8308685  59.2866136  23.2022287
  69.5670973  58.1007010  24.1055102  63.8981546  62.1566293  11.1591154
  64.0655949  63.0246529  11.5261625  63.7078715  62.3193574  10.2352443
  66.6556880  70.6183272  22.8256985  66.3557603  71.5208310  22.7172792
  66.3107939  70.3515455  23.6778137  60.1069361  67.0697068  18.8593689
  59.1819858  66.9373282  19.0671381  60.3553774  67.8491288  19.3563631
  70.0554023  63.1365812  20.5054422  69.1470901  63.0681220  20.2113183
  70.0041619  63.6137757  21.3336247  63.8770767  64.6123950  12.1437821
  63.7570392  65.0581001  12.9823301  63.1823356  64.9609268  11.5851359
  57.4678172  66.7130342  19.6937478  57.5970553  66.9664821  20.6076890
  56.7875623  67.3058050  19.3742133  61.6377659  77.3827592  15.7927952
  61.5601689  78.3335417  15.8716433  61.0339303  77.0373464  16.4502879
  64.1294889  64.5555457  28.4489319  63.3528223  65.1149377  28.4392184
  64.7685452  65.0412240  28.9704189  71.9215670  61.3382250  22.2832296
  71.2790050  61.6314783  21.6372090  71.4170598  61.2235170  23.0885492
  69.5755833  65.0845423  12.9718155  70.4873690  65.3172810  12.7965853
  69.0665481  65.6682467  12.4093234  62.3841261  67.3640911  28.0107286
  63.1255946  67.9025955  27.7342110  61.6778247  67.9907199  28.1678838
  67.8596601  69.5070051  26.6079448  68.2679957  69.0652462  25.8634080
  67.1373863  68.9322679  26.8613640  64.2127671  64.4442658  23.9813005
  65.0588866  64.8682071  24.1247654  64.1526309  63.7876282  24.6751568
  68.1825416  70.0671242  20.3631736  67.5534278  70.2316956  19.6607804
  67.7951078  70.4812851  21.1342701  72.0614648  71.0025680  17.7176100
  71.3765686  71.3824581  17.1673134  72.1458497  71.6121006  18.4508048
  67.3627116  62.1047026  25.6394178  67.1188048  62.8589087  25.1028454
  67.6387047  62.4832374  26.4741425  69.3165579  68.6485639  24.3171444
  69.5282475  69.2917398  23.6405825  69.2695328  67.8147955  23.8493374
  66.9191808  61.2603459  21.2208016  66.0576287  61.5584713  21.5124753
  66.9454243  61.4773858  20.2889049  63.7353378  69.8045650  17.6281822
  64.1991723  70.0833353  16.8386444  63.4710176  68.9029094  17.4454912
  60.6277459  69.3517131  20.5661585  61.1978816  69.7804400  19.9279069
  61.2185571  69.0699716  21.2645770  62.6722264  65.9268802  14.4371387
  63.3746307  66.3789846  14.9045313  62.3402892  65.2852621  15.0651280
  61.1202625  64.5180559  28.8122596  60.4901286  65.1996840  29.0457993
  61.0138713  64.4063640  27.8675734  56.4147598  64.1852355  19.7388520
  55.6246652  64.4409883  19.2628631  56.9058845  65.0000693  19.8440561
  70.4311407  71.5257594  22.4893801  71.2528851  71.1237781  22.2076483
  70.4273810  71.4225828  23.4409917  58.3662343  64.5496934  16.6971997
  57.5693506  64.6615628  17.2155493  58.1387935  64.8883586  15.8312887
  54.6985301  64.4382845  22.1703511  54.9493339  65.3229855  22.4361087
  55.2344849  64.2587447  21.3978603  78.5217400  67.8696343  18.8378773
  77.7681109  67.3003741  18.6822777  78.6564941  67.8359007  19.7849407
  63.9116028  72.7409745  14.5133492  63.7761703  73.5861281  14.9418340
  64.4525841  72.9429022  13.7499426  60.3983368  58.8201325  31.1747847
  60.0050314  58.2667523  31.8495491  61.2149508  59.1311903  31.5654365
  57.3645426  70.2585183  15.0861417  57.8769946  71.0528433  15.2366982
  58.0168139  69.5611473  15.0195018  63.3151329  60.2359204  28.7668104
  64.0561042  60.8366357  28.6872566  63.5469252  59.4936842  28.2086146
  60.2971626  74.8929113  23.1694513  60.8479051  74.7646176  22.3971506
  59.4583102  75.1924002  22.8189405  67.2608492  56.2640307  23.0432385
  66.9172761  57.1541948  22.9671496  67.6287454  56.0741964  22.1801970
  55.3294342  68.5873837  15.8620988  56.1669564  68.9970846  15.6454695
  55.5072610  67.6473279  15.8321181  67.2258775  66.2548918  11.5504821
  66.7105398  67.0253522  11.7893208  66.9536083  65.5814054  12.1737882
  64.8105886  61.0998619  16.6090059  63.9547482  60.7105469  16.4295698
  65.2232837  61.1790579  15.7489844  66.3405032  58.6344962  21.0081619
  65.8369828  58.5975097  20.1949424  66.6335639  59.5437705  21.0678275
  62.5847918  58.7183692  20.0147800  63.4500915  58.5226500  19.6553690
  62.6525427  58.4894043  20.9417157  72.1993049  69.0081272  13.4857994
  71.4222492  68.6692432  13.0413156  72.8784530  69.0133896  12.8112959
  67.0145078  64.1276010  13.3764602  66.7095213  64.4422159  14.2274745
  67.9675520  64.2057430  13.4191935  65.4591510  70.2866233  15.0257556
  64.9312871  69.5518993  14.7130793  64.9579012  71.0640910  14.7797524
  70.4384356  68.4815254  20.1424602  69.7808030  69.1714515  20.2304731
  71.2424755  68.8711686  20.4858588  60.1910237  60.9485899  17.3864167
  60.7653989  60.7261081  16.6537360  60.7781220  61.0174594  18.1392768
  69.2489814  66.8359626  18.1928544  69.7621696  67.4689618  18.6950253
  69.8991038  66.2360822  17.8271904  60.5179824  62.9790361  11.4060052
  59.6817137  63.3165047  11.7269327  60.3784594  62.8439340  10.4687189
  62.4932905  57.8227148  16.1139237  61.8397317  57.5076166  15.4895851
  62.4513379  57.2002889  16.8399060  63.6044110  68.1046443   8.0292529
  62.6971172  67.8735697   8.2283678  64.1015142  67.3084063   8.2166510
  66.5112189  76.8143951  10.9489215  65.8373887  77.1175647  11.5574173
  66.8978011  77.6173031  10.5994672  65.7270645  64.3109082  20.4386884
  64.8093207  64.5324029  20.2808572  66.1430789  64.3855392  19.5798592
  66.5105693  65.7100498  15.5689565  67.2577512  66.2221895  15.2596687
  66.7797283  65.3884550  16.4293958  64.7832343  68.2059038  12.5516519
  63.8743563  67.9218071  12.6488989  64.8127427  68.6258117  11.6919826
  70.0151611  71.8165628  16.3207686  69.5613938  70.9756538  16.3772877
  69.3845577  72.4527026  16.6582467  68.9584530  62.7457614  17.5508354
  68.2207287  62.2335000  17.8818596  69.2111304  62.3057995  16.7391631
  68.4584550  73.6542125  17.2557504  68.7507524  74.2147182  16.5369870
  68.9683170  73.9470686  18.0110664  69.0596158  55.5233866  18.1450123
  69.3655034  54.6631229  17.8576038  69.7848762  56.1151486  17.9449117
  55.3520514  65.9264552  16.5331721  55.1544913  65.3333913  15.8082788
  54.7967178  65.6216763  17.2507660  63.3317237  65.8187659  18.6526314
  63.3865847  64.8661495  18.5768791  62.5208439  65.9747098  19.1367613
  64.4808431  69.7467782   9.8904597  64.0427861  69.0303641   9.4310235
  65.2218872  69.9743897   9.3289689  61.2709597  64.4364719  16.4116693
  60.4577463  64.7358889  16.8181885  61.7668591  64.0420407  17.1291175
  63.4218175  74.4322476  18.3450958  63.3794354  74.6583322  17.4159490
  64.3380874  74.1985850  18.4936759  66.8683809  64.9006543  25.2431587
  67.2233197  65.1278016  26.1026053  67.5155940  65.2324920  24.6208842
  72.5981546  68.0224979  15.9480916  72.4599444  68.2126575  15.0202105
  72.2417765  68.7844362  16.4048967  60.7623672  62.0083074  22.0277928
  61.4023051  61.8671833  21.3300891  59.9301203  61.7217588  21.6516530
  72.6250925  70.0901506  20.9592187  73.0587432  69.9976795  21.8075241
  73.3382506  70.0659007  20.3212203  61.5383976  71.3085505  18.1412920
  62.3324574  70.8135825  17.9395495  60.8275668  70.7803368  17.7780626
  66.3578820  73.6903600  22.4925288  66.4115843  74.2594536  23.2603004
  65.4893602  73.8605485  22.1279325  57.8466739  65.4528586  14.2172673
  56.9164327  65.3913042  14.4342635  57.9424211  64.9304539  13.4209314
  57.7652288  61.9783399  16.8050915  58.0259106  62.8928732  16.6960075
  58.5869461  61.5107842  16.9547528  59.2377214  63.3921156  23.9749739
  59.9100267  63.1838519  23.3262388  58.4107000  63.1943242  23.5354972
  73.4866475  70.1325207  23.4925073  73.6802365  71.0371017  23.7384348
  73.3867093  69.6732626  24.3263658  65.1402786  60.0183097  25.9915400
  64.4930701  60.7173047  25.8979877  65.9103801  60.4519241  26.3591648
  65.3166920  67.8563862  24.0512220  66.2458980  68.0075022  23.8781187
  64.8957950  67.9447883  23.1960866  64.1155252  71.8814527  21.8210758
  63.9766338  71.5133311  22.6936696  63.3269848  72.3962166  21.6494715
  64.7103404  76.9823623  13.1636294  64.8855160  76.5111666  13.9781917
  64.0236192  77.6089389  13.3917555  65.6660467  71.2596129  19.2099595
  65.3310300  71.2196899  20.1057245  65.1664413  70.5940845  18.7370006
  59.6404711  66.6663759  24.7352176  59.5024509  65.9343998  25.3363716
  60.5509634  66.5772659  24.4536364  68.6019659  68.6052164   9.4836655
  67.9848829  67.8798992   9.3869708  68.1336147  69.3661524   9.1403729
  62.2687012  66.3783719  24.2235856  62.9786630  65.7376911  24.1822475
  62.2256320  66.6296614  25.1462037  60.9815946  63.3648937  26.0431496
  60.4453303  62.9139675  26.6953092  60.3932654  63.4994845  25.3001960
  60.3918205  62.8237588   8.6057959  59.5147671  62.7026389   8.2420206
  60.8675958  62.0323666   8.3536848  70.2591198  71.2790656  25.3756415
  69.3717976  70.9416578  25.4982814  70.8289749  70.5473687  25.6125180
  51.9120345  67.6114748  18.6999466  52.5991385  67.2976478  18.1120482
  51.7568473  68.5156112  18.4266718  56.7155067  62.5004944  23.1284490
  56.6313256  61.8930614  22.3934900  55.8937773  62.9913963  23.1293986
  63.7892351  75.9392108  22.3417658  63.7162522  76.7447080  22.8536963
  63.3469744  76.1384074  21.5165680  63.5782131  75.1763878  15.8520480
  62.7949652  75.7185559  15.9458704  64.2774876  75.6937858  16.2514721
  66.8878781  60.9858508  18.4954685  67.3847480  60.2328470  18.1755755
  66.1165762  61.0222824  17.9297894  74.7408538  66.6898873  20.1372977
  74.7298414  67.5723589  19.7666910  73.8725918  66.3370424  19.9427514
  67.9708561  69.7430195  16.0693109  67.0364840  69.8631657  15.8997813
  68.1485230  68.8402662  15.8053118  63.4713749  63.1275891  18.2226370
  63.1011537  62.5746931  18.9107275  63.9672842  62.5234024  17.6701370
  71.3581113  65.5847514  16.6043143  71.8241565  66.4175506  16.5303445
  71.8088613  65.1192496  17.3088401  69.4257344  71.9291336  13.6029295
  69.7017188  71.8147930  14.5123169  68.5561843  71.5308820  13.5641468
  69.3297776  57.9528101  20.6434044  68.4160855  58.1832328  20.8116251
  69.7590877  58.0366545  21.4948076  69.1004234  66.1417993  23.1433938
  68.4475684  66.3893901  22.4886391  69.4784614  65.3282131  22.8096415
  66.0611408  76.1777686  17.2462108  66.2433802  75.3599342  17.7089861
  66.8844394  76.3945379  16.8086998  66.3953573  75.1045872  14.5077157
  66.9241340  74.5938326  13.8947319  66.6581793  74.7888402  15.3722690
  65.1491807  66.8837804  29.6299975  64.4732444  66.7831934  30.3002350
  65.9719441  66.7277018  30.0935972  59.7509321  76.1560988  17.2674933
  59.0819697  76.6407116  16.7838973  59.6122191  76.4030209  18.1818311
  51.4888321  65.6915341  20.9716934  51.5272420  65.1578932  21.7654052
  50.9828614  65.1650547  20.3527911  58.8679083  60.5379882  24.4679476
  58.9320410  61.3994712  24.0556874  58.8046203  59.9253883  23.7351834
  58.3431356  62.6103014  28.1152510  58.9703394  62.2280091  28.7290034
  57.4859275  62.3917216  28.4808203  55.1196898  64.4179443  14.0470865
  55.4150339  63.5090122  13.9937919  54.2184934  64.3967183  13.7251867
  67.0282977  76.1386707  20.8521273  66.9034117  75.3376447  20.3432219
  67.6862068  76.6332901  20.3635243  58.6491145  62.4935440  20.0298413
  57.9277731  63.1071407  19.8905887  59.4384401  63.0293205  19.9515059
  69.0917886  73.9395727  22.4800823  68.1448221  73.8201079  22.4079150
  69.4400659  73.0518225  22.5627085  61.4517459  59.8289866  26.3039065
  61.9751861  60.0752163  27.0665375  61.2329792  60.6609901  25.8842203
  56.8484740  62.0993541  14.1710190  56.5197446  61.2190920  13.9885296
  57.2024111  62.0441210  15.0586579  66.0964319  73.7348444  18.6805176
  65.9489281  72.8065151  18.8612746  66.9217812  73.7568534  18.1962251
  59.9626563  62.3866511  14.5385668  60.3022636  62.9152432  13.8164276
  60.4098684  62.7246917  15.3144234  69.6998441  74.5577002  19.7670048
  70.6244988  74.3519864  19.6294499  69.5313744  74.3093403  20.6759390
  62.6570004  60.7703561  23.9888736  62.3166824  59.9711374  24.3909416
  61.9509010  61.0705272  23.4165569  63.3086476  57.8552874  22.4416059
  64.1312545  57.3813352  22.3194949  63.5524539  58.6343358  22.9414745
  61.9494710  60.8841132  12.7378960  62.6703073  61.2622385  12.2342677
  61.3260014  61.6030009  12.8413938  66.0925833  61.5886281  13.6737293
  66.3089448  62.4710919  13.3726121  65.6119900  61.1972495  12.9442935
  60.8325055  64.5471994  20.2508037  60.6869635  64.8612298  21.1432319
  60.3550258  65.1656895  19.6978936  62.6921437  61.5374542  20.2988927
  62.6783006  60.6415636  19.9621225  63.4093866  61.5445206  20.9327213
  64.5447568  61.9711883  22.3442054  64.2865346  62.8928953  22.3426385
  64.0132609  61.5742317  23.0342519  69.4893757  75.0762670  15.1232140
  69.6630634  74.5109092  14.3705992  69.9822648  75.8763565  14.9411630
  62.0958333  60.4188923  15.5676497  62.2174245  59.4905569  15.7667385
  61.8060376  60.4327609  14.6554813  64.9649524  58.1043833  18.7043217
  64.9871221  58.1683166  17.7495197  65.3817583  57.2648342  18.8983723
  75.3433148  67.8399093  16.7422440  75.7864294  67.0906418  16.3441563
  74.4659658  67.8309229  16.3596172  70.4768929  74.3929434  12.2229038
  71.1719834  75.0136127  12.4416353  70.8192080  73.5424785  12.4981416
  72.3760353  71.8429140  13.7516369  72.9011677  72.1816412  13.0265689
  72.2882705  70.9076155  13.5679503  64.0601013  77.9101123  18.1111622
  63.6206004  77.4177502  18.8044479  64.8109130  77.3674091  17.8703697
  61.5074885  73.4539132  20.1833924  60.8854895  72.7909837  19.8836152
  62.1779752  73.4800264  19.5007571  61.5799413  61.9320920  29.7766430
  61.6287568  62.8083043  29.3944199  62.1221927  61.3898313  29.2038073
  72.1852134  69.3254510  26.3700295  72.2350139  69.1604517  27.3115818
  72.0766057  68.4581769  25.9798176  61.0688392  72.0043055  13.6592384
  61.2176513  72.6878520  13.0059057  61.8754836  71.9848145  14.1741840
  69.4755896  65.3085438  27.6859602  70.3765759  65.1691903  27.3943600
  69.5503871  65.4739893  28.6257779  63.8098701  62.6852292  26.5312788
  62.9402011  62.9785859  26.2595377  64.0458182  63.2692737  27.2520052
  73.6870330  71.7451451  26.6142317  73.3955139  72.1081432  27.4505778
  73.0742462  71.0318460  26.4355649  74.8866013  69.3104331  19.1344887
  75.7212904  69.7494135  19.2982447  75.0225142  68.8342984  18.3153133
  71.9357519  66.8684066  25.0822375  72.4111640  67.0611712  24.2741226
  71.0123084  66.9243252  24.8365759  58.8241025  68.0308233  14.6653453
  58.5787067  67.1270563  14.8633663  58.9936940  68.0325383  13.7232931
  66.5137735  58.9031909  24.0478209  67.0319679  59.6392936  23.7224697
  66.1592868  59.2095903  24.8824968  58.0936673  63.7636591  12.1639615
  57.4005918  63.8380946  11.5079651  57.8488425  62.9996934  12.6861132
  66.7650329  55.3232192  19.5679105  67.0452083  54.6555381  20.1939532
  67.5500936  55.5161288  19.0553769  64.5683798  74.4991186  11.1304132
  63.9957765  75.1181373  10.6774604  65.1416592  75.0490548  11.6644054
  70.6359188  63.7449826  23.3150680  71.5876611  63.8447924  23.3362904
  70.4662638  62.9528094  23.8248765  68.6573567  60.8305409  23.5010081
  68.0623499  61.1110422  22.8056570  68.3723264  61.3199310  24.2726822
  67.7881058  74.7828336  12.2612714  68.7211731  74.7173898  12.4645589
  67.7004270  75.6184603  11.8027247  70.4169074  74.0994206   9.2216661
  70.3382706  73.7654070  10.1152419  71.2378741  74.5915974   9.2208134
  73.1147265  66.9655946  22.4292980  73.0823586  66.0271946  22.6152664
  73.7247889  67.0439982  21.6958805  64.9530596  65.8351999   8.4720184
  65.8989701  65.7058207   8.5408602  64.5744841  65.0966661   8.9489612
  73.2641754  63.7566989  22.4751263  72.7480803  62.9725446  22.2881192
  74.1481703  63.4285706  22.6397783  70.9252481  57.5008005  18.4347076
  70.7277302  57.1923093  19.3190408  71.5352186  58.2269644  18.5645006
  78.9323815  68.0271952  21.5699017  79.6627204  67.7657241  22.1306720
  78.3230761  67.2900674  21.6101085  77.0139112  66.1679815  22.1673468
  76.2872276  66.0335780  21.5589960  76.5986399  66.4756644  22.9730186
  63.1373514  63.7601975   8.4075069  62.2304969  63.4635088   8.4837783
  63.4149495  63.4631793   7.5409356  54.0551454  65.0808338  18.8574116
  53.7354238  64.2273647  18.5648490  53.5084882  65.2956917  19.6132083
  57.8331361  67.7970779  22.5743622  58.0517371  68.7287887  22.5931656
  58.2457135  67.4378754  23.3598426  64.7535579  58.3038865  14.5619311
  63.9436308  57.9585950  14.9374557  65.4419996  57.9946408  15.1506922
  66.6826128  57.3816912  16.1843607  67.2357166  57.8012365  16.8433630
  66.9196214  56.4552660  16.2266563  62.7059227  63.3703985  31.9646371
  62.6055954  64.3198342  31.8958462  62.4880769  63.0422224  31.0922441
  61.9072298  60.6188910   8.5487049  62.7691462  60.9443809   8.8082866
  62.0922642  59.8320406   8.0360114  53.9239714  68.7011250  20.8267237
  53.2303185  68.2865203  20.3137192  54.6712705  68.7431786  20.2300656
  70.0604935  59.4917437  15.6922272  69.4803604  60.1502241  15.3100324
  69.7940867  58.6694781  15.2809689  68.5108501  58.8922494  17.8943592
  69.0108279  59.0039029  17.0857911  69.1544109  58.5883547  18.5344400
  62.5690497  66.8001124  30.7811433  62.0857579  67.6001484  30.9875322
  62.6551436  66.8109069  29.8278877  55.8376456  68.6329504  18.7033252
  55.8147145  68.7317191  17.7515135  56.1477093  69.4794654  19.0250418
  68.8429813  61.6517527  14.7478620  67.9555668  61.9367178  14.5298815
  69.2583802  61.4911290  13.9005897  72.1944349  61.6764048  18.4632959
  72.9704739  62.1660500  18.7357576  71.4692483  62.1022102  18.9204829
  74.6316907  62.3891667  19.5206900  75.2261398  62.1487403  18.8100208
  74.7043491  61.6698798  20.1480436  67.9873026  71.4162202   8.8426640
  68.6908876  71.6212204   9.4584295  67.2635675  71.9838964   9.1075723
  68.8170836  67.1672063  14.9628910  68.7606038  67.6240614  14.1236542
  69.3699179  66.4062748  14.7851753  72.6275642  62.9561795  15.7879029
  72.3712577  62.5558431  16.6187237  72.0028510  63.6705589  15.6629169
  76.9387980  65.6957868  18.2950321  76.3787538  65.7651057  19.0681883
  76.3331484  65.5198853  17.5749817  60.0083189  77.1294595  20.0468507
  59.8915573  78.0740028  19.9447197  59.1875635  76.8268157  20.4354306
  69.8959724  71.8544731  10.8925100  70.7305327  71.4225929  10.7102575
  69.7344066  71.6826745  11.8201994  69.5505616  68.3576844  12.2581439
  69.4954419  68.1921116  11.3169883  68.9251671  69.0652877  12.4143629
  62.8601741  57.8584953  11.8366758  62.8480411  58.8026793  11.9935028
  63.7525163  57.6755099  11.5426219  61.0337703  77.7822857  23.2624436
  61.9364950  77.8146467  23.5790931  60.8075073  76.8523308  23.2770771
  62.7891305  76.5353844  19.9234514  61.8386936  76.5355705  19.8098887
  63.0923791  75.7886578  19.4070549  66.6753861  54.4527730  16.0912694
  65.9086256  53.8986217  16.2369377  67.0864566  54.5249599  16.9526846
  58.6795622  60.7412526  30.1817876  59.5427083  60.3849331  30.3921200
  58.1061032  60.4026421  30.8693280  78.5243999  82.3714382  20.9880277
  79.1622409  82.2521129  20.2843617  78.4064841  83.3195226  21.0468229
  75.3333705  82.3241810  20.9241801  74.9952216  82.2082875  20.0362336
  76.2023473  81.9232975  20.9042807  71.1920521  84.1777287  16.9138692
  70.6285386  84.0867223  16.1454980  71.0772916  83.3577191  17.3941185
  75.8153488  83.4776662  26.8828007  75.8042129  83.0829460  26.0108511
  75.9774127  82.7442734  27.4761778  68.7384953  85.6728478  19.7522913
  69.5306244  85.3319303  19.3369212  68.9781603  85.7823453  20.6725066
  76.7720079  87.8448254  12.2253157  76.1208059  88.4302335  11.8387171
  77.5664442  88.3754449  12.2848195  70.6975706  84.9337391  12.6240292
  71.4706582  84.3866378  12.4853167  71.0501105  85.7981641  12.8354753
  72.5360749  86.2613774  25.8307191  72.2450615  87.1659405  25.7153857
  73.1717733  86.3030301  26.5451260  73.4616956  83.6390622  22.4208550
  74.0580528  83.4146645  21.7065513  73.5191927  82.8975368  23.0233998
  73.0341984  81.0930058  10.2558741  73.2867505  80.5711579   9.4942204
  72.0966543  80.9296203  10.3585425  78.0785267  80.0965836  18.0633485
  78.8648356  79.6785259  17.7123902  78.3423971  81.0011928  18.2315133
  78.2495344  85.5338686  12.7622141  77.6141177  85.6073313  13.4743046
  77.9192751  86.1232285  12.0841221  83.4793694  80.0341069  18.9666463
  84.2118866  79.4640286  19.2004293  82.7233050  79.6462670  19.4072969
  72.7538273  82.9958163  12.4583116  72.6374531  82.3203067  13.1264201
  72.8640533  82.5090537  11.6415269  75.0969814  82.4568311  16.1629806
  74.7328021  81.9298932  16.8742727  75.9536930  82.0666780  15.9896291
  81.0019115  73.7462643  23.4261072  80.6702439  74.6158054  23.2022287
  80.4064728  73.4298927  24.1055102  74.7375301  77.4858210  11.1591154
  74.9049703  78.3538447  11.5261625  74.5472470  77.6485492  10.2352443
  77.4950634  85.9475189  22.8256985  77.1951357  86.8500228  22.7172792
  77.1501694  85.6807372  23.6778137  70.9463116  82.3988986  18.8593689
  70.0213612  82.2665200  19.0671381  71.1947529  83.1783205  19.3563631
  80.8947778  78.4657729  20.5054422  79.9864655  78.3973138  20.2113183
  80.8435374  78.9429674  21.3336247  74.7164522  79.9415868  12.1437821
  74.5964147  80.3872919  12.9823301  74.0217110  80.2901185  11.5851359
  68.3071927  82.0422260  19.6937478  68.4364308  82.2956739  20.6076890
  67.6269378  82.6349968  19.3742133  72.4771414  92.7119510  15.7927952
  72.3995444  93.6627335  15.8716433  71.8733057  92.3665382  16.4502879
  74.9688644  79.8847375  28.4489319  74.1921978  80.4441295  28.4392184
  75.6079207  80.3704158  28.9704189  82.7609424  76.6674168  22.2832296
  82.1183805  76.9606701  21.6372090  82.2564353  76.5527088  23.0885492
  80.4149588  80.4137341  12.9718155  81.3267444  80.6464728  12.7965853
  79.9059235  80.9974385  12.4093234  73.2235016  82.6932828  28.0107286
  73.9649700  83.2317872  27.7342110  72.5172001  83.3199117  28.1678838
  78.6990356  84.8361969  26.6079448  79.1073712  84.3944379  25.8634080
  77.9767617  84.2614596  26.8613640  75.0521426  79.7734576  23.9813005
  75.8982621  80.1973989  24.1247654  74.9920063  79.1168200  24.6751568
  79.0219170  85.3963159  20.3631736  78.3928033  85.5608874  19.6607804
  78.6344832  85.8104769  21.1342701  82.9008402  86.3317597  17.7176100
  82.2159440  86.7116499  17.1673134  82.9852251  86.9412924  18.4508048
  78.2020871  77.4338944  25.6394178  77.9581803  78.1881004  25.1028454
  78.4780801  77.8124292  26.4741425  80.1559334  83.9777556  24.3171444
  80.3676229  84.6209316  23.6405825  80.1089082  83.1439873  23.8493374
  77.7585563  76.5895377  21.2208016  76.8970042  76.8876630  21.5124753
  77.7847997  76.8065776  20.2889049  74.5747132  85.1337567  17.6281822
  75.0385478  85.4125270  16.8386444  74.3103930  84.2321012  17.4454912
  71.4671213  84.6809049  20.5661585  72.0372570  85.1096317  19.9279069
  72.0579325  84.3991634  21.2645770  73.5116018  81.2560720  14.4371387
  74.2140062  81.7081764  14.9045313  73.1796647  80.6144539  15.0651280
  71.9596380  79.8472476  28.8122596  71.3295040  80.5288757  29.0457993
  71.8532468  79.7355558  27.8675734  67.2541352  79.5144273  19.7388520
  66.4640406  79.7701801  19.2628631  67.7452600  80.3292610  19.8440561
  81.2705162  86.8549512  22.4893801  82.0922605  86.4529699  22.2076483
  81.2667565  86.7517746  23.4409917  69.2056098  79.8788852  16.6971997
  68.4087261  79.9907546  17.2155493  68.9781690  80.2175504  15.8312887
  75.0361765  86.4033555  24.6454512  75.1006198  86.8653962  25.4812683
  74.3272689  85.7730920  24.7736821  89.3611155  83.1988260  18.8378773
  88.6074863  82.6295658  18.6822777  89.4958696  83.1650925  19.7849407
  74.7509783  88.0701662  14.5133492  74.6155458  88.9153198  14.9418340
  75.2919595  88.2720940  13.7499426  68.2039180  85.5877101  15.0861417
  68.7163701  86.3820351  15.2366982  68.8561893  84.8903391  15.0195018
  70.0134065  88.7042857  17.1684170  70.1900693  89.6260821  16.9805154
  70.8090898  88.3901276  17.5978550  74.1545083  75.5651121  28.7668104
  74.8954797  76.1658275  28.6872566  74.3863006  74.8228759  28.2086146
  76.3778259  88.6925229  28.6433834  75.9342113  87.9061608  28.3254739
  77.0395473  88.8804379  27.9777725  71.1365380  90.2221031  23.1694513
  71.6872805  90.0938094  22.3971506  70.2976856  90.5215920  22.8189405
  78.4759497  88.9728029  26.6715235  78.4577973  89.7936910  26.1795504
  79.3979417  88.8482104  26.8965376  74.9332551  86.4872158  27.5138744
  75.4660888  85.7260447  27.2838052  74.4046633  86.1945810  28.2562898
  78.1002246  71.5932224  23.0432385  77.7566516  72.4833866  22.9671496
  78.4681209  71.4033882  22.1801970  66.1688097  83.9165755  15.8620988
  67.0063319  84.3262763  15.6454695  66.3466365  82.9765197  15.8321181
  78.0652529  81.5840835  11.5504821  77.5499153  82.3545440  11.7893208
  77.7929838  80.9105972  12.1737882  75.6499640  76.4290536  16.6090059
  74.7941236  76.0397387  16.4295698  76.0626592  76.5082497  15.7489844
  77.1798787  73.9636880  21.0081619  76.6763582  73.9267015  20.1949424
  77.4729394  74.8729622  21.0678275  73.4241673  74.0475609  20.0147800
  74.2894669  73.8518418  19.6553690  73.4919182  73.8185961  20.9417157
  83.0386803  84.3373190  13.4857994  82.2616246  83.9984350  13.0413156
  83.7178284  84.3425813  12.8112959  77.8538832  79.4567928  13.3764602
  77.5488968  79.7714077  14.2274745  78.8069274  79.5349347  13.4191935
  76.2985264  85.6158151  15.0257556  75.7706626  84.8810910  14.7130793
  75.7972767  86.3932827  14.7797524  81.2778110  83.8107171  20.1424602
  80.6201785  84.5006433  20.2304731  82.0818509  84.2003603  20.4858588
  71.0303992  76.2777817  17.3864167  71.6047744  76.0552999  16.6537360
  71.6174974  76.3466512  18.1392768  80.0883569  82.1651544  18.1928544
  80.6015451  82.7981536  18.6950253  80.7384793  81.5652740  17.8271904
  71.3573579  78.3082278  11.4060052  70.5210891  78.6456965  11.7269327
  71.2178348  78.1731258  10.4687189  73.3326659  73.1519066  16.1139237
  72.6791072  72.8368083  15.4895851  73.2907134  72.5294807  16.8399060
  74.4437864  83.4338361   8.0292529  73.5364926  83.2027615   8.2283678
  74.9408896  82.6375980   8.2166510  76.5664400  79.6401000  20.4386884
  75.6486961  79.8615947  20.2808572  76.9824543  79.7147310  19.5798592
  77.3499448  81.0392415  15.5689565  78.0971267  81.5513813  15.2596687
  77.6191037  80.7176468  16.4293958  75.6226098  83.5350956  12.5516519
  74.7137317  83.2509989  12.6488989  75.6521182  83.9550035  11.6919826
  80.8545365  87.1457546  16.3207686  80.4007692  86.3048455  16.3772877
  80.2239332  87.7818944  16.6582467  79.7978285  78.0749532  17.5508354
  79.0601042  77.5626918  17.8818596  80.0505058  77.6349913  16.7391631
  79.2978304  88.9834042  17.2557504  79.5901279  89.5439099  16.5369870
  79.8076925  89.2762603  18.0110664  79.8989912  70.8525784  18.1450123
  80.2048789  69.9923147  17.8576038  80.6242517  71.4443404  17.9449117
  66.1914268  81.2556470  16.5331721  65.9938668  80.6625831  15.8082788
  65.6360932  80.9508680  17.2507660  74.1710992  81.1479577  18.6526314
  74.2259602  80.1953413  18.5768791  73.3602194  81.3039016  19.1367613
  75.3202186  85.0759700   9.8904597  74.8821615  84.3595559   9.4310235
  76.0612626  85.3035815   9.3289689  72.1103352  79.7656636  16.4116693
  71.2971217  80.0650807  16.8181885  72.6062346  79.3712325  17.1291175
  74.2611930  89.7614393  18.3450958  74.2188108  89.9875240  17.4159490
  75.1774628  89.5277768  18.4936759  77.7077563  80.2298461  25.2431587
  78.0626951  80.4569934  26.1026053  78.3549695  80.5616838  24.6208842
  83.4375300  83.3516897  15.9480916  83.2993199  83.5418493  15.0202105
  83.0811519  84.1136280  16.4048967  71.6017426  77.3374992  22.0277928
  72.2416806  77.1963751  21.3300891  70.7694957  77.0509505  21.6516530
  83.4644680  85.4193424  20.9592187  83.8981187  85.3268713  21.8075241
  84.1776261  85.3950924  20.3212203  72.3777730  86.6377422  18.1412920
  73.1718329  86.1427742  17.9395495  71.6669423  86.1095285  17.7780626
  77.1972575  89.0195518  22.4925288  77.2509597  89.5886454  23.2603004
  76.3287356  89.1897403  22.1279325  68.6860494  80.7820504  14.2172673
  67.7558082  80.7204960  14.4342635  68.7817966  80.2596457  13.4209314
  68.6046043  77.3075317  16.8050915  68.8652860  78.2220650  16.6960075
  69.4263215  76.8399759  16.9547528  70.0770968  78.7213074  23.9749739
  70.7494022  78.5130436  23.3262388  69.2500755  78.5235160  23.5354972
  84.3260229  85.4617124  23.4925073  84.5196120  86.3662935  23.7384348
  84.2260848  85.0024543  24.3263658  75.9796540  75.3475015  25.9915400
  75.3324455  76.0464965  25.8979877  76.7497556  75.7811159  26.3591648
  79.3875338  85.6123867  29.0665953  79.2360845  85.3834419  28.1496037
  79.3780018  86.5694469  29.0797298  76.1560675  83.1855780  24.0512220
  77.0852735  83.3366939  23.8781187  75.7351705  83.2739801  23.1960866
  74.9549006  87.2106444  21.8210758  74.8160092  86.8425229  22.6936696
  74.1663603  87.7254084  21.6494715  75.5497158  92.3115541  13.1636294
  75.7248914  91.8403584  13.9781917  74.8629946  92.9381307  13.3917555
  76.5054222  86.5888047  19.2099595  76.1704054  86.5488817  20.1057245
  76.0058167  85.9232763  18.7370006  70.4798465  81.9955677  24.7352176
  70.3418263  81.2635916  25.3363716  71.3903389  81.9064577  24.4536364
  73.1080766  81.7075636  24.2235856  73.8180385  81.0668829  24.1822475
  73.0650074  81.9588531  25.1462037  81.0967545  88.6442990  27.1442435
  81.0380091  87.9602210  26.4773018  81.4987063  89.3861980  26.6923061
  71.8209700  78.6940854  26.0431496  71.2847057  78.2431593  26.6953092
  71.2326409  78.8286763  25.3001960  70.1158244  95.4604904  19.9376154
  70.3554842  96.0923428  20.6155173  69.2727440  95.1092944  20.2241513
  71.2311959  78.1529506   8.6057959  70.3541425  78.0318306   8.2420206
  71.7069712  77.3615584   8.3536848  81.0984952  86.6082574  25.3756415
  80.2111731  86.2708495  25.4982814  81.6683503  85.8765605  25.6125180
  67.5548821  77.8296862  23.1284490  67.4707010  77.2222531  22.3934900
  66.7331528  78.3205880  23.1293986  74.6286105  91.2684026  22.3417658
  74.5556277  92.0738997  22.8536963  74.1863499  91.4675992  21.5165680
  74.4175885  90.5055796  15.8520480  73.6343407  91.0477476  15.9458704
  75.1168630  91.0229776  16.2514721  77.7272535  76.3150425  18.4954685
  78.2241235  75.5620388  18.1755755  76.9559517  76.3514742  17.9297894
  85.5802293  82.0190791  20.1372977  85.5692169  82.9015506  19.7666910
  84.7119672  81.6662342  19.9427514  77.0884789  91.1670860  24.4975817
  77.8012761  91.8018325  24.4251718  76.5974818  91.2634726  23.6815819
  78.8102316  85.0722113  16.0693109  77.8758595  85.1923575  15.8997813
  78.9878984  84.1694579  15.8053118  74.3107504  78.4567808  18.2226370
  73.9405291  77.9038849  18.9107275  74.8066596  77.8525942  17.6701370
  82.1974867  80.9139432  16.6043143  82.6635319  81.7467424  16.5303445
  82.6482368  80.4484414  17.3088401  72.1396703  88.9165303  25.3181388
  72.8406162  89.5501786  25.4710782  71.6691818  89.2580035  24.5577027
  80.2651098  87.2583253  13.6029295  80.5410942  87.1439848  14.5123169
  79.3955597  86.8600738  13.5641468  80.1691530  73.2820019  20.6434044
  79.2554610  73.5124246  20.8116251  80.5984631  73.3658463  21.4948076
  79.9397988  81.4709911  23.1433938  79.2869439  81.7185818  22.4886391
  80.3178368  80.6574049  22.8096415  76.9005162  91.5069604  17.2462108
  77.0827557  90.6891260  17.7089861  77.7238148  91.7237296  16.8086998
  77.2347328  90.4337789  14.5077157  77.7635094  89.9230244  13.8947319
  77.4975547  90.1180319  15.3722690  75.9885562  82.2129722  29.6299975
  75.3126199  82.1123851  30.3002350  76.8113195  82.0568936  30.0935972
  67.7364421  88.4501659  22.2512490  68.3217857  87.7045346  22.3840395
  67.5389259  88.7605615  23.1349154  70.5903076  91.4852906  17.2674933
  69.9213451  91.9699034  16.7838973  70.4515946  91.7322126  18.1818311
  74.7308344  93.5196649  23.8657591  75.2826652  93.6828271  24.6306676
  75.0714538  94.1101087  23.1937616  69.7072838  75.8671799  24.4679476
  69.7714164  76.7286630  24.0556874  69.6439958  75.2545801  23.7351834
  79.5819219  88.3457907  29.7206246  80.1259123  88.9587865  29.2261200
  79.0006064  88.9037485  30.2373259  65.9590653  79.7471361  14.0470865
  66.2544094  78.8382039  13.9937919  65.0578689  79.7259100  13.7251867
  77.8676732  91.4678625  20.8521273  77.7427871  90.6668365  20.3432219
  78.5255823  91.9624818  20.3635243  69.4884900  77.8227357  20.0298413
  68.7671486  78.4363325  19.8905887  70.2778156  78.3585122  19.9515059
  79.9311640  89.2687645  22.4800823  78.9841976  89.1492996  22.4079150
  80.2794413  88.3810143  22.5627085  72.2911213  75.1581784  26.3039065
  72.8145615  75.4044080  27.0665375  72.0723547  75.9901819  25.8842203
  67.6878494  77.4285459  14.1710190  67.3591201  76.5482837  13.9885296
  68.0417865  77.3733127  15.0586579  76.9358073  89.0640361  18.6805176
  76.7883036  88.1357069  18.8612746  77.7611567  89.0860452  18.1962251
  70.8020318  77.7158428  14.5385668  71.1416390  78.2444350  13.8164276
  71.2492438  78.0538834  15.3144234  80.5392195  89.8868920  19.7670048
  81.4638743  89.6811781  19.6294499  80.3707499  89.6385321  20.6759390
  73.4963758  76.0995479  23.9888736  73.1560579  75.3003292  24.3909416
  72.7902765  76.3997190  23.4165569  74.1480230  73.1844791  22.4416059
  74.9706300  72.7105270  22.3194949  74.3918294  73.9635275  22.9414745
  72.7888465  76.2133050  12.7378960  73.5096827  76.5914303  12.2342677
  72.1653769  76.9321927  12.8413938  76.9319588  76.9178199  13.6737293
  77.1483202  77.8002837  13.3726121  76.4513655  76.5264412  12.9442935
  71.6718809  79.8763912  20.2508037  71.5263390  80.1904215  21.1432319
  71.1944013  80.4948812  19.6978936  73.5315192  76.8666460  20.2988927
  73.5176761  75.9707553  19.9621225  74.2487620  76.8737124  20.9327213
  75.3841323  77.3003800  22.3442054  75.1259100  78.2220871  22.3426385
  74.8526363  76.9034235  23.0342519  80.3287511  90.4054587  15.1232140
  80.5024389  89.8401010  14.3705992  80.8216403  91.2055482  14.9411630
  72.9352088  75.7480840  15.5676497  73.0567999  74.8197487  15.7667385
  72.6454130  75.7619526  14.6554813  75.8043278  73.4335751  18.7043217
  75.8264975  73.4975084  17.7495197  76.2211337  72.5940259  18.8983723
  86.1826903  83.1691010  16.7422440  86.6258049  82.4198336  16.3441563
  85.3053413  83.1601147  16.3596172  74.8774156  91.0855131  25.8806245
  75.1861282  90.8404278  26.7528945  75.6749638  91.2901769  25.3925116
  74.8994768  93.2393041  18.1111622  74.4599758  92.7469419  18.8044479
  75.6502885  92.6966008  17.8703697  67.3787107  89.4304581  18.1136250
  68.2045127  89.1308353  17.7334894  67.0281159  88.6612204  18.5626039
  72.3468640  88.7831050  20.1833924  71.7248649  88.1201755  19.8836152
  73.0173507  88.8092182  19.5007571  65.5795712  87.3490908  19.0725184
  64.7427620  86.9213082  18.8909185  65.5519357  87.5423351  20.0095975
  82.9048013  87.8053961  29.0567567  82.1143557  87.7878100  28.5172066
  82.6681368  88.3442255  29.8116603  83.0245888  84.6546427  26.3700295
  83.0743893  84.4896435  27.3115818  82.9159811  83.7873686  25.9798176
  71.9082147  87.3334973  13.6592384  72.0570267  88.0170437  13.0059057
  72.7148590  87.3140063  14.1741840  80.3149651  80.6377355  27.6859602
  81.2159513  80.4983820  27.3943600  80.3897625  80.8031810  28.6257779
  74.6492456  78.0144210  26.5312788  73.7795765  78.3077776  26.2595377
  74.8851936  78.5984655  27.2520052  84.5264085  87.0743369  26.6142317
  84.2348893  87.4373349  27.4505778  83.9136216  86.3610377  26.4355649
  85.7259767  84.6396249  19.1344887  86.5606659  85.0786053  19.2982447
  85.8618896  84.1634902  18.3153133  82.7751273  82.1975984  25.0822375
  83.2505395  82.3903630  24.2741226  81.8516839  82.2535169  24.8365759
  69.6634780  83.3600151  14.6653453  69.4180822  82.4562481  14.8633663
  69.8330694  83.3617301  13.7232931  77.3531490  74.2323827  24.0478209
  77.8713434  74.9684854  23.7224697  76.9986622  74.5387820  24.8824968
  68.9330427  79.0928508  12.1639615  68.2399672  79.1672863  11.5079651
  68.6882179  78.3288852  12.6861132  77.6044084  70.6524110  19.5679105
  77.8845838  69.9847299  20.1939532  78.3894691  70.8453205  19.0553769
  81.4752942  79.0741744  23.3150680  82.4270365  79.1739841  23.3362904
  81.3056393  78.2820012  23.8248765  79.4967322  76.1597327  23.5010081
  78.9017254  76.4402340  22.8056570  79.2117018  76.6491228  24.2726822
  83.9541020  82.2947863  22.4292980  83.9217340  81.3563864  22.6152664
  84.5641644  82.3731900  21.6958805  75.7924351  81.1643916   8.4720184
  76.7383456  81.0350124   8.5408602  75.4138596  80.4258578   8.9489612
  84.1035508  79.0858907  22.4751263  83.5874557  78.3017363  22.2881192
  84.9875457  78.7577623  22.6397783  81.7646235  72.8299922  18.4347076
  81.5671057  72.5215010  19.3190408  82.3745941  73.5561561  18.5645006
  89.7717570  83.3563870  21.5699017  90.5020958  83.0949158  22.1306720
  89.1624515  82.6192592  21.6101085  87.8532867  81.4971733  22.1673468
  87.1266031  81.3627698  21.5589960  87.4380154  81.8048561  22.9730186
  75.6763043  85.2161662  29.9320841  76.5966053  85.3940261  30.1260888
  75.6412626  84.2717708  29.7800540  73.9767268  79.0893893   8.4075069
  73.0698723  78.7927005   8.4837783  74.2543249  78.7923711   7.5409356
  68.6725116  83.1262697  22.5743622  68.8911126  84.0579805  22.5931656
  69.0850890  82.7670671  23.3598426  75.5929334  73.6330782  14.5619311
  74.7830062  73.2877867  14.9374557  76.2813751  73.3238326  15.1506922
  77.5219882  72.7108829  16.1843607  78.0750921  73.1304283  16.8433630
  77.7589968  71.7844577  16.2266563  72.7466053  75.9480828   8.5487049
  73.6085217  76.2735726   8.8082866  72.9316397  75.1612324   8.0360114
  80.8998689  74.8209354  15.6922272  80.3197358  75.4794158  15.3100324
  80.6334622  73.9986699  15.2809689  79.3502255  74.2214412  17.8943592
  79.8502034  74.3330947  17.0857911  79.9937863  73.9175465  18.5344400
  73.4084251  82.1293042  30.7811433  72.9251333  82.9293402  30.9875322
  73.4945190  82.1400987  29.8278877  66.6770211  83.9621421  18.7033252
  66.6540899  84.0609109  17.7515135  66.9870847  84.8086572  19.0250418
  69.3357589  86.0197576  22.8179867  70.2900842  85.9881519  22.7509798
  69.1370112  85.5588200  23.6330093  69.9256971  84.5898692  25.3850664
  70.7449860  85.0842771  25.4085502  70.1993779  83.6730661  25.3568232
  79.6823567  76.9809445  14.7478620  78.7949422  77.2659095  14.5298815
  80.0977556  76.8203208  13.9005897  83.0338103  77.0055966  18.4632959
  83.8098493  77.4952418  18.7357576  82.3086237  77.4314020  18.9204829
  85.4710662  77.7183585  19.5206900  86.0655153  77.4779321  18.8100208
  85.5437246  76.9990715  20.1480436  67.6907818  91.5617196  19.8350065
  67.5562286  90.8017597  19.2688063  67.2739880  92.2858096  19.3678853
  79.6564591  82.4963981  14.9628910  79.5999792  82.9532532  14.1236542
  80.2092933  81.7354665  14.7851753  83.4669397  78.2853713  15.7879029
  83.2106331  77.8850348  16.6187237  82.8422265  78.9997506  15.6629169
  87.7781735  81.0249786  18.2950321  87.2181293  81.0942975  19.0681883
  87.1725238  80.8490770  17.5749817  70.8476943  92.4586513  20.0468507
  70.7309328  93.4031945  19.9447197  70.0269390  92.1560074  20.4354306
  80.3899370  83.6868762  12.2581439  80.3348174  83.5213033  11.3169883
  79.7645425  84.3944795  12.4143629  77.7045277  85.9917674  31.5835002
  78.5736437  86.1658326  31.2221637  77.2252029  86.8112091  31.4610731
  73.6995496  73.1876871  11.8366758  73.6874165  74.1318711  11.9935028
  74.5918918  73.0047016  11.5426219  71.8731458  93.1114775  23.2624436
  72.7758704  93.1438385  23.5790931  71.6468828  92.1815226  23.2770771
  73.6285060  91.8645761  19.9234514  72.6780691  91.8647623  19.8098887
  73.9317546  91.1178496  19.4070549  77.5147615  69.7819648  16.0912694
  76.7480011  69.2278134  16.2369377  77.9258320  69.8541516  16.9526846
  86.1727459  97.6533728  20.9241801  85.8345971  97.5374793  20.0362336
  87.0417228  97.2524893  20.9042807  86.6547242  98.8068580  26.8828007
  86.6435883  98.4121378  26.0108511  86.8167882  98.0734652  27.4761778
  83.3754503 101.5905691  25.8307191  83.0844369 102.4951322  25.7153857
  84.0111488 101.6322219  26.5451260  84.3010710  98.9682540  22.4208550
  84.8974283  98.7438562  21.7065513  84.3585682  98.2267285  23.0233998
  91.8412869  89.0754561  23.4261072  91.5096194  89.9449972  23.2022287
  91.2458482  88.7590845  24.1055102  81.7856870  97.7280904  18.8593689
  80.8607367  97.5957118  19.0671381  82.0341283  98.5075123  19.3563631
  91.7341532  93.7949647  20.5054422  90.8258410  93.7265055  20.2113183
  91.6829128  94.2721592  21.3336247  79.1465681  97.3714177  19.6937478
  79.2758062  97.6248656  20.6076890  78.4663132  97.9641885  19.3742133
  85.8082398  95.2139293  28.4489319  85.0315732  95.7733213  28.4392184
  86.4472961  95.6996076  28.9704189  93.6003179  91.9966085  22.2832296
  92.9577559  92.2898619  21.6372090  93.0958107  91.8819006  23.0885492
  84.0628770  98.0224746  28.0107286  84.8043455  98.5609790  27.7342110
  83.3565756  98.6491035  28.1678838  89.5384110 100.1653886  26.6079448
  89.9467466  99.7236297  25.8634080  88.8161372  99.5906514  26.8613640
  85.8915180  95.1026493  23.9813005  86.7376375  95.5265907  24.1247654
  85.8313818  94.4460118  24.6751568  89.0414625  92.7630862  25.6394178
  88.7975557  93.5172922  25.1028454  89.3174556  93.1416209  26.4741425
  90.9953088  99.3069474  24.3171444  91.2069983  99.9501234  23.6405825
  90.9482836  98.4731791  23.8493374  88.5979317  91.9187295  21.2208016
  87.7363796  92.2168548  21.5124753  88.6241752  92.1357694  20.2889049
  82.7990134  95.1764394  28.8122596  82.1688795  95.8580675  29.0457993
  82.6926222  95.0647476  27.8675734  78.0935107  94.8436190  19.7388520
  77.3034161  95.0993719  19.2628631  78.5846354  95.6584528  19.8440561
  85.8755520 101.7325473  24.6454512  85.9399952 102.1945880  25.4812683
  85.1666444 101.1022838  24.7736821  76.3772810  95.0966681  22.1703511
  76.6280848  95.9813691  22.4361087  76.9132358  94.9171282  21.3978603
  82.0770877  89.4785160  31.1747847  81.6837822  88.9251359  31.8495491
  82.8937017  89.7895738  31.5654365  84.9938838  90.8943039  28.7668104
  85.7348551  91.4950192  28.6872566  85.2256761  90.1520677  28.2086146
  80.1380176  96.0799406  27.0446333  80.0233691  95.1784664  27.3453432
  79.2824694  96.3263103  26.6931150  87.2172014 104.0217147  28.6433834
  86.7735868 103.2353525  28.3254739  87.8789227 104.2096297  27.9777725
  89.3153252 104.3019947  26.6715235  89.2971727 105.1228828  26.1795504
  90.2373172 104.1774022  26.8965376  85.7726306 101.8164076  27.5138744
  86.3054643 101.0552364  27.2838052  85.2440387 101.5237728  28.2562898
  88.9396001  86.9224142  23.0432385  88.5960270  87.8125784  22.9671496
  89.3074963  86.7325800  22.1801970  88.0192541  89.2928797  21.0081619
  87.5157337  89.2558932  20.1949424  88.3123148  90.2021540  21.0678275
  84.2635427  89.3767527  20.0147800  85.1288424  89.1810336  19.6553690
  84.3312936  89.1477879  20.9417157  81.8697746  91.6069735  17.3864167
  82.4441498  91.3844916  16.6537360  82.4568729  91.6758429  18.1392768
  84.1720414  88.4810984  16.1139237  83.5184826  88.1660001  15.4895851
  84.1300888  87.8586724  16.8399060  87.4058154  94.9692917  20.4386884
  86.4880716  95.1907864  20.2808572  87.8218298  95.0439228  19.5798592
  90.7383667  86.1817701  18.1450123  91.0442543  85.3215065  17.8576038
  91.4636271  86.7735321  17.9449117  77.0308023  96.5848388  16.5331721
  76.8332422  95.9917749  15.8082788  76.4754687  96.2800598  17.2507660
  88.5471318  95.5590379  25.2431587  88.9020706  95.7861852  26.1026053
  89.1943449  95.8908755  24.6208842  82.4411181  92.6666910  22.0277928
  83.0810560  92.5255669  21.3300891  81.6088711  92.3801423  21.6516530
  79.4439797  92.6367235  16.8050915  79.7046615  93.5512568  16.6960075
  80.2656970  92.1691677  16.9547528  80.9164723  94.0504992  23.9749739
  81.5887776  93.8422354  23.3262388  80.0894509  93.8527078  23.5354972
  86.8190295  90.6766933  25.9915400  86.1718210  91.3756882  25.8979877
  87.5891310  91.1103077  26.3591648  90.2269093 100.9415785  29.0665953
  90.0754599 100.7126337  28.1496037  90.2173772 101.8986386  29.0797298
  86.9954429  98.5147698  24.0512220  87.9246489  98.6658857  23.8781187
  86.5745459  98.6031718  23.1960866  81.3192220  97.3247595  24.7352176
  81.1812018  96.5927834  25.3363716  82.2297143  97.2356495  24.4536364
  83.9474521  97.0367554  24.2235856  84.6574139  96.3960746  24.1822475
  83.9043829  97.2880449  25.1462037  82.6603455  94.0232772  26.0431496
  82.1240812  93.5723510  26.6953092  82.0720163  94.1578681  25.3001960
  91.9378707 101.9374491  25.3756415  91.0505485 101.6000413  25.4982814
  92.5077258 101.2057523  25.6125180  73.5907854  98.2698583  18.6999466
  74.2778894  97.9560313  18.1120482  73.4355982  99.1739948  18.4266718
  78.3942576  93.1588780  23.1284490  78.3100765  92.5514449  22.3934900
  77.5725282  93.6497798  23.1293986  88.5666290  91.6442343  18.4954685
  89.0634989  90.8912305  18.1755755  87.7953271  91.6806660  17.9297894
  85.1501258  93.7859726  18.2226370  84.7799046  93.2330767  18.9107275
  85.6460351  93.1817860  17.6701370  82.9790457 104.2457221  25.3181388
  83.6799917 104.8793704  25.4710782  82.5085572 104.5871953  24.5577027
  91.0085284  88.6111937  20.6434044  90.0948364  88.8416163  20.8116251
  91.4378386  88.6950381  21.4948076  90.7791743  96.8001829  23.1433938
  90.1263193  97.0477736  22.4886391  91.1572123  95.9865967  22.8096415
  86.8279316  97.5421640  29.6299975  86.1519953  97.4415769  30.3002350
  87.6506950  97.3860853  30.0935972  78.5758175 103.7793576  22.2512490
  79.1611612 103.0337264  22.3840395  78.3783014 104.0897533  23.1349154
  73.1675830  96.3499176  20.9716934  73.2059929  95.8162767  21.7654052
  72.6616123  95.8234382  20.3527911  80.5466592  91.1963717  24.4679476
  80.6107919  92.0578548  24.0556874  80.4833712  90.5837719  23.7351834
  80.0218865  93.2686849  28.1152510  80.6490903  92.8863927  28.7290034
  79.1646783  93.0501051  28.4808203  90.4212973 103.6749825  29.7206246
  90.9652877 104.2879783  29.2261200  89.8399818 104.2329403  30.2373259
  80.3278654  93.1519275  20.0298413  79.6065240  93.7655243  19.8905887
  81.1171910  93.6877040  19.9515059  83.1304968  90.4873702  26.3039065
  83.6539370  90.7335998  27.0665375  82.9117301  91.3193736  25.8842203
  84.3357513  91.4287397  23.9888736  83.9954333  90.6295210  24.3909416
  83.6296519  91.7289108  23.4165569  84.9873985  88.5136709  22.4416059
  85.8100054  88.0397187  22.3194949  85.2312048  89.2927193  22.9414745
  82.5112564  95.2055830  20.2508037  82.3657144  95.5196133  21.1432319
  82.0337767  95.8240730  19.6978936  84.3708946  92.1958378  20.2988927
  84.3570515  91.2999471  19.9621225  85.0881375  92.2029042  20.9327213
  86.2235077  92.6295718  22.3442054  85.9652855  93.5512789  22.3426385
  85.6920118  92.2326153  23.0342519  76.9858226  97.7461174  23.1895699
  76.4411694  98.5220982  23.3215973  77.8637576  98.0931979  23.0314820
  86.6437033  88.7627669  18.7043217  86.6658730  88.8267002  17.7495197
  87.0605092  87.9232177  18.8983723  77.7724248  96.8731070  26.0825855
  77.0305984  97.0213706  26.6690486  77.4516992  97.1339336  25.2192605
  83.2586922  92.5904755  29.7766430  83.3075077  93.4666878  29.3944199
  83.8009436  92.0482148  29.2038073  93.7441768 103.1345879  29.0567567
  92.9537311 103.1170018  28.5172066  93.5075122 103.6734172  29.8116603
  93.8639643  99.9838345  26.3700295  93.9137648  99.8188353  27.3115818
  93.7553566  99.1165604  25.9798176  91.1543405  95.9669273  27.6859602
  92.0553268  95.8275738  27.3943600  91.2291380  96.1323728  28.6257779
  85.4886210  93.3436128  26.5312788  84.6189520  93.6369694  26.2595377
  85.7245691  93.9276573  27.2520052  93.6145028  97.5267901  25.0822375
  94.0899149  97.7195548  24.2741226  92.6910593  97.5827087  24.8365759
  88.1925244  89.5615745  24.0478209  88.7107188  90.2976772  23.7224697
  87.8380377  89.8679738  24.8824968  88.4437838  85.9816027  19.5679105
  88.7239592  85.3139216  20.1939532  89.2288445  86.1745123  19.0553769
  92.3146697  94.4033661  23.3150680  93.2664120  94.5031759  23.3362904
  92.1450147  93.6111930  23.8248765  90.3361076  91.4889245  23.5010081
  89.7411008  91.7694257  22.8056570  90.0510773  91.9783145  24.2726822
  94.9429263  94.4150824  22.4751263  94.4268312  93.6309281  22.2881192
  95.8269211  94.0869541  22.6397783  92.6039990  88.1591840  18.4347076
  92.4064811  87.8506928  19.3190408  93.2139695  88.8853479  18.5645006
  86.5156798 100.5453580  29.9320841  87.4359807 100.7232179  30.1260888
  86.4806381  99.6009625  29.7800540  75.7338963  95.7392174  18.8574116
  75.4141747  94.8857482  18.5648490  75.1872391  95.9540752  19.6132083
  79.5118870  98.4554615  22.5743622  79.7304880  99.3871723  22.5931656
  79.9244644  98.0962589  23.3598426  88.3613637  88.0400747  16.1843607
  88.9144675  88.4596200  16.8433630  88.5983723  87.1136495  16.2266563
  84.3846736  94.0287821  31.9646371  84.2843463  94.9782177  31.8958462
  84.1668278  93.7006059  31.0922441  75.6027223  99.3595085  20.8267237
  74.9090694  98.9449038  20.3137192  76.3500214  99.4015622  20.2300656
  84.2478006  97.4584959  30.7811433  83.7645087  98.2585319  30.9875322
  84.3338945  97.4692904  29.8278877  77.5163965  99.2913339  18.7033252
  77.4934654  99.3901026  17.7515135  77.8264602 100.1378490  19.0250418
  80.1751343 101.3489494  22.8179867  81.1294597 101.3173436  22.7509798
  79.9763867 100.8880118  23.6330093  80.7650725  99.9190610  25.3850664
  81.5843614 100.4134689  25.4085502  81.0387533  99.0022578  25.3568232
  76.0185640  94.2528744  26.0842861  76.6644503  93.7427698  26.5730087
  75.8102791  94.9897426  26.6586287  88.5439032 101.3209591  31.5835002
  89.4130191 101.4950244  31.2221637  88.0645783 102.1404008  31.4610731
  88.3541370  85.1111565  16.0912694  87.5873765  84.5570052  16.2369377
  88.7652075  85.1833434  16.9526846  80.3583131  91.3996361  30.1817876
  81.2214592  91.0433166  30.3921200  79.7848541  91.0610256  30.8693280
  92.9164631 104.8077078  31.1747847  92.5231577 104.2543276  31.8495491
  93.7330772 105.1187656  31.5654365  95.2240490 109.3579738  31.9646371
  95.1237217 110.3074095  31.8958462  95.0062032 109.0297977  31.0922441
  91.1976885 106.7288279  30.1817876  92.0608347 106.3725084  30.3921200
  90.6242296 106.3902174  30.8693280  47.0637957  19.3644276  16.4451552
  47.6077860  19.9774235  15.9506507  46.4824801  19.9223855  16.9618565
  50.3866751  18.8240331  15.7812873  49.5962295  18.8064469  15.2417373
  50.1500105  19.3628624  16.5361910  45.1864015  17.0104043  18.3080309
  46.0555175  17.1844696  17.9466944  44.7070767  17.8298460  18.1856038
  56.8456491  28.7192669   7.7125583  57.4834901  28.5999417   7.0088923
  56.7277334  29.6673513   7.7713535  54.1365980  29.8254949  13.6073313
  54.1254621  29.4307747  12.7353817  54.2986620  29.0921022  14.2007085
  50.8573241  32.6092061  12.5552497  50.5663107  33.5137692  12.4399164
  51.4930226  32.6508589  13.2696567  51.7829448  29.9868909   9.1453857
  52.3793020  29.7624932   8.4310820  51.8404420  29.2453655   9.7479305
  61.8006186  26.3819356   5.6911770  62.5331358  25.8118573   5.9249599
  61.0445542  25.9940957   6.1318275  59.3231607  20.0940930  10.1506378
  58.9914932  20.9636341   9.9267593  58.7277220  19.7777214  10.8300409
  55.8163126  32.2953476   9.5502291  55.5163849  33.1978515   9.4418098
  55.4714186  32.0285660  10.4023444  50.7983906  39.0597797   2.5173259
  50.7207936  40.0105622   2.5961739  50.1945550  38.7143669   3.1748185
  53.2901136  26.2325662  15.1734626  52.5134470  26.7919582  15.1637490
  53.9291699  26.7182445  15.6949496  61.0821917  23.0152455   9.0077602
  60.4396297  23.3084988   8.3617397  60.5776845  22.9005375   9.8130799
  51.5447508  29.0411116  14.7352593  52.2862193  29.5796160  14.4587416
  50.8384494  29.6677404  14.8924145  57.0202848  31.1840256  13.3324754
  57.4286204  30.7422667  12.5879387  56.2980109  30.6092884  13.5858947
  53.3733918  26.1212863  10.7058311  54.2195113  26.5452276  10.8492960
  53.3132556  25.4646487  11.3996874  57.3431663  31.7441447   7.0877043
  56.7140525  31.9087161   6.3853111  56.9557325  32.1583056   7.8588007
  61.2220894  32.6795884   4.4421407  60.5371933  33.0594786   3.8918440
  61.3064744  33.2891211   5.1753355  56.5233363  23.7817231  12.3639485
  56.2794295  24.5359292  11.8273760  56.7993294  24.1602579  13.1986732
  58.4771826  30.3255844  11.0416750  58.6888721  30.9687603  10.3651131
  58.4301574  29.4918160  10.5738680  50.2808872  26.1950764  15.5367903
  49.6507533  26.8767045  15.7703300  50.1744960  26.0833845  14.5921041
  59.5917654  33.2027799   9.2139108  60.4135098  32.8007986   8.9321789
  59.5880057  33.0996033  10.1655224  53.3574257  32.7511842  11.3699818
  53.4218690  33.2132249  12.2057990  52.6485181  32.1209207  11.4982128
  67.6823647  29.5466547   5.5624079  66.9287355  28.9773945   5.4068084
  67.8171188  29.5129212   6.5094714  49.5589615  20.4971530  17.8993154
  49.1656560  19.9437728  18.5740798  50.3755755  20.8082108  18.2899671
  52.4757576  21.9129409  15.4913410  53.2167289  22.5136562  15.4117873
  52.7075499  21.1707046  14.9331453  47.6198914  27.0985776  13.7691640
  47.5052429  26.1971033  14.0698739  46.7643431  27.3449473  13.4176457
  54.6990751  35.0403516  15.3679141  54.2554606  34.2539895  15.0500045
  55.3607965  35.2282667  14.7023031  49.4577873  36.5699318   9.8939819
  50.0085298  36.4416381   9.1216813  48.6189349  36.8694207   9.5434712
  56.7971990  35.3206316  13.3960542  56.7790465  36.1415197  12.9040811
  57.7191910  35.1960391  13.6210683  53.2545044  32.8350446  14.2384050
  53.7873380  32.0738734  14.0083358  52.7259125  32.5424097  14.9808205
  59.5990602  30.1585459   6.8669909  58.9414277  30.8484720   6.9550037
  60.4031002  30.5481891   7.2103895  59.1757857  33.4935833   3.0452993
  58.7220185  32.6526743   3.1018183  58.5451824  34.1297231   3.3827773
  57.6190797  35.3312329   3.9802811  57.9113771  35.8917387   3.2615177
  58.1289417  35.6240890   4.7355970  52.5824422  36.1092681   5.0696264
  52.5400601  36.3353527   4.1404796  53.4987121  35.8756055   5.2182065
  56.0290056  26.5776748  11.9676894  56.3839443  26.8048221  12.8271359
  56.6762187  26.9095125  11.3454149  61.7857172  31.7671711   7.6837494
  62.2193679  31.6747000   8.5320548  62.4988753  31.7429211   7.0457510
  55.5185067  35.3673805   9.2170595  55.5722089  35.9364741   9.9848311
  54.6499848  35.5375690   8.8524632  62.6472722  31.8095412  10.2170379
  62.8408612  32.7141222  10.4629654  62.5473340  31.3502831  11.0508965
  54.3009032  21.6953302  12.7160707  53.6536948  22.3943252  12.6225183
  55.0710048  22.1289446  13.0836955  57.7087830  31.9602154  15.7911260
  57.5573337  31.7312706  14.8741344  57.6992510  32.9172756  15.8042605
  54.4773167  29.5334067  10.7757527  55.4065227  29.6845227  10.6026494
  54.0564197  29.6218088   9.9206173  53.2761499  33.5584732   8.5456064
  53.1372584  33.1903516   9.4182002  52.4876095  34.0732371   8.3740022
  54.8266714  32.9366334   5.9344902  54.4916546  32.8967104   6.8302552
  54.3270659  32.2711050   5.4615312  48.8010958  28.3433964  11.4597483
  48.6630756  27.6114203  12.0609022  49.7115881  28.2542864  11.1781671
  51.4293258  28.0553924  10.9481163  52.1392877  27.4147116  10.9067781
  51.3862567  28.3066818  11.8707344  59.4180037  34.9921277  13.8687742
  59.3592583  34.3080497  13.2018325  59.8199555  35.7340267  13.4168368
  50.1422192  25.0419141  12.7676802  49.6059549  24.5909880  13.4198399
  49.5538901  25.1765050  12.0247267  48.4370736  41.8083191   6.6621461
  48.6767334  42.4401715   7.3400479  47.5939932  41.4571231   6.9486820
  59.4197444  32.9560861  12.1001722  58.5324223  32.6186783  12.2228120
  59.9895995  32.2243892  12.3370487  52.9498598  37.6162313   9.0662965
  52.8768769  38.4217285   9.5782269  52.5075991  37.8154279   8.2410986
  63.9014785  28.3669078   6.8618283  63.8904661  29.2493794   6.4912216
  63.0332164  28.0140629   6.6672820  55.4097281  37.5149147  11.2221123
  56.1225253  38.1496612  11.1497025  54.9187310  37.6113013  10.4061125
  50.4609195  35.2643591  12.0426694  51.1618654  35.8980074  12.1956089
  49.9904310  35.6058322  11.2822334  58.2610481  27.8188198   9.8679245
  57.6081931  28.0664106   9.2131697  58.6390861  27.0052336   9.5341722
  55.2217655  37.8547891   3.9707415  55.4040049  37.0369547   4.4335167
  56.0450641  38.0715584   3.5332305  54.3098054  28.5608009  16.3545282
  53.6338691  28.4602139  17.0247657  55.1325688  28.4047223  16.8181279
  46.0576913  34.7979946   8.9757797  46.6430350  34.0523634   9.1085701
  45.8601751  35.1083902   9.8594461  53.0520837  39.8674937  10.5902898
  53.6039145  40.0306558  11.3551983  53.3927030  40.4579374   9.9182923
  47.5037602  24.2873219  14.8397817  48.1309641  23.9050296  15.4535341
  46.6465521  24.0687421  15.2053509  57.9031711  34.6936194  16.4451552
  58.4471615  35.3066152  15.9506507  57.3218556  35.2515773  16.9618565
  56.1889224  37.8156912   7.5766580  56.0640363  37.0146652   7.0677525
  56.8468315  38.3103106   7.0880550  58.2524132  35.6165932   9.2046130
  57.3054468  35.4971283   9.1324457  58.6006905  34.7288430   9.2872391
  50.6123706  21.5060071  13.0284372  51.1358108  21.7522368  13.7910681
  50.3936039  22.3380106  12.6087509  55.2570566  35.4118648   5.4050482
  55.1095528  34.4835356   5.5858052  56.0824059  35.4338739   4.9207557
  58.8604687  36.2347207   6.4915355  59.7851235  36.0290069   6.3539806
  58.6919991  35.9863608   7.4004696  58.6500004  36.7532875   1.8477446
  58.8236881  36.1879297   1.0951299  59.1428895  37.5533770   1.6656936
  64.5039395  29.5169298   3.4667746  64.9470541  28.7676623   3.0686869
  63.6265905  29.5079434   3.0841478  45.2542985  27.8917440  12.8071162
  44.5124721  28.0400075  13.3935793  44.9335730  28.1525706  11.9437912
  53.1986648  37.4333418  12.6051552  53.5073774  37.1882565  13.4774252
  53.9962130  37.6380057  12.1170422  53.2207260  39.5871328   4.8356929
  52.7812250  39.0947707   5.5289785  53.9715377  39.0444296   4.5949004
  50.6681132  35.1309337   6.9079230  50.0461141  34.4680042   6.6081458
  51.3385999  35.1570469   6.2252878  50.7405660  23.6091125  16.5011736
  50.7893815  24.4853248  16.1189506  51.2828174  23.0668518  15.9283380
  61.2260505  34.1532248  15.7812873  60.4356049  34.1356387  15.2417373
  60.9893860  34.6920542  16.5361910  61.3458380  31.0024715  13.0945602
  61.3956385  30.8374722  14.0361125  61.2372304  30.1351974  12.7043483
  58.6362143  26.9855643  14.4104909  59.5372006  26.8462108  14.1188906
  58.7110117  27.1510097  15.3503086  52.9704948  24.3622497  13.2558095
  52.1008258  24.6556063  12.9840684  53.2064428  24.9462942  13.9765359
  62.8476577  33.4221656  13.3387624  62.5561386  33.7851637  14.1751084
  62.2348709  32.7088664  13.1600956  64.0472260  30.9874536   5.8590194
  64.8819151  31.4264340   6.0227754  64.1831388  30.5113189   5.0398439
  61.0963765  28.5454271  11.8067681  61.5717887  28.7381917  10.9986533
  60.1729331  28.6013457  11.5611065  59.7965434  25.4220031  10.0395987
  60.7482857  25.5218129  10.0608211  59.6268885  24.6298299  10.5494071
  57.8179814  22.5075614  10.2255388  57.2229746  22.7880627   9.5301877
  57.5329511  22.9969515  10.9972129  62.2753512  28.6426151   9.1538287
  62.2429832  27.7042151   9.3397971  62.8854136  28.7210187   8.4204112
  62.4248001  25.4337194   9.1996570  61.9087049  24.6495651   9.0126499
  63.3087949  25.1055911   9.3643089  68.0930062  29.7042157   8.2944324
  68.8233451  29.4427446   8.8552027  67.4837008  28.9670879   8.3346392
  66.1745359  27.8450020   8.8918775  65.4478523  27.7105985   8.2835266
  65.7592646  28.1526849   9.6975493  53.9975536  31.5639950  16.6566148
  54.9178545  31.7418549  16.8506194  53.9625119  30.6195995  16.5045847
  51.8665474  25.0474190  18.6891678  51.7662200  25.9968547  18.6203769
  51.6487016  24.7192429  17.8167748  51.7296744  28.4771329  17.5056740
  51.2463825  29.2771689  17.7120629  51.8157683  28.4879274  16.5524183
  47.6570081  32.3675864   9.5425173  48.6113335  32.3359806   9.4755105
  47.4582605  31.9066487  10.3575399  48.2469463  30.9376980  12.1095971
  49.0662352  31.4321058  12.1330808  48.5206271  30.0208948  12.0813538
  46.0120310  37.9095483   6.5595371  45.8774778  37.1495884   5.9933369
  45.5952372  38.6336383   6.0924160  66.0994227  27.3728073   5.0195628
  65.5393785  27.4421262   5.7927190  65.4937730  27.1969058   4.2995124
  49.1689436  38.8064800   6.7713814  49.0521820  39.7510233   6.6692504
  48.3481882  38.5038362   7.1599613  56.0257770  32.3395961  18.3080309
  56.8948929  32.5136613  17.9466944  55.5464521  33.1590378  18.1856038
  50.1943950  39.4593062   9.9869742  51.0971197  39.4916672  10.3036237
  49.9681320  38.5293513  10.0016078  51.9497552  38.2124049   6.6479821
  50.9993183  38.2125910   6.5344193  52.2530038  37.4656783   6.1315855
  47.8401868  22.4182731  16.9063182  48.7033330  22.0619535  17.1166507
  47.2667279  22.0796625  17.5938587  67.6850245  44.0484587   7.7125583
  68.3228655  43.9291334   7.0088923  67.5671088  44.9965431   7.7713535
  64.4939952  44.0012015   7.6487108  64.1558463  43.8853080   6.7607643
  65.3629720  43.6003180   7.6288114  60.3526767  45.8547491   3.6383999
  59.7891632  45.7637428   2.8700287  60.2379162  45.0347396   4.1186491
  64.9759735  45.1546867  13.6073313  64.9648375  44.7599665  12.7353817
  65.1380374  44.4212939  14.2007085  57.8991199  47.3498683   6.4768219
  58.6912491  47.0089508   6.0614519  58.1387849  47.4593658   7.3970373
  65.9326326  49.5218459  -1.0501536  65.2814306  50.1072540  -1.4367522
  66.7270689  50.0524654  -0.9906499  59.8581953  46.6107596  -0.6514402
  60.6312829  46.0636583  -0.7901526  60.2107352  47.4751846  -0.4399940
  61.6966996  47.9383979  12.5552497  61.4056862  48.8429609  12.4399164
  62.3323980  47.9800506  13.2696567  62.6223203  45.3160827   9.1453857
  63.2186775  45.0916850   8.4310820  62.6798174  44.5745573   9.7479305
  62.1948231  42.7700262  -3.0195952  62.4473752  42.2481784  -3.7812489
  61.2572790  42.6066408  -2.9169268  67.2391514  41.7736041   4.7878791
  68.0254603  41.3555464   4.4369208  67.5030218  42.6782133   4.9560440
  67.4101591  47.2108891  -0.5132552  66.7747424  47.2843518   0.1988353
  67.0798998  47.8002490  -1.1913473  72.6399941  41.7111274   5.6911770
  73.3725113  41.1410491   5.9249599  71.8839297  41.3232874   6.1318275
  61.9144520  44.6728368  -0.8171577  61.7980778  43.9973272  -0.1490493
  62.0246780  44.1860742  -1.6339424  64.2576061  44.1338515   2.8875112
  63.8934268  43.6069136   3.5988034  65.1143177  43.7436985   2.7141598
  70.1625361  35.4232848  10.1506378  69.8308686  36.2928259   9.9267593
  69.5670975  35.1069132  10.8300409  66.6556881  47.6245394   9.5502291
  66.3557604  48.5270433   9.4418098  66.3107940  47.3577577  10.4023444
  60.1069362  44.0759191   5.5838996  59.1819859  43.9435405   5.7916687
  60.3553776  44.8553410   6.0808938  70.0554025  40.1427934   7.2299728
  69.1470902  40.0743343   6.9358489  70.0041620  40.6199879   8.0581554
  63.8770769  41.6186073  -1.1316872  63.7570394  42.0643123  -0.2931392
  63.1823357  41.9671390  -1.6903334  57.4678173  43.7192464   6.4182785
  57.5970555  43.9726943   7.3322196  56.7875625  44.3120172   6.0987440
  61.6377661  54.3889714   2.5173259  61.5601690  55.3397540   2.5961739
  61.0339304  54.0435587   3.1748185  64.1294890  41.5617580  15.1734626
  63.3528224  42.1211500  15.1637490  64.7685453  42.0474363  15.6949496
  71.9215671  38.3444373   9.0077602  71.2790051  38.6376906   8.3617397
  71.4170600  38.2297293   9.8130799  69.5755835  42.0907546  -0.3036538
  70.4873691  42.3234933  -0.4788841  69.0665482  42.6744590  -0.8661460
  62.3841263  44.3703033  14.7352593  63.1255947  44.9088077  14.4587416
  61.6778248  44.9969322  14.8924145  67.8596602  46.5132174  13.3324754
  68.2679958  46.0714584  12.5879387  67.1373864  45.9384801  13.5858947
  64.2127672  41.4504780  10.7058311  65.0588868  41.8744194  10.8492960
  64.1526310  40.7938405  11.3996874  68.1825417  47.0733364   7.0877043
  67.5534279  47.2379078   6.3853111  67.7951079  47.4874974   7.8588007
  72.0614649  48.0087802   4.4421407  71.3765687  48.3886704   3.8918440
  72.1458498  48.6183129   5.1753355  67.3627118  39.1109149  12.3639485
  67.1188050  39.8651209  11.8273760  67.6387048  39.4894496  13.1986732
  69.3165581  45.6547761  11.0416750  69.5282476  46.2979521  10.3651131
  69.2695329  44.8210078  10.5738680  66.9191809  38.2665582   7.9453323
  66.0576289  38.5646835   8.2370060  66.9454244  38.4835981   7.0134355
  63.7353379  46.8107772   4.3527128  64.1991724  47.0895475   3.5631751
  63.4710177  45.9091217   4.1700219  60.6277460  46.3579254   7.2906891
  61.1978817  46.7866522   6.6524376  61.2185572  46.0761839   7.9891077
  62.6722265  42.9330925   1.1616693  63.3746308  43.3851968   1.6290620
  62.3402893  42.2914744   1.7896586  61.1202626  41.5242681  15.5367903
  60.4901287  42.2058962  15.7703300  61.0138714  41.4125763  14.5921041
  56.4147599  41.1914477   6.4633827  55.6246653  41.4472006   5.9873938
  56.9058846  42.0062815   6.5685867  70.4311408  48.5319717   9.2139108
  71.2528852  48.1299904   8.9321789  70.4273811  48.4287951  10.1655224
  58.3662344  41.5559057   3.4217304  57.5693508  41.6677751   3.9400799
  58.1387936  41.8945709   2.5558194  64.1968012  48.0803760  11.3699818
  64.2612444  48.5424167  12.2057990  63.4878936  47.4501125  11.4982128
  54.6985302  41.4444968   8.8948818  54.9493340  42.3291978   9.1606394
  55.2344850  41.2649569   8.1223910  78.5217402  44.8758465   5.5624079
  77.7681110  44.3065863   5.4068084  78.6564943  44.8421130   6.5094714
  63.9116030  49.7471867   1.2378799  63.7761704  50.5923403   1.6663646
  64.4525842  49.9491145   0.4744732  60.3983369  35.8263447  17.8993154
  60.0050315  35.2729646  18.5740798  61.2149510  36.1374026  18.2899671
  57.3645427  47.2647305   1.8106724  57.8769948  48.0590556   1.9612288
  58.0168140  46.5673596   1.7440325  59.1740312  50.3813062   3.8929477
  59.3506940  51.3031026   3.7050461  59.9697145  50.0671481   4.3223857
  63.3151330  37.2421326  15.4913410  64.0561044  37.8428479  15.4117873
  63.5469253  36.4998964  14.9331453  58.4592668  42.4277694  13.7691640
  58.3446183  41.5262951  14.0698739  57.6037186  42.6741390  13.4176457
  65.5384506  50.3695434  15.3679141  65.0948360  49.5831812  15.0500045
  66.2001720  50.5574584  14.7023031  60.2971627  51.8991236   9.8939819
  60.8479052  51.7708299   9.1216813  59.4583103  52.1986125   9.5434712
  67.6365744  50.6498234  13.3960542  67.6184219  51.4707115  12.9040811
  68.5585664  50.5252309  13.6210683  64.0938798  48.1642363  14.2384050
  64.6267135  47.4030652  14.0083358  63.5652879  47.8716015  14.9808205
  67.2608493  33.2702429   9.7677692  66.9172763  34.1604071   9.6916803
  67.6287456  33.0804087   8.9047277  55.3294344  45.5935960   2.5866294
  56.1669566  46.0032968   2.3700002  55.5072611  44.6535402   2.5566488
  67.2258776  43.2611040  -1.7249873  66.7105399  44.0315645  -1.4861485
  66.9536084  42.5876177  -1.1016811  64.8105887  38.1060741   3.3335366
  63.9547483  37.7167592   3.1541004  65.2232839  38.1852702   2.4735151
  66.3405034  35.6407084   7.7326925  65.8369829  35.6037220   6.9194731
  66.6335640  36.5499827   7.7923582  62.5847919  35.7245814   6.7393107
  63.4500916  35.5288623   6.3798996  62.6525428  35.4956166   7.6662464
  72.1993050  46.0143395   0.2103301  71.4222493  45.6754555  -0.2341537
  72.8784531  46.0196018  -0.4641734  67.0145079  41.1338132   0.1009908
  66.7095215  41.4484282   0.9520052  67.9675521  41.2119552   0.1437241
  65.4591511  47.2928356   1.7502862  64.9312872  46.5581115   1.4376100
  64.9579014  48.0703032   1.5042831  70.4384357  45.4877376   6.8669909
  69.7808031  46.1776638   6.9550037  71.2424756  45.8773808   7.2103895
  60.1910238  37.9548022   4.1109474  60.7653990  37.7323204   3.3782667
  60.7781221  38.0236717   4.8638075  69.2489816  43.8421749   4.9173850
  69.7621697  44.4751741   5.4195560  69.8991040  43.2422944   4.5517210
  62.4932906  34.8289271   2.8384543  61.8397319  34.5138288   2.2141158
  62.4513380  34.2065011   3.5644366  63.6044111  45.1108566  -5.2462165
  62.6971173  44.8797820  -5.0471016  64.1015143  44.3146185  -5.0588183
  66.5112190  53.8206073  -2.3265479  65.8373889  54.1237770  -1.7180521
  66.8978012  54.6235154  -2.6760021  65.7270647  41.3171205   7.1632191
  64.8093208  41.5386152   7.0053879  66.1430790  41.3917515   6.3043898
  66.5105694  42.7162620   2.2934871  67.2577513  43.2284017   1.9841993
  66.7797284  42.3946673   3.1539265  64.7832344  45.2121161  -0.7238175
  63.8743564  44.9280194  -0.6265705  64.8127428  45.6320239  -1.5834868
  70.0151612  48.8227750   3.0452993  69.5613939  47.9818660   3.1018183
  69.3845579  49.4589149   3.3827773  68.9584531  39.7519736   4.2753660
  68.2207288  39.2397123   4.6063903  69.2111305  39.3120118   3.4636937
  68.4584551  50.6604247   3.9802811  68.7507526  51.2209304   3.2615177
  68.9683172  50.9532808   4.7355970  69.0596159  32.5295988   4.8695430
  69.3655036  31.6693352   4.5821345  69.7848764  33.1213609   4.6694424
  55.3520515  42.9326675   3.2577028  55.1544915  42.3396036   2.5328094
  54.7967179  42.6278885   3.9752966  63.3317239  42.8249782   5.3771621
  63.3865848  41.8723618   5.3014097  62.5208441  42.9809221   5.8612919
  64.4808432  46.7529905  -3.3850096  64.0427862  46.0365764  -3.8444459
  65.2218873  46.9806019  -3.9465005  61.2709598  41.4426841   3.1362000
  60.4577464  41.7421012   3.5427192  61.7668593  41.0482530   3.8536482
  63.4218176  51.4384598   5.0696264  63.3794355  51.6645445   4.1404796
  64.3380875  51.2047973   5.2182065  66.8683810  41.9068666  11.9676894
  67.2233198  42.1340139  12.8271359  67.5155941  42.2387043  11.3454149
  72.5981547  45.0287102   2.6726223  72.4599446  45.2188698   1.7447412
  72.2417766  45.7906484   3.1294274  60.7623673  39.0145197   8.7523235
  61.4023053  38.8733956   8.0546198  59.9301204  38.7279710   8.3761837
  72.6250927  47.0963629   7.6837494  73.0587433  47.0038918   8.5320548
  73.3382507  47.0721129   7.0457510  61.5383977  48.3147627   4.8658227
  62.3324576  47.8197947   4.6640802  60.8275670  47.7865490   4.5025933
  66.3578822  50.6965723   9.2170595  66.4115844  51.2656659   9.9848311
  65.4893603  50.8667608   8.8524632  57.8466741  42.4590709   0.9417980
  56.9164329  42.3975164   1.1587942  57.9424213  41.9366662   0.1454621
  57.7652290  38.9845522   3.5296221  58.0259107  39.8990855   3.4205382
  58.5869462  38.5169964   3.6792834  59.2377215  40.3983279  10.6995046
  59.9100268  40.1900641  10.0507695  58.4107001  40.2005365  10.2600278
  73.4866476  47.1387329  10.2170379  73.6802366  48.0433140  10.4629654
  73.3867094  46.6794748  11.0508965  65.1402787  37.0245220  12.7160707
  64.4930702  37.7235170  12.6225183  65.9103802  37.4581364  13.0836955
  68.5481585  47.2894072  15.7911260  68.3967091  47.0604624  14.8741344
  68.5386264  48.2464673  15.8042605  65.3166921  44.8625985  10.7757527
  66.2458981  45.0137144  10.6026494  64.8957951  44.9510006   9.9206173
  64.1155253  48.8876649   8.5456064  63.9766339  48.5195434   9.4182002
  63.3269849  49.4024289   8.3740022  64.7103405  53.9885746  -0.1118399
  64.8855161  53.5173789   0.7027223  64.0236193  54.6151512   0.1162861
  65.6660468  48.2658252   5.9344902  65.3310301  48.2259022   6.8302552
  65.1664414  47.6002968   5.4615312  59.6404712  43.6725882  11.4597483
  59.5024510  42.9406121  12.0609022  60.5509636  43.5834782  11.1781671
  68.6019660  45.6114286  -3.7918038  67.9848831  44.8861114  -3.8884986
  68.1336148  46.3723647  -4.1350964  62.2687013  43.3845841  10.9481163
  62.9786631  42.7439033  10.9067781  62.2256321  43.6358736  11.8707344
  70.2573792  50.3213195  13.8687742  70.1986338  49.6372415  13.2018325
  70.6593310  51.0632185  13.4168368  60.9815947  40.3711059  12.7676802
  60.4453304  39.9201798  13.4198399  60.3932655  40.5056968  12.0247267
  59.2764490  57.1375108   6.6621461  59.5161089  57.7693633   7.3400479
  58.4333687  56.7863148   6.9486820  70.2591199  48.2852779  12.1001722
  69.3717978  47.9478700  12.2228120  70.8289750  47.5535810  12.3370487
  51.9120346  44.6176870   5.4244773  52.5991386  44.3038600   4.8365788
  51.7568475  45.5218235   5.1512024  56.7155068  39.5067067   9.8529797
  56.6313257  38.8992736   9.1180207  55.8937775  39.9976085   9.8539293
  63.7892352  52.9454231   9.0662965  63.7162524  53.7509202   9.5782269
  63.3469745  53.1446197   8.2410986  63.5782132  52.1826001   2.5765786
  62.7949654  52.7247681   2.6704011  64.2774877  52.6999981   2.9760028
  66.8878782  37.9920630   5.2199992  67.3847482  37.2390593   4.9001062
  66.1165763  38.0284947   4.6543201  74.7408539  43.6960996   6.8618283
  74.7298416  44.5785711   6.4912216  73.8725919  43.3432547   6.6672820
  66.2491036  52.8441065  11.2221123  66.9619008  53.4788530  11.1497025
  65.7581064  52.9404931  10.4061125  67.9708563  46.7492318   2.7938415
  67.0364841  46.8693780   2.6243119  68.1485231  45.8464784   2.5298425
  63.4713751  40.1338013   4.9471676  63.1011538  39.5809054   5.6352582
  63.9672843  39.5296147   4.3946676  71.3581114  42.5909637   3.3288449
  71.8241566  43.4237628   3.2548752  71.8088615  42.1254618   4.0333708
  61.3002949  50.5935508  12.0426694  62.0012409  51.2271991  12.1956089
  60.8298064  50.9350240  11.2822334  69.4257345  48.9353458   0.3274601
  69.7017189  48.8210053   1.2368475  68.5561844  48.5370943   0.2886774
  69.3297777  34.9590224   7.3679351  68.4160857  35.1894451   7.5361558
  69.7590878  35.0428668   8.2193383  69.1004235  43.1480116   9.8679245
  68.4475685  43.3956023   9.2131697  69.4784615  42.3344254   9.5341722
  66.0611409  53.1839809   3.9707415  66.2433804  52.3661465   4.4335167
  66.8844395  53.4007501   3.5332305  66.3953575  52.1107994   1.2322463
  66.9241341  51.6000449   0.6192626  66.6581794  51.7950524   2.0967996
  65.1491808  43.8899927  16.3545282  64.4732445  43.7894056  17.0247657
  65.9719442  43.7339141  16.8181279  56.8970667  50.1271863   8.9757797
  57.4824104  49.3815551   9.1085701  56.6995506  50.4375820   9.8594461
  59.7509323  53.1623111   3.9920239  59.0819698  53.6469238   3.5084279
  59.6122192  53.4092331   4.9063618  51.4888322  42.6977464   7.6962240
  51.5272422  42.1641054   8.4899358  50.9828615  42.1712669   7.0773217
  63.8914591  55.1966854  10.5902898  64.4432899  55.3598476  11.3551983
  64.2320785  55.7871292   9.9182923  58.8679084  37.5442004  11.1924782
  58.9320411  38.4056835  10.7802180  58.8046205  36.9316006  10.4597141
  58.3431357  39.6165137  14.8397817  58.9703396  39.2342214  15.4535341
  57.4859276  39.3979339  15.2053509  68.7425465  50.0228112  16.4451552
  69.2865369  50.6358070  15.9506507  68.1612310  50.5807690  16.9618565
  55.1196900  41.4241566   0.7716172  55.4150341  40.5152244   0.7183225
  54.2184935  41.4029305   0.4497174  67.0282978  53.1448830   7.5766580
  66.9034118  52.3438570   7.0677525  67.6862070  53.6395023   7.0880550
  58.6491147  39.4997562   6.7543720  57.9277732  40.1133530   6.6151193
  59.4384402  40.0355327   6.6760366  69.0917887  50.9457850   9.2046130
  68.1448222  50.8263201   9.1324457  69.4400660  50.0580348   9.2872391
  61.4517460  36.8351989  13.0284372  61.9751862  37.0814285  13.7910681
  61.2329793  37.6672024  12.6087509  56.8484741  39.1055663   0.8955497
  56.5197447  38.2253042   0.7130603  57.2024112  39.0503332   1.7831886
  66.0964320  50.7410566   5.4050482  65.9489283  49.8127274   5.5858052
  66.9217814  50.7630657   4.9207557  59.9626564  39.3928633   1.2630974
  60.3022637  39.9214555   0.5409583  60.4098685  39.7309039   2.0389541
  69.6998442  51.5639125   6.4915355  70.6244989  51.3581986   6.3539806
  69.5313745  51.3155526   7.4004696  62.6570005  37.7765684  10.7134042
  62.3166826  36.9773497  11.1154722  61.9509012  38.0767395  10.1410876
  63.3086477  34.8614996   9.1661365  64.1312546  34.3875475   9.0440256
  63.5524541  35.6405480   9.6660052  61.9494712  37.8903255  -0.5375733
  62.6703074  38.2684508  -1.0412016  61.3260016  38.6092132  -0.4340755
  66.0925834  38.5948404   0.3982599  66.3089449  39.4773042   0.0971428
  65.6119902  38.2034617  -0.3311759  60.8325056  41.5534117   6.9753344
  60.6869637  41.8674420   7.8677626  60.3550259  42.1719017   6.4224243
  62.6921439  38.5436665   7.0234234  62.6783007  37.6477758   6.6866532
  63.4093867  38.5507329   7.6572520  64.5447569  38.9774005   9.0687361
  64.2865347  39.8991076   9.0671691  64.0132610  38.5804440   9.7587825
  69.4893758  52.0824792   1.8477446  69.6630636  51.5171215   1.0951299
  69.9822649  52.8825687   1.6656936  55.3070718  44.0939461   9.9141005
  54.7624186  44.8699269  10.0461280  56.1850068  44.4410266   9.7560127
  62.0958335  37.4251045   2.2921804  62.2174246  36.4967691   2.4912691
  61.8060377  37.4389731   1.3800119  64.9649525  35.1105956   5.4288524
  64.9871222  35.1745289   4.4740503  65.3817584  34.2710464   5.6229030
  75.3433149  44.8461215   3.4667746  75.7864295  44.0968540   3.0686869
  74.4659660  44.8371352   3.0841478  70.4768931  51.3991557  -1.0525655
  71.1719835  52.0198249  -0.8338341  70.8192081  50.5486908  -0.7773277
  56.0936740  43.2209358  12.8071162  55.3518476  43.3691993  13.3935793
  55.7729484  43.4817623  11.9437912  72.3760354  48.8491262   0.4761675
  72.9011678  49.1878535  -0.2489005  72.2882706  47.9138278   0.2924810
  64.0380402  52.7625336  12.6051552  64.3467529  52.5174483  13.4774252
  64.8355885  52.9671974  12.1170422  64.0601015  54.9163246   4.8356929
  63.6206005  54.4239624   5.5289785  64.8109131  54.3736213   4.5949004
  56.5393354  51.1074786   4.8381557  57.3651373  50.8078558   4.4580200
  56.1887406  50.3382409   5.2871345  61.5074887  50.4601255   6.9079230
  60.8854896  49.7971960   6.6081458  62.1779754  50.4862387   6.2252878
  54.7401959  49.0261113   5.7970490  53.9033867  48.5983287   5.6154492
  54.7125604  49.2193556   6.7341282  61.5799414  38.9383043  16.5011736
  61.6287570  39.8145165  16.1189506  62.1221928  38.3960436  15.9283380
  72.0654260  49.4824166  15.7812873  71.2749804  49.4648305  15.2417373
  71.8287614  50.0212460  16.5361910  72.1852135  46.3316632  13.0945602
  72.2350140  46.1666640  14.0361125  72.0766058  45.4643891  12.7043483
  61.0688394  49.0105178   0.3837691  61.2176514  49.6940642  -0.2695636
  61.8754837  48.9910268   0.8987147  69.4755897  42.3147560  14.4104909
  70.3765760  42.1754025  14.1188906  69.5503872  42.4802015  15.3503086
  63.8098703  39.6914415  13.2558095  62.9402012  39.9847981  12.9840684
  64.0458183  40.2754860  13.9765359  73.6870332  48.7513574  13.3387624
  73.3955140  49.1143554  14.1751084  73.0742463  48.0380582  13.1600956
  74.8866014  46.3166454   5.8590194  75.7212905  46.7556258   6.0227754
  75.0225143  45.8405107   5.0398439  71.9357520  43.8746188  11.8067681
  72.4111642  44.0673835  10.9986533  71.0123085  43.9305374  11.5611065
  58.8241027  45.0370356   1.3898760  58.5787069  44.1332686   1.5878970
  58.9936941  45.0387506   0.4478238  66.5137736  35.9094032  10.7723515
  67.0319680  36.6455059  10.4470004  66.1592869  36.2158025  11.6070275
  66.7650331  32.3294315   6.2924412  67.0452084  31.6617504   6.9184839
  67.5500938  32.5223410   5.7799076  64.5683799  51.5053308  -2.1450562
  63.9957766  52.1243496  -2.5980090  65.1416593  52.0552670  -1.6110640
  70.6359189  40.7511949  10.0395987  71.5876612  40.8510046  10.0608211
  70.4662639  39.9590217  10.5494071  68.6573568  37.8367532  10.2255388
  68.0623501  38.1172544   9.5301877  68.3723265  38.3261433  10.9972129
  67.7881059  51.7890459  -1.0141979  68.7211732  51.7236020  -0.8109104
  67.7004272  52.6246725  -1.4727447  70.4169076  51.1056329  -4.0538032
  70.3382707  50.7716193  -3.1602274  71.2378742  51.5978097  -4.0546560
  73.1147267  43.9718068   9.1538287  73.0823587  43.0334069   9.3397971
  73.7247890  44.0502105   8.4204112  64.9530598  42.8414121  -4.8034509
  65.8989702  42.7120329  -4.7346091  64.5744843  42.1028783  -4.3265081
  73.2641755  40.7629112   9.1996570  72.7480804  39.9787568   9.0126499
  74.1481704  40.4347828   9.3643089  70.9252482  34.5070127   5.1592383
  70.7277303  34.1985215   6.0435715  71.5352188  35.2331766   5.2890312
  78.9323817  45.0334075   8.2944324  79.6627205  44.7719363   8.8552027
  78.3230762  44.2962797   8.3346392  77.0139114  43.1741938   8.8918775
  76.2872277  43.0397903   8.2835266  76.5986401  43.4818766   9.6975493
  64.8369290  46.8931867  16.6566148  65.7572300  47.0710466  16.8506194
  64.8018873  45.9487913  16.5045847  54.0551455  42.0870461   5.5819422
  53.7354239  41.2335769   5.2893796  53.5084883  42.3019039   6.3377390
  57.8331363  44.8032902   9.2988929  58.0517372  45.7350010   9.3176963
  58.2457137  44.4440876  10.0843733  64.7535580  35.3100987   1.2864617
  63.9436309  34.9648072   1.6619863  65.4419997  35.0008531   1.8752229
  66.6826129  34.3879034   2.9088914  67.2357167  34.8074488   3.5678937
  66.9196215  33.4614782   2.9511870  62.7059228  40.3766108  18.6891678
  62.6055955  41.3260465  18.6203769  62.4880770  40.0484347  17.8167748
  53.9239715  45.7073372   7.5512544  53.2303187  45.2927325   7.0382498
  54.6712706  45.7493909   6.9545963  70.0604936  36.4979559   2.4167578
  69.4803605  37.1564363   2.0345631  69.7940869  35.6756904   2.0054996
  68.5108502  35.8984617   4.6188899  69.0108281  36.0101151   3.8103217
  69.1544110  35.5945670   5.2589707  62.5690498  43.8063247  17.5056740
  62.0857580  44.6063607  17.7120629  62.6551437  43.8171191  16.5524183
  55.8376458  45.6391626   5.4278559  55.8147146  45.7379314   4.4760442
  56.1477094  46.4856777   5.7495725  58.4963836  47.6967781   9.5425173
  59.4507089  47.6651724   9.4755105  58.2976359  47.2358405  10.3575399
  59.0863218  46.2668897  12.1095971  59.9056107  46.7612976  12.1330808
  59.3600025  45.3500865  12.0813538  68.8429814  38.6579650   1.4723926
  67.9555669  38.9429300   1.2544121  69.2583803  38.4973413   0.6251203
  72.1944350  38.6826171   5.1878266  72.9704740  39.1722623   5.4602883
  71.4692484  39.1084225   5.6450135  74.6316909  39.3953790   6.2452206
  75.2261399  39.1549526   5.5345515  74.7043492  38.6760920   6.8725743
  56.8514064  53.2387401   6.5595371  56.7168532  52.4787802   5.9933369
  56.4346127  53.9628301   6.0924160  67.9873027  48.4224324  -4.4328054
  68.6908877  48.6274327  -3.8170398  67.2635676  48.9901086  -4.1678970
  68.8170838  44.1734186   1.6874217  68.7606039  44.6302737   0.8481849
  69.3699180  43.4124870   1.5097059  72.6275644  39.9623917   2.5124336
  72.3712578  39.5620553   3.3432544  72.0028512  40.6767711   2.3874475
  76.9387981  42.7019991   5.0195628  76.3787539  42.7713180   5.7927190
  76.3331485  42.5260975   4.2995124  60.0083190  54.1356718   6.7713814
  59.8915574  55.0802150   6.6692504  59.1875636  53.8330279   7.1599613
  69.8959725  48.8606854  -2.3829593  70.7305329  48.4288052  -2.5652119
  69.7344068  48.6888867  -1.4552699  69.5505617  45.3638967  -1.0173254
  69.4954421  45.1983238  -1.9584810  68.9251672  46.0715000  -0.8611064
  54.3398132  40.6007031  12.8088168  54.9856996  40.0905985  13.2975393
  54.1315283  41.3375713  13.3831593  66.8651524  47.6687879  18.3080309
  67.7342684  47.8428531  17.9466944  66.3858276  48.4882296  18.1856038
  61.0337704  54.7884980   9.9869742  61.9364951  54.8208590  10.3036237
  60.8075074  53.8585431  10.0016078  62.7891306  53.5415966   6.6479821
  61.8386937  53.5417828   6.5344193  63.0923793  52.7948701   6.1315855
  66.6753862  31.4589852   2.8158001  65.9086258  30.9048339   2.9614683
  67.0864567  31.5311721   3.6772153  58.6795623  37.7474648  16.9063182
  59.5427084  37.3911453  17.1166507  58.1061034  37.4088543  17.5938587
  78.5244000  59.3776505   7.7125583  79.1622410  59.2583252   7.0088923
  78.4064843  60.3257349   7.7713535  75.3333706  59.3303933   7.6487108
  74.9952218  59.2144997   6.7607643  76.2023474  58.9295098   7.6288114
  71.1920522  61.1839409   3.6383999  70.6285387  61.0929346   2.8700287
  71.0772917  60.3639314   4.1186491  75.8153489  60.4838784  13.6073313
  75.8042130  60.0891583  12.7353817  75.9774129  59.7504857  14.2007085
  68.7384954  62.6790601   6.4768219  69.5306246  62.3381425   6.0614519
  68.9781604  62.7885576   7.3970373  76.7720081  64.8510377  -1.0501536
  76.1208060  65.4364457  -1.4367522  77.5664443  65.3816572  -0.9906499
  70.6975708  61.9399514  -0.6514402  71.4706584  61.3928501  -0.7901526
  71.0501107  62.8043763  -0.4399940  72.5360750  63.2675896  12.5552497
  72.2450616  64.1721527  12.4399164  73.1717735  63.3092424  13.2696567
  73.4616957  60.6452745   9.1453857  74.0580529  60.4208767   8.4310820
  73.5191929  59.9037490   9.7479305  73.0341986  58.0992180  -3.0195952
  73.2867506  57.5773701  -3.7812489  72.0966545  57.9358326  -2.9169268
  78.0785268  57.1027958   4.7878791  78.8648358  56.6847382   4.4369208
  78.3423973  58.0074051   4.9560440  78.2495346  62.5400809  -0.5132552
  77.6141179  62.6135435   0.1988353  77.9192752  63.1294408  -1.1913473
  83.4793695  57.0403192   5.6911770  84.2118867  56.4702408   5.9249599
  82.7233051  56.6524792   6.1318275  72.7538274  60.0020286  -0.8171577
  72.6374532  59.3265189  -0.1490493  72.8640534  59.5152660  -1.6339424
  75.0969815  59.4630433   2.8875112  74.7328022  58.9361054   3.5988034
  75.9536931  59.0728902   2.7141598  81.0019116  50.7524766  10.1506378
  80.6702441  51.6220177   9.9267593  80.4064729  50.4361050  10.8300409
  74.7375302  54.4920333  -2.1163539  74.9049705  55.3600569  -1.7493068
  74.5472471  54.6547615  -3.0402250  77.4950635  62.9537312   9.5502291
  77.1951358  63.8562351   9.4418098  77.1501695  62.6869495  10.4023444
  70.9463117  59.4051109   5.5838996  70.0213613  59.2727323   5.7916687
  71.1947530  60.1845328   6.0808938  80.8947779  55.4719852   7.2299728
  79.9864656  55.4035260   6.9358489  80.8435375  55.9491797   8.0581554
  74.7164523  56.9477990  -1.1316872  74.5964148  57.3935041  -0.2931392
  74.0217111  57.2963308  -1.6903334  68.3071928  59.0484382   6.4182785
  68.4364309  59.3018861   7.3322196  67.6269379  59.6412090   6.0987440
  72.4771415  69.7181632   2.5173259  72.3995445  70.6689457   2.5961739
  71.8733059  69.3727505   3.1748185  74.9688645  56.8909498  15.1734626
  74.1921979  57.4503418  15.1637490  75.6079208  57.3766281  15.6949496
  82.7609426  53.6736290   9.0077602  82.1183806  53.9668824   8.3617397
  82.2564354  53.5589211   9.8130799  80.4149589  57.4199464  -0.3036538
  81.3267445  57.6526850  -0.4788841  79.9059236  58.0036508  -0.8661460
  73.2235017  59.6994951  14.7352593  73.9649702  60.2379995  14.4587416
  72.5172003  60.3261240  14.8924145  78.6990357  61.8424091  13.3324754
  79.1073713  61.4006502  12.5879387  77.9767618  61.2676719  13.5858947
  75.0521427  56.7796698  10.7058311  75.8982622  57.2036112  10.8492960
  74.9920065  56.1230322  11.3996874  79.0219172  62.4025282   7.0877043
  78.3928034  62.5670996   6.3853111  78.6344834  62.8166892   7.8588007
  82.9008403  63.3379720   4.4421407  82.2159442  63.7178621   3.8918440
  82.9852253  63.9475047   5.1753355  78.2020872  54.4401067  12.3639485
  77.9581804  55.1943127  11.8273760  78.4780803  54.8186414  13.1986732
  80.1559335  60.9839679  11.0416750  80.3676230  61.6271439  10.3651131
  80.1089083  60.1501995  10.5738680  77.7585564  53.5957500   7.9453323
  76.8970043  53.8938753   8.2370060  77.7847999  53.8127898   7.0134355
  74.5747133  62.1399690   4.3527128  75.0385479  62.4187393   3.5631751
  74.3103931  61.2383135   4.1700219  71.4671214  61.6871172   7.2906891
  72.0372572  62.1158440   6.6524376  72.0579326  61.4053756   7.9891077
  73.5116019  58.2622842   1.1616693  74.2140063  58.7143886   1.6290620
  73.1796648  57.6206661   1.7896586  71.9596381  56.8534599  15.5367903
  71.3295042  57.5350880  15.7703300  71.8532469  56.7417681  14.5921041
  67.2541353  56.5206395   6.4633827  66.4640407  56.7763924   5.9873938
  67.7452601  57.3354733   6.5685867  81.2705163  63.8611634   9.2139108
  82.0922607  63.4591822   8.9321789  81.2667566  63.7579868  10.1655224
  69.2056099  56.8850974   3.4217304  68.4087262  56.9969669   3.9400799
  68.9781691  57.2237627   2.5558194  75.0361766  63.4095678  11.3699818
  75.1006199  63.8716085  12.2057990  74.3272690  62.7793043  11.4982128
  65.5379056  56.7736886   8.8948818  65.7887095  57.6583895   9.1606394
  66.0738605  56.5941487   8.1223910  89.3611156  60.2050383   5.5624079
  88.6074864  59.6357781   5.4068084  89.4958697  60.1713047   6.5094714
  74.7509784  65.0763785   1.2378799  74.6155459  65.9215321   1.6663646
  75.2919597  65.2783063   0.4744732  71.2377124  51.1555365  17.8993154
  70.8444069  50.6021563  18.5740798  72.0543264  51.4665943  18.2899671
  68.2039181  62.5939223   1.8106724  68.7163702  63.3882473   1.9612288
  68.8561894  61.8965514   1.7440325  70.0134066  65.7104979   3.8929477
  70.1900694  66.6322944   3.7050461  70.8090900  65.3963399   4.3223857
  74.1545085  52.5713244  15.4913410  74.8954798  53.1720397  15.4117873
  74.3863008  51.8290882  14.9331453  69.2986423  57.7569611  13.7691640
  69.1839938  56.8554869  14.0698739  68.4430940  58.0033308  13.4176457
  76.3778260  65.6987352  15.3679141  75.9342115  64.9123730  15.0500045
  77.0395474  65.8866502  14.7023031  71.1365382  67.2283153   9.8939819
  71.6872807  67.1000217   9.1216813  70.2976858  67.5278042   9.5434712
  78.4759499  65.9790152  13.3960542  78.4577974  66.7999033  12.9040811
  79.3979419  65.8544227  13.6210683  74.9332553  63.4934281  14.2384050
  75.4660889  62.7322569  14.0083358  74.4046634  63.2007933  14.9808205
  78.1002248  48.5994347   9.7677692  77.7566517  49.4895989   9.6916803
  78.4681210  48.4096005   8.9047277  66.1688098  60.9227877   2.5866294
  67.0063320  61.3324886   2.3700002  66.3466366  59.9827320   2.5566488
  78.0652530  58.5902958  -1.7249873  77.5499154  59.3607563  -1.4861485
  77.7929839  57.9168094  -1.1016811  75.6499641  53.4352659   3.3335366
  74.7941238  53.0459509   3.1541004  76.0626593  53.5144620   2.4735151
  77.1798788  50.9699002   7.7326925  76.6763584  50.9329137   6.9194731
  77.4729395  51.8791745   7.7923582  73.4241674  51.0537732   6.7393107
  74.2894671  50.8580541   6.3798996  73.4919183  50.8248084   7.6662464
  83.0386804  61.3435313   0.2103301  82.2616247  61.0046472  -0.2341537
  83.7178285  61.3487936  -0.4641734  77.8538834  56.4630050   0.1009908
  77.5488969  56.7776199   0.9520052  78.8069276  56.5411470   0.1437241
  76.2985265  62.6220273   1.7502862  75.7706627  61.8873033   1.4376100
  75.7972768  63.3994950   1.5042831  81.2778111  60.8169294   6.8669909
  80.6201786  61.5068555   6.9550037  82.0818511  61.2065726   7.2103895
  71.0303993  53.2839940   4.1109474  71.6047745  53.0615121   3.3782667
  71.6174975  53.3528634   4.8638075  80.0883570  59.1713667   4.9173850
  80.6015452  59.8043658   5.4195560  80.7384794  58.5714862   4.5517210
  71.3573580  55.3144401  -1.8694641  70.5210892  55.6519087  -1.5485366
  71.2178350  55.1793381  -2.8067504  73.3326661  50.1581189   2.8384543
  72.6791073  49.8430206   2.2141158  73.2907135  49.5356929   3.5644366
  74.4437866  60.4400484  -5.2462165  73.5364927  60.2089737  -5.0471016
  74.9408898  59.6438103  -5.0588183  76.5664401  56.6463122   7.1632191
  75.6486962  56.8678069   7.0053879  76.9824545  56.7209433   6.3043898
  77.3499449  58.0454538   2.2934871  78.0971268  58.5575935   1.9841993
  77.6191038  57.7238591   3.1539265  75.6226099  60.5413079  -0.7238175
  74.7137318  60.2572111  -0.6265705  75.6521183  60.9612157  -1.5834868
  80.8545366  64.1519668   3.0452993  80.4007694  63.3110578   3.1018183
  80.2239333  64.7881066   3.3827773  79.7978286  55.0811654   4.2753660
  79.0601043  54.5689040   4.6063903  80.0505059  54.6412036   3.4636937
  79.2978306  65.9896165   3.9802811  79.5901280  66.5501222   3.2615177
  79.8076926  66.2824726   4.7355970  79.8989913  47.8587906   4.8695430
  80.2048790  46.9985270   4.5821345  80.6242518  48.4505526   4.6694424
  66.1914269  58.2618593   3.2577028  65.9938669  57.6687953   2.5328094
  65.6360933  57.9570803   3.9752966  74.1710993  58.1541699   5.3771621
  74.2259603  57.2015536   5.3014097  73.3602195  58.3101138   5.8612919
  75.3202187  62.0821822  -3.3850096  74.8821617  61.3657681  -3.8444459
  76.0612628  62.3097937  -3.9465005  72.1103353  56.7718759   3.1362000
  71.2971218  57.0712930   3.5427192  72.6062347  56.3774448   3.8536482
  74.2611931  66.7676516   5.0696264  74.2188110  66.9937362   4.1404796
  75.1774630  66.5339890   5.2182065  77.7077565  57.2360583  11.9676894
  78.0626952  57.4632057  12.8271359  78.3549696  57.5678960  11.3454149
  83.4375302  60.3579019   2.6726223  83.2993200  60.5480615   1.7447412
  83.0811520  61.1198402   3.1294274  71.6017428  54.3437114   8.7523235
  72.2416807  54.2025874   8.0546198  70.7694958  54.0571628   8.3761837
  83.4644681  62.4255546   7.6837494  83.8981188  62.3330835   8.5320548
  84.1776262  62.4013047   7.0457510  72.3777732  63.6439545   4.8658227
  73.1718330  63.1489865   4.6640802  71.6669424  63.1157408   4.5025933
  77.1972576  66.0257640   9.2170595  77.2509598  66.5948577   9.9848311
  76.3287357  66.1959525   8.8524632  68.6860495  57.7882627   0.9417980
  67.7558083  57.7267082   1.1587942  68.7817967  57.2658579   0.1454621
  68.6046044  54.3137439   3.5296221  68.8652861  55.2282773   3.4205382
  69.4263216  53.8461882   3.6792834  70.0770969  55.7275197  10.6995046
  70.7494023  55.5192559  10.0507695  69.2500756  55.5297283  10.2600278
  84.3260231  62.4679247  10.2170379  84.5196121  63.3725057  10.4629654
  84.2260849  62.0086666  11.0508965  75.9796541  52.3537138  12.7160707
  75.3324457  53.0527087  12.6225183  76.7497557  52.7873281  13.0836955
  79.3875339  62.6185990  15.7911260  79.2360846  62.3896541  14.8741344
  79.3780019  63.5756591  15.8042605  76.1560676  60.1917902  10.7757527
  77.0852736  60.3429062  10.6026494  75.7351706  60.2801923   9.9206173
  74.9549008  64.2168567   8.5456064  74.8160093  63.8487351   9.4182002
  74.1663604  64.7316206   8.3740022  75.5497160  69.3177663  -0.1118399
  75.7248915  68.8465707   0.7027223  74.8629948  69.9443430   0.1162861
  76.5054223  63.5950170   5.9344902  76.1704055  63.5550940   6.8302552
  76.0058168  62.9294886   5.4615312  70.4798467  59.0017800  11.4597483
  70.3418265  58.2698038  12.0609022  71.3903390  58.9126700  11.1781671
  73.1080767  58.7137759  10.9481163  73.8180386  58.0730951  10.9067781
  73.0650076  58.9650654  11.8707344  81.0967546  65.6505112  13.8687742
  81.0380092  64.9664332  13.2018325  81.4987064  66.3924102  13.4168368
  71.8209701  55.7002977  12.7676802  71.2847058  55.2493715  13.4198399
  71.2326410  55.8348886  12.0247267  70.1158245  72.4667026   6.6621461
  70.3554843  73.0985550   7.3400479  69.2727441  72.1155066   6.9486820
  71.2311960  55.1591628  -4.6696734  70.3541427  55.0380429  -5.0334487
  71.7069713  54.3677707  -4.9217845  81.0984953  63.6144696  12.1001722
  80.2111732  63.2770618  12.2228120  81.6683504  62.8827727  12.3370487
  62.7514100  59.9468788   5.4244773  63.4385140  59.6330518   4.8365788
  62.5962229  60.8510153   5.1512024  67.5548823  54.8358985   9.8529797
  67.4707011  54.2284654   9.1180207  66.7331529  55.3268003   9.8539293
  74.6286107  68.2746149   9.0662965  74.5556278  69.0801120   9.5782269
  74.1863500  68.4738114   8.2410986  74.4175886  67.5117919   2.5765786
  73.6343408  68.0539599   2.6704011  75.1168632  68.0291898   2.9760028
  77.7272536  53.3212548   5.2199992  78.2241236  52.5682510   4.9001062
  76.9559518  53.3576865   4.6543201  85.5802294  59.0252914   6.8618283
  85.5692170  59.9077629   6.4912216  84.7119673  58.6724464   6.6672820
  77.0884790  68.1732983  11.2221123  77.8012762  68.8080447  11.1497025
  76.5974819  68.2696849  10.4061125  78.8102317  62.0784235   2.7938415
  77.8758596  62.1985698   2.6243119  78.9878986  61.1756702   2.5298425
  74.3107505  55.4629931   4.9471676  73.9405293  54.9100971   5.6352582
  74.8066598  54.8588065   4.3946676  82.1974869  57.9201555   3.3288449
  82.6635321  58.7529546   3.2548752  82.6482369  57.4546536   4.0333708
  72.1396704  65.9227426  12.0426694  72.8406163  66.5563909  12.1956089
  71.6691819  66.2642158  11.2822334  80.2651100  64.2645376   0.3274601
  80.5410944  64.1501970   1.2368475  79.3955598  63.8662861   0.2886774
  80.1691531  50.2882142   7.3679351  79.2554611  50.5186368   7.5361558
  80.5984633  50.3720586   8.2193383  79.9397990  58.4772034   9.8679245
  79.2869440  58.7247941   9.2131697  80.3178370  57.6636172   9.5341722
  76.9005164  68.5131727   3.9707415  77.0827558  67.6953383   4.4335167
  77.7238150  68.7299419   3.5332305  77.2347329  67.4399912   1.2322463
  77.7635096  66.9292366   0.6192626  77.4975549  67.1242442   2.0967996
  75.9885563  59.2191845  16.3545282  75.3126200  59.1185974  17.0247657
  76.8113197  59.0631058  16.8181279  67.7364422  65.4563781   8.9757797
  68.3217859  64.7107469   9.1085701  67.5389260  65.7667738   9.8594461
  70.5903077  68.4915029   3.9920239  69.9213452  68.9761156   3.5084279
  70.4515947  68.7384249   4.9063618  62.3282077  58.0269381   7.6962240
  62.3666176  57.4932972   8.4899358  61.8222369  57.5004587   7.0773217
  74.7308346  70.5258772  10.5902898  75.2826654  70.6890394  11.3551983
  75.0714539  71.1163210   9.9182923  69.7072839  52.8733922  11.1924782
  69.7714165  53.7348753  10.7802180  69.6439959  52.2607923  10.4597141
  69.1825111  54.9457054  14.8397817  69.8097150  54.5634132  15.4535341
  68.3253030  54.7271256  15.2053509  79.5819220  65.3520030  16.4451552
  80.1259124  65.9649988  15.9506507  79.0006065  65.9099608  16.9618565
  65.9590654  56.7533483   0.7716172  66.2544095  55.8444162   0.7183225
  65.0578690  56.7321223   0.4497174  77.8676733  68.4740748   7.5766580
  77.7427872  67.6730487   7.0677525  78.5255824  68.9686941   7.0880550
  69.4884901  54.8289480   6.7543720  68.7671487  55.4425448   6.6151193
  70.2778157  55.3647245   6.6760366  79.9311641  66.2749768   9.2046130
  78.9841977  66.1555119   9.1324457  80.2794414  65.3872266   9.2872391
  72.2911215  52.1643907  13.0284372  72.8145616  52.4106203  13.7910681
  72.0723548  52.9963941  12.6087509  67.6878496  54.4347581   0.8955497
  67.3591202  53.5544960   0.7130603  68.0417866  54.3795250   1.7831886
  76.9358075  66.0702484   5.4050482  76.7883037  65.1419191   5.5858052
  77.7611568  66.0922575   4.9207557  70.8020319  54.7220551   1.2630974
  71.1416391  55.2506472   0.5409583  71.2492439  55.0600957   2.0389541
  80.5392196  66.8931043   6.4915355  81.4638744  66.6873904   6.3539806
  80.3707500  66.6447444   7.4004696  73.4963760  53.1057602  10.7134042
  73.1560580  52.3065415  11.1154722  72.7902766  53.4059312  10.1410876
  74.1480232  50.1906914   9.1661365  74.9706301  49.7167392   9.0440256
  74.3918295  50.9697398   9.6660052  72.7888466  53.2195173  -0.5375733
  73.5096829  53.5976425  -1.0412016  72.1653770  53.9384049  -0.4340755
  76.9319589  53.9240321   0.3982599  77.1483203  54.8064959   0.0971428
  76.4513656  53.5326535  -0.3311759  71.6718810  56.8826035   6.9753344
  71.5263391  57.1966338   7.8677626  71.1944014  57.5010935   6.4224243
  73.5315193  53.8728583   7.0234234  73.5176762  52.9769676   6.6866532
  74.2487621  53.8799246   7.6572520  75.3841324  54.3065923   9.0687361
  75.1259102  55.2282994   9.0671691  74.8526364  53.9096357   9.7587825
  80.3287513  67.4116710   1.8477446  80.5024390  66.8463133   1.0951299
  80.8216404  68.2117605   1.6656936  66.1464472  59.4231379   9.9141005
  65.6017941  60.1991187  10.0461280  67.0243822  59.7702184   9.7560127
  72.9352089  52.7542963   2.2921804  73.0568000  51.8259609   2.4912691
  72.6454131  52.7681649   1.3800119  75.8043280  50.4397873   5.4288524
  75.8264976  50.5037207   4.4740503  76.2211339  49.6002382   5.6229030
  86.1826904  60.1753133   3.4667746  86.6258050  59.4260458   3.0686869
  85.3053414  60.1663269   3.0841478  66.9330494  58.5501275  12.8071162
  66.1912230  58.6983911  13.3935793  66.6123239  58.8109541  11.9437912
  74.8774157  68.0917254  12.6051552  75.1861283  67.8466400  13.4774252
  75.6749639  68.2963892  12.1170422  74.8994769  70.2455163   4.8356929
  74.4599759  69.7531542   5.5289785  75.6502886  69.7028131   4.5949004
  67.3787108  66.4366704   4.8381557  68.2045128  66.1370476   4.4580200
  67.0281160  65.6674327   5.2871345  72.3468641  65.7893172   6.9079230
  71.7248650  65.1263877   6.6081458  73.0173508  65.8154304   6.2252878
  65.5795713  64.3553031   5.7970490  64.7427621  63.9275205   5.6154492
  65.5519358  64.5485474   6.7341282  72.4193169  54.2674960  16.5011736
  72.4681324  55.1437083  16.1189506  72.9615683  53.7252353  15.9283380
  82.9048014  64.8116084  15.7812873  82.1143558  64.7940222  15.2417373
  82.6681369  65.3504377  16.5361910  83.0245889  61.6608550  13.0945602
  83.0743894  61.4958557  14.0361125  82.9159813  60.7935809  12.7043483
  71.9082148  64.3397096   0.3837691  72.0570268  65.0232560  -0.2695636
  72.7148592  64.3202186   0.8987147  80.3149652  57.6439478  14.4104909
  81.2159515  57.5045943  14.1188906  80.3897626  57.8093933  15.3503086
  74.6492457  55.0206333  13.2558095  73.7795767  55.3139899  12.9840684
  74.8851937  55.6046778  13.9765359  84.5264086  64.0805491  13.3387624
  84.2348895  64.4435472  14.1751084  83.9136217  63.3672500  13.1600956
  85.7259769  61.6458371   5.8590194  86.5606660  62.0848175   6.0227754
  85.8618897  61.1697024   5.0398439  82.7751274  59.2038106  11.8067681
  83.2505396  59.3965752  10.9986533  81.8516840  59.2597292  11.5611065
  69.6634781  60.3662273   1.3898760  69.4180823  59.4624603   1.5878970
  69.8330696  60.3679424   0.4478238  77.3531491  51.2385950  10.7723515
  77.8713435  51.9746977  10.4470004  76.9986624  51.5449943  11.6070275
  68.9330429  56.0990631  -1.1115079  68.2399674  56.1734986  -1.7675043
  68.6882180  55.3350975  -0.5893562  77.6044085  47.6586232   6.2924412
  77.8845839  46.9909421   6.9184839  78.3894692  47.8515328   5.7799076
  81.4752943  56.0803866  10.0395987  82.4270366  56.1801964  10.0608211
  81.3056394  55.2882135  10.5494071  79.4967323  53.1659449  10.2255388
  78.9017255  53.4464462   9.5301877  79.2117020  53.6553350  10.9972129
  83.9541021  59.3009986   9.1538287  83.9217341  58.3625987   9.3397971
  84.5641645  59.3794023   8.4204112  75.7924352  58.1706039  -4.8034509
  76.7383457  58.0412247  -4.7346091  75.4138597  57.4320701  -4.3265081
  84.1035510  56.0921029   9.1996570  83.5874558  55.3079486   9.0126499
  84.9875458  55.7639746   9.3643089  81.7646237  49.8362045   5.1592383
  81.5671058  49.5277133   6.0435715  82.3745942  50.5623684   5.2890312
  89.7717571  60.3625993   8.2944324  90.5020960  60.1011281   8.8552027
  89.1624517  59.6254715   8.3346392  87.8532868  58.5033855   8.8918775
  87.1266032  58.3689820   8.2835266  87.4380155  58.8110684   9.6975493
  75.6763045  62.2223785  16.6566148  76.5966054  62.4002384  16.8506194
  75.6412628  61.2779830  16.5045847  73.9767269  56.0956015  -4.8679624
  73.0698725  55.7989128  -4.7916910  74.2543250  55.7985833  -5.7345338
  64.8945210  57.4162379   5.5819422  64.5747994  56.5627687   5.2893796
  64.3478638  57.6310957   6.3377390  68.6725117  60.1324820   9.2988929
  68.8911127  61.0641927   9.3176963  69.0850891  59.7732794  10.0843733
  75.5929335  50.6392905   1.2864617  74.7830063  50.2939990   1.6619863
  76.2813752  50.3300449   1.8752229  77.5219883  49.7170952   2.9088914
  78.0750922  50.1366405   3.5678937  77.7589970  48.7906700   2.9511870
  73.5452983  55.7058025  18.6891678  73.4449709  56.6552382  18.6203769
  73.3274525  55.3776264  17.8167748  72.7466054  52.9542950  -4.7267645
  73.6085218  53.2797849  -4.4671827  72.9316398  52.1674446  -5.2394579
  64.7633470  61.0365290   7.5512544  64.0696941  60.6219243   7.0382498
  65.5106461  61.0785827   6.9545963  80.8998690  51.8271477   2.4167578
  80.3197359  52.4856281   2.0345631  80.6334623  51.0048822   2.0054996
  79.3502257  51.2276535   4.6188899  79.8502035  51.3393069   3.8103217
  79.9937865  50.9237587   5.2589707  73.4084253  59.1355164  17.5056740
  72.9251334  59.9355524  17.7120629  73.4945192  59.1463109  16.5524183
  66.6770212  60.9683544   5.4278559  66.6540900  61.0671231   4.4760442
  66.9870849  61.8148695   5.7495725  69.3357590  63.0259699   9.5425173
  70.2900844  62.9943641   9.4755105  69.1370114  62.5650323  10.3575399
  69.9256972  61.5960815  12.1095971  70.7449861  62.0904894  12.1330808
  70.1993780  60.6792783  12.0813538  79.6823568  53.9871567   1.4723926
  78.7949423  54.2721218   1.2544121  80.0977557  53.8265331   0.6251203
  83.0338105  54.0118088   5.1878266  83.8098495  54.5014541   5.4602883
  82.3086239  54.4376142   5.6450135  85.4710663  54.7245708   6.2452206
  86.0655154  54.4841443   5.5345515  85.5437247  54.0052838   6.8725743
  67.6907819  68.5679318   6.5595371  67.5562287  67.8079719   5.9933369
  67.2739881  69.2920218   6.0924160  79.6564592  59.5026103   1.6874217
  79.5999794  59.9594655   0.8481849  80.2092935  58.7416788   1.5097059
  83.4669398  55.2915835   2.5124336  83.2106332  54.8912471   3.3432544
  82.8422266  56.0059629   2.3874475  87.7781736  58.0311908   5.0195628
  87.2181294  58.1005098   5.7927190  87.1725239  57.8552893   4.2995124
  70.8476945  69.4648635   6.7713814  70.7309329  70.4094068   6.6692504
  70.0269391  69.1622197   7.1599613  80.3899371  60.6930885  -1.0173254
  80.3348175  60.5275156  -1.9584810  79.7645427  61.4006917  -0.8611064
  65.1791886  55.9298949  12.8088168  65.8250750  55.4197903  13.2975393
  64.9709038  56.6667631  13.3831593  77.7045279  62.9979796  18.3080309
  78.5736438  63.1720449  17.9466944  77.2252030  63.8174213  18.1856038
  73.6995497  50.1938994  -1.4387936  73.6874167  51.1380833  -1.2819665
  74.5918919  50.0109139  -1.7328475  71.8731459  70.1176897   9.9869742
  72.7758706  70.1500508  10.3036237  71.6468829  69.1877348  10.0016078
  73.6285061  68.8707884   6.6479821  72.6780692  68.8709746   6.5344193
  73.9317547  68.1240618   6.1315855  77.5147616  46.7881770   2.8158001
  76.7480012  46.2340257   2.9614683  77.9258321  46.8603639   3.6772153
  69.5189377  53.0766566  16.9063182  70.3820839  52.7203371  17.1166507
  68.9454788  52.7380461  17.5938587  86.1727461  74.6595850   7.6487108
  85.8345972  74.5436915   6.7607643  87.0417229  74.2587015   7.6288114
  86.6547244  75.8130702  13.6073313  86.6435884  75.4183500  12.7353817
  86.8167883  75.0796775  14.2007085  83.3754505  78.5967814  12.5552497
  83.0844371  79.5013445  12.4399164  84.0111489  78.6384342  13.2696567
  84.3010712  75.9744662   9.1453857  84.8974284  75.7500685   8.4310820
  84.3585683  75.2329408   9.7479305  91.8412870  66.0816683  10.1506378
  91.5096195  66.9512094   9.9267593  91.2458484  65.7652967  10.8300409
  81.7856871  74.7343026   5.5838996  80.8607368  74.6019240   5.7916687
  82.0341285  75.5137246   6.0808938  91.7341534  70.8011770   7.2299728
  90.8258411  70.7327178   6.9358489  91.6829129  71.2783715   8.0581554
  79.1465682  74.3776300   6.4182785  79.2758064  74.6310779   7.3322196
  78.4663134  74.9704008   6.0987440  85.8082399  72.2201415  15.1734626
  85.0315733  72.7795335  15.1637490  86.4472962  72.7058198  15.6949496
  93.6003180  69.0028208   9.0077602  92.9577560  69.2960741   8.3617397
  93.0958109  68.8881128   9.8130799  84.0628772  75.0286869  14.7352593
  84.8043456  75.5671913  14.4587416  83.3565757  75.6553157  14.8924145
  89.5384111  77.1716009  13.3324754  89.9467467  76.7298420  12.5879387
  88.8161373  76.5968637  13.5858947  85.8915181  72.1088616  10.7058311
  86.7376377  72.5328029  10.8492960  85.8313819  71.4522240  11.3996874
  89.0414627  69.7692984  12.3639485  88.7975559  70.5235045  11.8273760
  89.3174557  70.1478332  13.1986732  90.9953090  76.3131597  11.0416750
  91.2069985  76.9563356  10.3651131  90.9482838  75.4793913  10.5738680
  88.5979318  68.9249417   7.9453323  87.7363797  69.2230671   8.2370060
  88.6241753  69.1419816   7.0134355  82.7990135  72.1826517  15.5367903
  82.1688796  72.8642798  15.7703300  82.6926223  72.0709598  14.5921041
  78.0935108  71.8498313   6.4633827  77.3034162  72.1055841   5.9873938
  78.5846355  72.6646651   6.5685867  85.8755521  78.7387595  11.3699818
  85.9399953  79.2008003  12.2057990  85.1666445  78.1084960  11.4982128
  76.3772811  72.1028803   8.8948818  76.6280849  72.9875813   9.1606394
  76.9132359  71.9233405   8.1223910  82.0770878  66.4847283  17.8993154
  81.6837824  65.9313481  18.5740798  82.8937019  66.7957861  18.2899671
  84.9938839  67.9005162  15.4913410  85.7348553  68.5012315  15.4117873
  85.2256762  67.1582799  14.9331453  80.1380177  73.0861529  13.7691640
  80.0233692  72.1846786  14.0698739  79.2824695  73.3325226  13.4176457
  87.2172015  81.0279269  15.3679141  86.7735869  80.2415648  15.0500045
  87.8789229  81.2158420  14.7023031  89.3153253  81.3082069  13.3960542
  89.2971728  82.1290950  12.9040811  90.2373173  81.1836144  13.6210683
  85.7726307  78.8226199  14.2384050  86.3054644  78.0614487  14.0083358
  85.2440388  78.5299850  14.9808205  88.9396002  63.9286265   9.7677692
  88.5960272  64.8187906   9.6916803  89.3074965  63.7387922   8.9047277
  88.0192543  66.2990920   7.7326925  87.5157338  66.2621055   6.9194731
  88.3123149  67.2083663   7.7923582  84.2635428  66.3829650   6.7393107
  85.1288425  66.1872458   6.3798996  84.3312937  66.1540001   7.6662464
  81.8697747  68.6131857   4.1109474  82.4441499  68.3907039   3.3782667
  82.4568730  68.6820552   4.8638075  84.1720415  65.4873106   2.8384543
  83.5184828  65.1722124   2.2141158  84.1300889  64.8648847   3.5644366
  87.4058156  71.9755040   7.1632191  86.4880717  72.1969987   7.0053879
  87.8218299  72.0501350   6.3043898  90.7383668  63.1879824   4.8695430
  91.0442545  62.3277187   4.5821345  91.4636273  63.7797444   4.6694424
  77.0308024  73.5910510   3.2577028  76.8332424  72.9979871   2.5328094
  76.4754688  73.2862721   3.9752966  88.5471319  72.5652501  11.9676894
  88.9020707  72.7923974  12.8271359  89.1943450  72.8970878  11.3454149
  82.4411182  69.6729032   8.7523235  83.0810562  69.5317791   8.0546198
  81.6088713  69.3863546   8.3761837  79.4439799  69.6429357   3.5296221
  79.7046616  70.5574690   3.4205382  80.2656971  69.1753800   3.6792834
  80.9164724  71.0567114  10.6995046  81.5887777  70.8484476  10.0507695
  80.0894510  70.8589200  10.2600278  86.8190296  67.6829055  12.7160707
  86.1718211  68.3819005  12.6225183  87.5891311  68.1165199  13.0836955
  90.2269094  77.9477907  15.7911260  90.0754600  77.7188459  14.8741344
  90.2173773  78.9048509  15.8042605  86.9954430  75.5209820  10.7757527
  87.9246490  75.6720980  10.6026494  86.5745460  75.6093841   9.9206173
  81.3192221  74.3309717  11.4597483  81.1812019  73.5989956  12.0609022
  82.2297145  74.2418617  11.1781671  83.9474522  74.0429677  10.9481163
  84.6574140  73.4022869  10.9067781  83.9043830  74.2942571  11.8707344
  82.6603456  71.0294895  12.7676802  82.1240813  70.5785633  13.4198399
  82.0720164  71.1640803  12.0247267  91.9378708  78.9436614  12.1001722
  91.0505487  78.6062536  12.2228120  92.5077259  78.2119645  12.3370487
  73.5907855  75.2760706   5.4244773  74.2778895  74.9622436   4.8365788
  73.4355984  76.1802070   5.1512024  78.3942577  70.1650902   9.8529797
  78.3100766  69.5576572   9.1180207  77.5725283  70.6559921   9.8539293
  88.5666291  68.6504466   5.2199992  89.0634990  67.8974428   4.9001062
  87.7953272  68.6868782   4.6543201  85.1501260  70.7921849   4.9471676
  84.7799047  70.2392889   5.6352582  85.6460352  70.1879982   4.3946676
  82.9790458  81.2519344  12.0426694  83.6799918  81.8855827  12.1956089
  82.5085573  81.5934075  11.2822334  91.0085286  65.6174059   7.3679351
  90.0948366  65.8478286   7.5361558  91.4378387  65.7012503   8.2193383
  90.7791744  73.8063951   9.8679245  90.1263194  74.0539859   9.2131697
  91.1572124  72.9928089   9.5341722  86.8279317  74.5483762  16.3545282
  86.1519954  74.4477892  17.0247657  87.6506951  74.3922976  16.8181279
  78.5758176  80.7855699   8.9757797  79.1611613  80.0399387   9.1085701
  78.3783015  81.0959655   9.8594461  73.1675831  73.3561299   7.6962240
  73.2059931  72.8224890   8.4899358  72.6616124  72.8296505   7.0773217
  80.5466593  68.2025840  11.1924782  80.6107920  69.0640670  10.7802180
  80.4833714  67.5899841  10.4597141  80.0218866  70.2748972  14.8397817
  80.6490905  69.8926049  15.4535341  79.1646785  70.0563174  15.2053509
  90.4212974  80.6811947  16.4451552  90.9652878  81.2941905  15.9506507
  89.8399819  81.2391526  16.9618565  80.3278656  70.1581398   6.7543720
  79.6065241  70.7717365   6.6151193  81.1171911  70.6939163   6.6760366
  83.1304969  67.4935824  13.0284372  83.6539371  67.7398121  13.7910681
  82.9117302  68.3255859  12.6087509  84.3357514  68.4349519  10.7134042
  83.9954335  67.6357332  11.1154722  83.6296520  68.7351230  10.1410876
  84.9873986  65.5198832   9.1661365  85.8100055  65.0459310   9.0440256
  85.2312050  66.2989316   9.6660052  82.5112565  72.2117952   6.9753344
  82.3657146  72.5258255   7.8677626  82.0337768  72.8302853   6.4224243
  84.3708948  69.2020500   7.0234234  84.3570516  68.3061594   6.6866532
  85.0881376  69.2091164   7.6572520  86.2235078  69.6357841   9.0687361
  85.9652856  70.5574911   9.0671691  85.6920119  69.2388275   9.7587825
  76.9858227  74.7523297   9.9141005  76.4411695  75.5283105  10.0461280
  77.8637577  75.0994101   9.7560127  86.6437034  65.7689791   5.4288524
  86.6658731  65.8329124   4.4740503  87.0605093  64.9294300   5.6229030
  77.7724249  73.8793193  12.8071162  77.0305985  74.0275828  13.3935793
  77.4516993  74.1401459  11.9437912  83.2586923  69.5966878  16.5011736
  83.3075079  70.4729001  16.1189506  83.8009437  69.0544271  15.9283380
  93.7441769  80.1408001  15.7812873  92.9537313  80.1232140  15.2417373
  93.5075123  80.6796295  16.5361910  93.8639644  76.9900468  13.0945602
  93.9137649  76.8250475  14.0361125  93.7553567  76.1227727  12.7043483
  91.1543406  72.9731396  14.4104909  92.0553269  72.8337861  14.1188906
  91.2291381  73.1385851  15.3503086  85.4886212  70.3498250  13.2558095
  84.6189521  70.6431816  12.9840684  85.7245692  70.9338695  13.9765359
  93.6145029  74.5330024  11.8067681  94.0899151  74.7257670  10.9986533
  92.6910594  74.5889210  11.5611065  88.1925245  66.5677867  10.7723515
  88.7107189  67.3038894  10.4470004  87.8380378  66.8741861  11.6070275
  88.4437840  62.9878150   6.2924412  88.7239593  62.3201339   6.9184839
  89.2288447  63.1807246   5.7799076  92.3146698  71.4095784  10.0395987
  93.2664121  71.5093882  10.0608211  92.1450148  70.6174052  10.5494071
  90.3361077  68.4951367  10.2255388  89.7411010  68.7756380   9.5301877
  90.0510774  68.9845268  10.9972129  94.9429264  71.4212947   9.1996570
  94.4268313  70.6371404   9.0126499  95.8269213  71.0931664   9.3643089
  92.6039991  65.1653963   5.1592383  92.4064812  64.8569051   6.0435715
  93.2139697  65.8915601   5.2890312  86.5156799  77.5515703  16.6566148
  87.4359809  77.7294302  16.8506194  86.4806382  76.6071748  16.5045847
  75.7338964  72.7454296   5.5819422  75.4141748  71.8919605   5.2893796
  75.1872392  72.9602874   6.3377390  79.5118872  75.4616737   9.2988929
  79.7304881  76.3933845   9.3176963  79.9244645  75.1024712  10.0843733
  88.3613638  65.0462869   2.9088914  88.9144676  65.4658323   3.5678937
  88.5983724  64.1198618   2.9511870  84.3846737  71.0349943  18.6891678
  84.2843464  71.9844300  18.6203769  84.1668279  70.7068182  17.8167748
  75.6027224  76.3657208   7.5512544  74.9090696  75.9511161   7.0382498
  76.3500215  76.4077744   6.9545963  84.2478007  74.4647082  17.5056740
  83.7645089  75.2647442  17.7120629  84.3338946  74.4755027  16.5524183
  77.5163967  76.2975462   5.4278559  77.4934655  76.3963149   4.4760442
  77.8264603  77.1440612   5.7495725  80.1751345  78.3551617   9.5425173
  81.1294598  78.3235559   9.4755105  79.9763868  77.8942240  10.3575399
  80.7650727  76.9252733  12.1095971  81.5843616  77.4196811  12.1330808
  81.0387534  76.0084701  12.0813538  76.0185641  71.2590867  12.8088168
  76.6644505  70.7489821  13.2975393  75.8102792  71.9959548  13.3831593
  88.5439033  78.3271714  18.3080309  89.4130193  78.5012366  17.9466944
  88.0645785  79.1466131  18.1856038  88.3541371  62.1173688   2.8158001
  87.5873767  61.5632175   2.9614683  88.7652076  62.1895557   3.6772153
  80.3583132  68.4058484  16.9063182  81.2214593  68.0495288  17.1166507
  79.7848543  68.0672378  17.5938587  92.9164633  81.8139200  17.8993154
  92.5231578  81.2605399  18.5740798  93.7330773  82.1249779  18.2899671
  95.2240491  86.3641861  18.6891678  95.1237218  87.3136218  18.6203769
  95.0062034  86.0360100  17.8167748  91.1976886  83.7350401  16.9063182
  92.0608348  83.3787206  17.1166507  90.6242297  83.3964296  17.5938587
  68.7425467  27.0290234   3.1696859  69.2865371  27.6420193   2.6751814
  68.1612312  27.5869813   3.6863872  72.0654261  26.4886289   2.5058180
  71.2749805  26.4710427   1.9662679  71.8287616  27.0274582   3.2607217
  66.8651525  24.6750001   5.0325615  67.7342685  24.8490654   4.6712250
  66.3858277  25.4944418   4.9101345  78.5244001  36.3838627  -5.5629110
  79.1622411  36.2645375  -6.2665770  78.4064844  37.3319471  -5.5041158
  75.8153490  37.4900907   0.3318620  75.8042131  37.0953705  -0.5400876
  75.9774130  36.7566980   0.9252392  72.5360752  40.2738019  -0.7202196
  72.2450618  41.1783650  -0.8355530  73.1717736  40.3154546  -0.0058126
  73.4616958  37.6514867  -4.1300836  74.0580531  37.4270890  -4.8443873
  73.5191930  36.9099613  -3.5275388  77.4950637  39.9599434  -3.7252402
  77.1951360  40.8624473  -3.8336595  77.1501696  39.6931618  -2.8731249
  72.4771416  46.7243755 -10.7581435  72.3995446  47.6751580 -10.6792954
  71.8733060  46.3789627 -10.1006508  74.9688646  33.8971620   1.8979932
  74.1921980  34.4565540   1.8882797  75.6079209  34.3828403   2.4194802
  73.2235018  36.7057074   1.4597899  73.9649703  37.2442117   1.1832723
  72.5172004  37.3323362   1.6169451  78.6990358  38.8486214   0.0570061
  79.1073714  38.4068624  -0.6875307  77.9767620  38.2738841   0.3104254
  75.0521428  33.7858821  -2.5696382  75.8982623  34.2098234  -2.4261733
  74.9920066  33.1292445  -1.8757819  79.0219173  39.4087405  -6.1877650
  78.3928035  39.5733119  -6.8901582  78.6344835  39.8229014  -5.4166686
  78.2020874  31.4463189  -0.9115209  77.9581805  32.2005250  -1.4480933
  78.4780804  31.8248537  -0.0767961  80.1559336  37.9901801  -2.2337943
  80.3676232  38.6333561  -2.9103562  80.1089085  37.1564118  -2.7016013
  71.9596382  33.8596722   2.2613209  71.3295043  34.5413003   2.4948606
  71.8532470  33.7479803   1.3166348  81.2705164  40.8673757  -4.0615586
  82.0922608  40.4653944  -4.3432904  81.2667567  40.7641991  -3.1099470
  75.0361768  40.4157800  -1.9054875  75.1006200  40.8778207  -1.0696703
  74.3272692  39.7855165  -1.7772565  71.2377125  28.1617488   4.6238460
  70.8444071  27.6083686   5.2986105  72.0543265  28.4728066   5.0144978
  74.1545086  29.5775367   2.2158717  74.8954799  30.1782520   2.1363179
  74.3863009  28.8353004   1.6576760  69.2986424  34.7631734   0.4936947
  69.1839939  33.8616991   0.7944046  68.4430942  35.0095431   0.1421763
  76.3778262  42.7049474   2.0924447  75.9342116  41.9185853   1.7745352
  77.0395475  42.8928625   1.4268338  71.1365383  44.2345276  -3.3814874
  71.6872808  44.1062339  -4.1537880  70.2976859  44.5340165  -3.7319981
  78.4759500  42.9852274   0.1205849  78.4577975  43.8061155  -0.3713882
  79.3979420  42.8606349   0.3455990  74.9332554  40.4996404   0.9629357
  75.4660891  39.7384692   0.7328665  74.4046635  40.2070055   1.7053511
  79.2978307  42.9958287  -9.2951882  79.5901281  43.5563345 -10.0139517
  79.8076927  43.2886848  -8.5398723  74.2611932  43.7738638  -8.2058429
  74.2188111  43.9999485  -9.1349897  75.1774631  43.5402013  -8.0572628
  77.7077566  34.2422706  -1.3077800  78.0626954  34.4694179  -0.4483334
  78.3549697  34.5741083  -1.9300545  77.1972577  43.0319763  -4.0584099
  77.2509600  43.6010699  -3.2906383  76.3287359  43.2021648  -4.4230062
  84.3260232  39.4741370  -3.0584314  84.5196122  40.3787180  -2.8125039
  84.2260850  39.0148789  -2.2245729  75.9796543  29.3599260  -0.5593987
  75.3324458  30.0589210  -0.6529510  76.7497558  29.7935404  -0.1917738
  79.3875341  39.6248112   2.5156567  79.2360847  39.3958664   1.5986650
  79.3780020  40.5818714   2.5287912  76.1560677  37.1980025  -2.4997167
  77.0852737  37.3491185  -2.6728200  75.7351707  37.2864046  -3.3548520
  74.9549009  41.2230689  -4.7298629  74.8160095  40.8549474  -3.8572691
  74.1663605  41.7378329  -4.9014671  76.5054224  40.6012292  -7.3409791
  76.1704057  40.5613062  -6.4452142  76.0058170  39.9357008  -7.8139381
  70.4798468  36.0079922  -1.8157210  70.3418266  35.2760161  -1.2145671
  71.3903391  35.9188822  -2.0973023  73.1080769  35.7199882  -2.3273531
  73.8180387  35.0793074  -2.3686912  73.0650077  35.9712776  -1.4047350
  81.0967547  42.6567235   0.5933049  81.0380093  41.9726455  -0.0736368
  81.4987066  43.3986225   0.1413675  71.8209703  32.7065099  -0.5077891
  71.2847060  32.2555838   0.1443705  71.2326411  32.8411008  -1.2507427
  70.1158246  49.4729149  -6.6133233  70.3554844  50.1047673  -5.9354214
  69.2727443  49.1217189  -6.3267873  81.0984955  40.6206819  -1.1752972
  80.2111733  40.2832741  -1.0526573  81.6683506  39.8889850  -0.9384206
  74.6286108  45.2808271  -4.2091729  74.5556279  46.0863243  -3.6972424
  74.1863501  45.4800237  -5.0343707  77.0884792  45.1795105  -2.0533570
  77.8012764  45.8142570  -2.1257668  76.5974820  45.2758971  -2.8693568
  72.1396705  42.9289549  -1.2327999  72.8406165  43.5626032  -1.0798605
  71.6691820  43.2704280  -1.9932360  79.9397991  35.4834156  -3.4075449
  79.2869441  35.7310064  -4.0622996  80.3178371  34.6698294  -3.7412971
  76.9005165  45.5193849  -9.3047278  77.0827559  44.7015505  -8.8419526
  77.7238151  45.7361542  -9.7422388  75.9885564  36.2253967   3.0790588
  75.3126201  36.1248096   3.7492964  76.8113198  36.0693181   3.5426586
  67.7364423  42.4625904  -4.2996896  68.3217860  41.7169592  -4.1668992
  67.5389262  42.7729860  -3.4160232  74.7308347  47.5320895  -2.6851796
  75.2826655  47.6952516  -1.9202710  75.0714540  48.1225332  -3.3571771
  69.1825113  31.9519177   1.5643123  69.8097151  31.5696254   2.1780648
  68.3253032  31.7333379   1.9298816  79.5819221  42.3582152   3.1696859
  80.1259125  42.9712110   2.6751814  79.0006066  42.9161731   3.6863872
  77.8676734  45.4802870  -5.6988113  77.7427874  44.6792610  -6.2077168
  78.5255825  45.9749064  -6.1874143  79.9311643  43.2811890  -4.0708563
  78.9841978  43.1617241  -4.1430237  80.2794416  42.3934388  -3.9882302
  72.2911216  29.1706029  -0.2470321  72.8145618  29.4168326   0.5155988
  72.0723549  30.0026064  -0.6667184  76.9358076  43.0764606  -7.8704211
  76.7883038  42.1481314  -7.6896641  77.7611569  43.0984697  -8.3547136
  80.5392198  43.8993165  -6.7839338  81.4638745  43.6936027  -6.9214887
  80.3707501  43.6509566  -5.8749997  66.9330496  35.5563398  -0.4683531
  66.1912232  35.7046033   0.1181099  66.6123240  35.8171664  -1.3316782
  74.8774158  45.0979376  -0.6703141  75.1861285  44.8528523   0.2019558
  75.6749640  45.3026015  -1.1584271  74.8994770  47.2517286  -8.4397765
  74.4599761  46.7593665  -7.7464908  75.6502887  46.7090254  -8.6805689
  72.3468642  42.7955295  -6.3675463  71.7248652  42.1326000  -6.6673235
  73.0173509  42.8216427  -7.0501815  72.4193170  31.2737083   3.2257043
  72.4681325  32.1499206   2.8434813  72.9615684  30.7314476   2.6528686
  82.9048016  41.8178206   2.5058180  82.1143559  41.8002345   1.9662679
  82.6681370  42.3566500   3.2607217  83.0245891  38.6670673  -0.1809091
  83.0743896  38.5020680   0.7606431  82.9159814  37.7997932  -0.5711211
  80.3149653  34.6501601   1.1350215  81.2159516  34.5108065   0.8434213
  80.3897628  34.8156055   2.0748393  74.6492458  32.0268455  -0.0196598
  73.7795768  32.3202021  -0.2914010  74.8851939  32.6108900   0.7010665
  84.5264087  41.0867614   0.0632930  84.2348896  41.4497595   0.8996391
  83.9136219  40.3734622  -0.1153738  82.7751276  36.2100229  -1.4687012
  83.2505397  36.4027875  -2.2768160  81.8516841  36.2659415  -1.7143628
  79.4967324  30.1721572  -3.0499305  78.9017256  30.4526585  -3.7452817
  79.2117021  30.6615473  -2.2782564  75.6763046  39.2285908   3.3811454
  76.5966055  39.4064507   3.5751501  75.6412629  38.2841953   3.2291154
  73.5452984  32.7120148   5.4136985  73.4449711  33.6614505   5.3449076
  73.3274526  32.3838387   4.5413055  73.4084254  36.1417287   4.2302046
  72.9251336  36.9417647   4.4365935  73.4945193  36.1525232   3.2769490
  69.3357591  40.0321822  -3.7329520  70.2900845  40.0005764  -3.7999588
  69.1370115  39.5712445  -2.9179294  69.9256973  38.6022938  -1.1658722
  70.7449862  39.0967016  -1.1423885  70.1993781  37.6854906  -1.1941155
  67.6907820  45.5741441  -6.7159322  67.5562288  44.8141842  -7.2821324
  67.2739882  46.2982341  -7.1830533  70.8476946  46.4710758  -6.5040880
  70.7309330  47.4156191  -6.6062189  70.0269392  46.1684320  -6.1155080
  77.7045280  40.0041919   5.0325615  78.5736439  40.1782571   4.6712250
  77.2252031  40.8236336   4.9101345  71.8731460  47.1239020  -3.2884951
  72.7758707  47.1562630  -2.9718456  71.6468830  46.1939471  -3.2738615
  73.6285062  45.8770007  -6.6274872  72.6780693  45.8771868  -6.7410500
  73.9317548  45.1302741  -7.1438838  69.5189379  30.0828689   3.6308489
  70.3820840  29.7265493   3.8411813  68.9454789  29.7442583   4.3183893
  86.1727462  51.6657973  -5.6267585  85.8345973  51.5499038  -6.5147051
  87.0417230  51.2649138  -5.6466579  86.6547245  52.8192825   0.3318620
  86.6435886  52.4245623  -0.5400876  86.8167884  52.0858897   0.9252392
  83.3754506  55.6029937  -0.7202196  83.0844372  56.5075567  -0.8355530
  84.0111490  55.6446464  -0.0058126  84.3010713  52.9806785  -4.1300836
  84.8974285  52.7562807  -4.8443873  84.3585684  52.2391531  -3.5275388
  81.7856873  51.7405149  -7.6915698  80.8607369  51.6081363  -7.4838006
  82.0341286  52.5199368  -7.1945755  79.1465684  51.3838422  -6.8571909
  79.2758065  51.6372901  -5.9432497  78.4663135  51.9766130  -7.1767254
  85.8082401  49.2263538   1.8979932  85.0315735  49.7857458   1.8882797
  86.4472964  49.7120321   2.4194802  84.0628773  52.0348991   1.4597899
  84.8043457  52.5734035   1.1832723  83.3565758  52.6615280   1.6169451
  89.5384113  54.1778132   0.0570061  89.9467469  53.7360542  -0.6875307
  88.8161374  53.6030759   0.3104254  85.8915183  49.1150738  -2.5696382
  86.7376378  49.5390152  -2.4261733  85.8313820  48.4584363  -1.8757819
  89.0414628  46.7755107  -0.9115209  88.7975560  47.5297167  -1.4480933
  89.3174559  47.1540454  -0.0767961  90.9953091  53.3193719  -2.2337943
  91.2069986  53.9625479  -2.9103562  90.9482839  52.4856036  -2.7016013
  82.7990137  49.1888639   2.2613209  82.1688797  49.8704920   2.4948606
  82.6926225  49.0771721   1.3166348  78.0935109  48.8560435  -6.8120866
  77.3034163  49.1117964  -7.2880756  78.5846357  49.6708773  -6.7068826
  85.8755522  55.7449718  -1.9054875  85.9399955  56.2070125  -1.0696703
  85.1666446  55.1147083  -1.7772565  76.3772812  49.1090926  -4.3805876
  76.6280851  49.9937936  -4.1148300  76.9132361  48.9295527  -5.1530784
  82.0770879  43.4909405   4.6238460  81.6837825  42.9375604   5.2986105
  82.8937020  43.8019984   5.0144978  84.9938840  44.9067284   2.2158717
  85.7348554  45.5074437   2.1363179  85.2256763  44.1644922   1.6576760
  80.1380178  50.0923652   0.4936947  80.0233694  49.1908909   0.7944046
  79.2824696  50.3387348   0.1421763  87.2172016  58.0341392   2.0924447
  86.7735870  57.2477770   1.7745352  87.8789230  58.2220542   1.4268338
  89.3153254  58.3144192   0.1205849  89.2971730  59.1353073  -0.3713882
  90.2373174  58.1898267   0.3455990  85.7726308  55.8288321   0.9629357
  86.3054645  55.0676609   0.7328665  85.2440390  55.5361973   1.7053511
  87.4058157  48.9817162  -6.1122502  86.4880718  49.2032109  -6.2700814
  87.8218300  49.0563473  -6.9710795  77.0308025  50.5972633 -10.0177666
  76.8332425  50.0041994 -10.7426599  76.4754689  50.2924843  -9.3001727
  88.5471320  49.5714624  -1.3077800  88.9020708  49.7986097  -0.4483334
  89.1943452  49.9033000  -1.9300545  82.4411183  46.6791155  -4.5231459
  83.0810563  46.5379914  -5.2208495  81.6088714  46.3925668  -4.8992857
  79.4439800  46.6491480  -9.7458472  79.7046617  47.5636813  -9.8549311
  80.2656972  46.1815922  -9.5961859  80.9164725  48.0629237  -2.5759647
  81.5887779  47.8546599  -3.2246999  80.0894512  47.8651323  -3.0154415
  86.8190297  44.6891178  -0.5593987  86.1718212  45.3881127  -0.6529510
  87.5891313  45.1227322  -0.1917738  90.2269095  54.9540030   2.5156567
  90.0754602  54.7250582   1.5986650  90.2173775  55.9110631   2.5287912
  86.9954432  52.5271943  -2.4997167  87.9246492  52.6783102  -2.6728200
  86.5745462  52.6155964  -3.3548520  81.3192222  51.3371840  -1.8157210
  81.1812020  50.6052079  -1.2145671  82.2297146  51.2480740  -2.0973023
  83.9474523  51.0491799  -2.3273531  84.6574142  50.4084991  -2.3686912
  83.9043831  51.3004694  -1.4047350  82.6603457  48.0357017  -0.5077891
  82.1240814  47.5847756   0.1443705  82.0720166  48.1702926  -1.2507427
  91.9378709  55.9498736  -1.1752972  91.0505488  55.6124658  -1.0526573
  92.5077260  55.2181768  -0.9384206  73.5907856  52.2822828  -7.8509920
  74.2778896  51.9684558  -8.4388905  73.4355985  53.1864193  -8.1242669
  78.3942578  47.1713025  -3.4224897  78.3100767  46.5638694  -4.1574487
  77.5725285  47.6622043  -3.4215400  82.9790460  58.2581466  -1.2327999
  83.6799919  58.8917949  -1.0798605  82.5085575  58.5996198  -1.9932360
  90.7791745  50.8126074  -3.4075449  90.1263196  51.0601981  -4.0622996
  91.1572125  49.9990212  -3.7412971  86.8279319  51.5545885   3.0790588
  86.1519956  51.4540014   3.7492964  87.6506952  51.3985099   3.5426586
  78.5758178  57.7917821  -4.2996896  79.1611614  57.0461509  -4.1668992
  78.3783016  58.1021778  -3.4160232  73.1675832  50.3623422  -5.5792453
  73.2059932  49.8287012  -4.7855335  72.6616125  49.8358627  -6.1981476
  80.5466595  45.2087962  -2.0829911  80.6107921  46.0702793  -2.4952513
  80.4833715  44.5961964  -2.8157552  80.0218867  47.2811095   1.5643123
  80.6490906  46.8988172   2.1780648  79.1646786  47.0625297   1.9298816
  90.4212976  57.6874070   3.1696859  90.9652880  58.3004028   2.6751814
  89.8399821  58.2453648   3.6863872  80.3278657  47.1643520  -6.5210973
  79.6065243  47.7779488  -6.6603500  81.1171913  47.7001285  -6.5994327
  83.1304970  44.4997947  -0.2470321  83.6539372  44.7460243   0.5155988
  82.9117304  45.3317982  -0.6667184  84.3357515  45.4411642  -2.5620651
  83.9954336  44.6419455  -2.1599971  83.6296522  45.7413353  -3.1343818
  84.9873987  42.5260954  -4.1093328  85.8100057  42.0521433  -4.2314438
  85.2312051  43.3051438  -3.6094642  82.5112566  49.2180075  -6.3001349
  82.3657147  49.5320378  -5.4077068  82.0337770  49.8364975  -6.8530451
  84.3708949  46.2082623  -6.2520460  84.3570518  45.3123716  -6.5888162
  85.0881377  46.2153287  -5.6182174  86.2235080  46.6419963  -4.2067332
  85.9652857  47.5637034  -4.2083002  85.6920120  46.2450398  -3.5166868
  76.9858228  51.7585419  -3.3613688  76.4411696  52.5345227  -3.2293414
  77.8637578  52.1056224  -3.5194567  77.7724250  50.8855316  -0.4683531
  77.0305986  51.0337951   0.1181099  77.4516994  51.1463581  -1.3316782
  83.2586924  46.6029001   3.2257043  83.3075080  47.4791123   2.8434813
  83.8009439  46.0606394   2.6528686  93.7441770  57.1470124   2.5058180
  92.9537314  57.1294263   1.9662679  93.5075125  57.6858418   3.2607217
  93.8639645  53.9962590  -0.1809091  93.9137650  53.8312598   0.7606431
  93.7553568  53.1289849  -0.5711211  91.1543408  49.9793518   1.1350215
  92.0553270  49.8399983   0.8434213  91.2291382  50.1447973   2.0748393
  85.4886213  47.3560373  -0.0196598  84.6189522  47.6493939  -0.2914010
  85.7245693  47.9400818   0.7010665  93.6145030  51.5392146  -1.4687012
  94.0899152  51.7319793  -2.2768160  92.6910596  51.5951332  -1.7143628
  88.1925247  43.5739990  -2.5031178  88.7107191  44.3101017  -2.8284689
  87.8380379  43.8803983  -1.6684419  90.3361079  45.5013490  -3.0499305
  89.7411011  45.7818502  -3.7452817  90.0510775  45.9907391  -2.2782564
  86.5156800  54.5577825   3.3811454  87.4359810  54.7356424   3.5751501
  86.4806383  53.6133871   3.2291154  75.7338965  49.7516419  -7.6935271
  75.4141750  48.8981727  -7.9860897  75.1872394  49.9664997  -6.9377304
  79.5118873  52.4678860  -3.9765764  79.7304883  53.3995968  -3.9577731
  79.9244647  52.1086834  -3.1910961  84.3846738  48.0412066   5.4136985
  84.2843465  48.9906423   5.3449076  84.1668280  47.7130305   4.5413055
  75.6027225  53.3719330  -5.7242149  74.9090697  52.9573283  -6.2372195
  76.3500216  53.4139867  -6.3208730  84.2478008  51.4709205   4.2302046
  83.7645090  52.2709565   4.4365935  84.3338947  51.4817149   3.2769490
  77.5163968  53.3037584  -7.8476134  77.4934656  53.4025271  -8.7994251
  77.8264604  54.1502735  -7.5258968  80.1751346  55.3613739  -3.7329520
  81.1294599  55.3297682  -3.7999588  79.9763869  54.9004363  -2.9179294
  80.7650728  53.9314855  -1.1658722  81.5843617  54.4258934  -1.1423885
  81.0387536  53.0146823  -1.1941155  76.0185642  48.2652989  -0.4666525
  76.6644506  47.7551943   0.0220700  75.8102793  49.0021671   0.1076900
  88.5439034  55.3333837   5.0325615  89.4130194  55.5074489   4.6712250
  88.0645786  56.1528253   4.9101345  80.3583133  45.4120606   3.6308489
  81.2214595  45.0557411   3.8411813  79.7848544  45.0734501   4.3183893
  92.9164634  58.8201323   4.6238460  92.5231580  58.2667521   5.2986105
  93.7330774  59.1311901   5.0144978  95.2240493  63.3703983   5.4136985
  95.1237220  64.3198340   5.3449076  95.0062035  63.0422222   4.5413055
  91.1976888  60.7412524   3.6308489  92.0608349  60.3849329   3.8411813
  90.6242298  60.4026419   4.3183893   2.6461114  98.5280181  71.9397543
   1.8924822  97.9587579  71.7841547   2.7808655  98.4942846  72.8868178
   3.0567529  98.6855791  74.6717787   3.7870917  98.4241080  75.2325491
   2.4474474  97.9484513  74.7119855   1.1382826  96.8263654  75.2692238
   0.4115990  96.6919619  74.6608730   0.7230113  97.1340483  76.0748957
   1.0631694  96.3541707  71.3969091   0.5031252  96.4234896  72.1700653
   0.4575197  96.1782692  70.6768588   4.0233626 101.5109622  71.2468893
   4.3292502 100.6506986  70.9594809   4.7486230 102.1027243  71.0467887
   1.7287797 101.3107949  72.6697876   2.0089551 100.6431138  73.2958302
   2.5138404 101.5037044  72.1572540   1.6391329 100.4403486  69.1931465
   0.8723724  99.8861973  69.3388147   2.0502034 100.5125355  70.0545616
   2.6461115  75.5342304  58.6642850   1.8924823  74.9649702  58.5086854
   2.7808656  75.5004969  59.6113484   3.0567530  75.6917914  61.3963094
   3.7870919  75.4303202  61.9570797   2.4474476  74.9546636  61.4365162
   1.1382827  73.8325777  61.9937545   0.4115991  73.6981741  61.3854037
   0.7230114  74.1402605  62.7994263   1.0631695  73.3603830  58.1214398
   0.5031253  73.4297019  58.8945960   0.4575198  73.1844814  57.4013894
   2.6487713  90.0360344  60.8144354   3.2866123  89.9167091  60.1107694
   2.5308556  90.9841187  60.8732306   2.2028982  87.7611797  57.8897562
   2.9892071  87.3431221  57.5387979   2.4667686  88.6657890  58.0579210
   2.3739059  93.1984648  52.5886218   1.7384892  93.2719274  53.3007123
   2.0436466  93.7878247  51.9105298   7.6037409  87.6987031  58.7930540
   8.3362581  87.1286247  59.0268370   6.8476765  87.3108631  59.2337046
   5.1262829  81.4108605  63.2525149   4.7946154  82.2804016  63.0286364
   4.5308443  81.0944889  63.9319179   1.6194349  93.6121151  62.6521062
   1.3195072  94.5146189  62.5436869   1.2745408  93.3453334  63.5042214
   5.0191493  86.1303691  60.3318499   4.1108370  86.0619099  60.0377260
   4.9679088  86.6075636  61.1600324   6.8853139  84.3320129  62.1096373
   6.2427519  84.6252662  61.4636167   6.3808068  84.2173050  62.9149569
   4.5393303  88.0783302  52.7982232   5.4511159  88.3110689  52.6229930
   4.0302950  88.6620347  52.2357311   2.8234070  92.5007930  66.4343525
   3.2317426  92.0590341  65.6898157   2.1011332  91.9260558  66.6877717
   3.1462885  93.0609121  60.1895813   2.5171747  93.2254835  59.4871881
   2.7588547  93.4750730  60.9606778   7.0252117  93.9963559  57.5440177
   6.3403155  94.3762460  56.9937211   7.1095966  94.6058885  58.2772125
   2.3264586  85.0984905  65.4658255   2.0825518  85.8526966  64.9292531
   2.6024516  85.4770253  66.3005502   4.2803049  91.6423518  64.1435521
   4.4919944  92.2855278  63.4669902   4.2332797  90.8085834  63.6757451
   1.8829278  84.2541338  61.0472093   1.0213757  84.5522592  61.3388830
   1.9091712  84.4711737  60.1153126   5.3948877  94.5195473  62.3157878
   6.2166320  94.1175660  62.0340560   5.3911279  94.4163707  63.2673994
  13.4854870  90.8634222  58.6642850  12.7318578  90.2941620  58.5086854
  13.6202411  90.8296886  59.6113484   2.6003212  96.6373990  66.4979312
   2.5821687  97.4582871  66.0059581   3.5223132  96.5128066  66.7229453
   2.2245961  79.2578186  62.8696462   1.8810231  80.1479828  62.7935573
   2.5924924  79.0679844  62.0066047   2.1896244  89.2486797  51.3768898
   1.6742867  90.0191402  51.6157285   1.9173552  88.5751933  52.0001959
   1.3042502  81.6282841  60.8345696   0.8007297  81.5912976  60.0213501
   1.5973108  82.5375584  60.8942352   7.1630518  92.0019152  53.3122071
   6.3859961  91.6630311  52.8677233   7.8421999  92.0071775  52.6377036
   1.9782547  87.1213889  53.2028679   1.6732683  87.4360038  54.0538822
   2.9312989  87.1995309  53.2456012   5.4021825  91.4753133  59.9688679
   4.7445499  92.1652394  60.0568808   6.2062224  91.8649565  60.3122665
   4.2127284  89.8297506  58.0192621   4.7259165  90.4627497  58.5214330
   4.8628508  89.2298701  57.6535981   1.4749658  99.8081830  50.7753292
   0.8011357 100.1113527  51.3838250   1.8615480 100.6110910  50.4258749
   1.4743162  88.7038377  55.3953642   2.2214981  89.2159774  55.0860764
   1.7434752  88.3822430  56.2558035   4.9789080  94.8103507  56.1471763
   4.5251407  93.9694417  56.2036954   4.3483047  95.4464905  56.4846544
   3.9222000  85.7395493  57.3772431   3.1844756  85.2272879  57.7082673
   4.1748773  85.2995875  56.5655708   3.4222019  96.6480004  57.0821582
   3.7144994  97.2085061  56.3633947   3.9320640  96.9408565  57.8374741
   4.0233627  78.5171745  57.9714200   4.3292504  77.6569108  57.6840115
   4.7486232  79.1089365  57.7713194   1.8321278  87.8944422  65.0695664
   2.1870666  88.1215895  65.9290130   2.4793409  88.2262799  64.4472919
   7.5619015  91.0162858  55.7744993   7.4236914  91.2064454  54.8466182
   7.2055234  91.7782241  56.2313044   7.5888395  93.0839385  60.7856264
   8.0224901  92.9914674  61.6339318   8.3019975  93.0596886  60.1476280
   1.3216290  96.6841479  62.3189365   1.3753312  97.2532416  63.0867081
   0.4531071  96.8543364  61.9543402   8.4503944  93.1263086  63.3189150
   8.6439834  94.0308896  63.5648425   8.3504562  92.6670505  64.1527735
   3.5119053  93.2769829  68.8930030   3.3604559  93.0480380  67.9760114
   3.5023732  94.2340430  68.9061375   3.5657128  91.5990043  49.3100732
   2.9486299  90.8736871  49.2133785   3.0973616  92.3599403  48.9667806
   5.2211260  96.3088951  66.9706512   5.1623806  95.6248171  66.3037095
   5.6230778  97.0507941  66.5187138   5.2228667  94.2728535  65.2020492
   4.3355446  93.9354457  65.3246891   5.7927218  93.5411566  65.4389257
   1.8516250  83.9796387  58.3218762   2.3484950  83.2266349  58.0019832
   1.0803232  84.0160704  57.7561971   9.7046007  89.6836752  59.9637054
   9.6935884  90.5661468  59.5930987   8.8363387  89.3308303  59.7691591
   1.2128504  98.8316822  64.3239894   1.9256476  99.4664286  64.2515795
   0.7218532  98.9280687  63.5079896   2.9346031  92.7368074  55.8957186
   2.0002309  92.8569537  55.7261890   3.1122699  91.8340541  55.6317195
   6.3218582  88.5785393  56.4307220   6.7879034  89.4113385  56.3567522
   6.7726083  88.1130375  57.1352478   4.3894813  94.9229215  53.4293372
   4.6654657  94.8085809  54.3387246   3.5199312  94.5246700  53.3905545
   4.2935245  80.9465980  60.4698121   3.3798325  81.1770207  60.6380328
   4.7228346  81.0304425  61.3212153   4.0641703  89.1355872  62.9698015
   3.4113154  89.3831780  62.3150468   4.4422083  88.3220011  62.6360492
   1.0248877  99.1715566  57.0726185   1.2071272  98.3537222  57.5353938
   1.8481863  99.3883258  56.6351075   1.3591043  98.0983751  54.3341234
   1.8878809  97.5876205  53.7211396   1.6219262  97.7826281  55.1986767
   3.7062934  96.0103868  69.5470323   4.2502837  96.6233827  69.0525277
   3.1249778  96.5683447  70.0637336   1.9920446  99.1324586  60.6785350
   1.8671586  98.3314326  60.1696296   2.6499538  99.6270780  60.1899320
   4.0555355  96.9333607  62.3064900   3.1085690  96.8138958  62.2343227
   4.4038128  96.0456105  62.3891162   1.0601788  96.7286323  58.5069253
   0.9126751  95.8003030  58.6876823   1.8855282  96.7506413  58.0226328
   4.6635910  97.5514881  59.5934125   5.5882457  97.3457743  59.4558576
   4.4951213  97.3031283  60.5023467   1.0563302  84.5824160  53.5001370
   1.2726917  85.4648798  53.1990198   0.5757370  84.1910374  52.7707012
   4.4531226  98.0700549  54.9496217   4.6268104  97.5046971  54.1970069
   4.9460117  98.8701444  54.7675707  10.3070617  90.8336972  56.5686517
  10.7501763  90.0844297  56.1705640   9.4297128  90.8247108  56.1860249
   5.4406399  97.3867313  52.0493115   6.1357303  98.0074006  52.2680430
   5.7829549  96.5362665  52.3245493   7.3397822  94.8367019  53.5780446
   7.8649146  95.1754292  52.8529766   7.2520174  93.9014034  53.3943580
   7.0291728  95.4699923  68.8831644   6.2387272  95.4524061  68.3436143
   6.7925082  96.0088216  69.6380680   7.1489603  92.3192389  66.1964372
   7.1987608  92.1542396  67.1379895   7.0403526  91.4519648  65.8062253
   4.4393365  88.3023317  67.5123679   5.3403228  88.1629782  67.2207677
   4.5141340  88.4677772  68.4521856   8.6507800  94.7389330  66.4406394
   8.3592608  95.1019311  67.2769855   8.0379931  94.0256339  66.2619726
   9.8503482  92.3042210  58.9608964  10.6850373  92.7432014  59.1246524
   9.9862611  91.8280863  58.1417210   6.8994988  89.8621945  64.9086452
   7.3749110  90.0549591  64.1005303   5.9760553  89.9181131  64.6629836
   1.4775204  81.8969789  63.8742286   1.9957148  82.6330816  63.5488774
   1.1230337  82.2033782  64.7089045   1.7287799  78.3170071  59.3943182
   2.0089552  77.6493260  60.0203609   2.5138406  78.5099167  58.8817846
   5.5996657  86.7387705  63.1414757   6.5514080  86.8385803  63.1626982
   5.4300107  85.9465974  63.6512842   3.6211036  83.8243288  63.3274158
   3.0260969  84.1048301  62.6320647   3.3360733  84.3137189  64.0990899
   2.7518527  97.7766215  52.0876791   3.6849200  97.7111777  52.2909666
   2.6641740  98.6122482  51.6291324   5.3806544  97.0932086  49.0480739
   5.3020175  96.7591949  49.9416496   6.2016210  97.5853853  49.0472211
   8.0784735  89.9593825  62.2557057   8.0461055  89.0209826  62.4416741
   8.6885358  90.0377862  61.5222882   8.2279223  86.7504868  62.3015340
   7.7118272  85.9663325  62.1145269   9.1119172  86.4223585  62.4661860
   5.8889950  80.4945884  58.2611153   5.6914771  80.1860972  59.1454485
   6.4989656  81.2207523  58.3909083  13.8961285  91.0209832  61.3963094
  14.6264673  90.7595120  61.9570797  13.2868230  90.2838554  61.4365162
  11.9776582  89.1617694  61.9937545  11.2509745  89.0273659  61.3854037
  11.5623869  89.4694523  62.7994263   1.6463597  80.3754791  56.0107684
   2.1994635  80.7950244  56.6697707   1.8833683  79.4490539  56.0530640
   5.0242404  82.4855316  55.5186349   4.4441073  83.1440120  55.1364401
   4.7578337  81.6632660  55.1073766   3.4745970  81.8860374  57.7207669
   3.9745749  81.9976908  56.9121988   4.1181578  81.5821426  58.3608477
   3.8067282  84.6455406  54.5742697   2.9193137  84.9305057  54.3562892
   4.2221271  84.4849170  53.7269974   7.1581818  84.6701927  58.2897036
   7.9342208  85.1598380  58.5621653   6.4329952  85.0959981  58.7468906
   9.5954377  85.3829546  59.3470977  10.1898867  85.1425282  58.6364285
   9.6680960  84.6636677  59.9744513   2.9510495  94.4100081  48.6690717
   3.6546346  94.6150083  49.2848372   2.2273144  94.9776843  48.9339800
   3.7808306  90.1609942  54.7892987   3.7243507  90.6178494  53.9500619
   4.3336648  89.4000627  54.6115830   7.5913112  85.9499674  55.6143106
   7.3350046  85.5496310  56.4451314   6.9665980  86.6643468  55.4893246
  11.9025449  88.6895747  58.1214398  11.3425007  88.7588937  58.8945960
  11.2968953  88.5136732  57.4013894   4.8597193  94.8482610  50.7189177
   5.6942797  94.4163809  50.5366652   4.6981536  94.6764624  51.6466071
   4.5143085  91.3514723  52.0845516   4.4591889  91.1858995  51.1433960
   3.8889140  92.0590756  52.2407706   1.8288992  93.6563635  71.4099079
   2.6980152  93.8304288  71.0485714   1.3495744  94.4758052  71.2874808
   1.6391330  77.4465609  55.9176771   0.8723726  76.8924096  56.0633454
   2.0502035  77.5187478  56.7790923  13.0422736 103.0903715  57.8897562
  13.8285826 102.6723138  57.5387979  13.3061441 103.9949807  58.0579210
  18.4431164 103.0278948  58.7930540  19.1756335 102.4578165  59.0268370
  17.6870519 102.6400549  59.2337046  15.9656584  96.7400522  63.2525149
  15.6339909  97.6095933  63.0286364  15.3702197  96.4236806  63.9319179
   9.7012770 100.4796089  50.9855231   9.8687173 101.3476326  51.3525702
   9.5109939 100.6423371  50.0616520  15.8585247 101.4595609  60.3318499
  14.9502125 101.3911017  60.0377260  15.8072843 101.9367553  61.1600324
   9.6801991 102.9353747  51.9701898   9.5601616 103.3810798  52.8087378
   8.9854579 103.2839065  51.4115436   9.9326113 102.8785254  68.2753396
   9.1559447 103.4379174  68.2656261  10.5716676 103.3642037  68.7968266
  17.7246894  99.6612047  62.1096373  17.0821274  99.9544580  61.4636167
  17.2201822  99.5464967  62.9149569  15.3787057 103.4075220  52.7982232
  16.2904913 103.6402607  52.6229930  14.8696704 103.9912264  52.2357311
  10.0158895 102.7672455  63.8077082  10.8620090 103.1911868  63.9511731
   9.9557533 102.1106079  64.5015645  13.1658340 100.4276823  65.4658255
  12.9219272 101.1818884  64.9292531  13.4418271 100.8062171  66.3005502
  12.7223032  99.5833256  61.0472093  11.8607511  99.8814510  61.3388830
  12.7485467  99.8003655  60.1153126  24.3248624 106.1926139  58.6642850
  23.5712332 105.6233537  58.5086854  24.4596165 106.1588804  59.6113484
   6.2014592  97.1431122  71.0011924   5.8081537  96.5897320  71.6759568
   7.0180732  97.4541700  71.3918442   9.1182553  98.5589001  68.5932181
   9.8592266  99.1596154  68.5136643   9.3500476  97.8166638  68.0350223
  13.0639716  94.5870104  62.8696462  12.7203985  95.4771745  62.7935573
  13.4318678  94.3971761  62.0066047  13.0289998 104.5778715  51.3768898
  12.5136622 105.3483319  51.6157285  12.7567307 103.9043851  52.0001959
  10.6137109  99.4228415  56.4354136   9.7578706  99.0335266  56.2559775
  11.0264061  99.5020376  55.5753921  12.1436256  96.9574759  60.8345696
  11.6401052  96.9204894  60.0213501  12.4366863  97.8667501  60.8942352
   8.3879142  97.0413488  59.8411877   9.2532139  96.8456297  59.4817767
   8.4556651  96.8123840  60.7681234  18.0024273 107.3311069  53.3122071
  17.2253715 106.9922229  52.8677233  18.6815753 107.3363692  52.6377036
  12.8176302 102.4505807  53.2028679  12.5126437 102.7651956  54.0538822
  13.7706744 102.5287227  53.2456012   5.9941461  99.2715696  57.2128244
   6.5685213  99.0490878  56.4801437   6.5812443  99.3404391  57.9656845
  15.0521038 105.1589423  58.0192621  15.5652920 105.7919415  58.5214330
  15.7022262 104.5590619  57.6535981   6.3211048 101.3020157  51.2324129
   5.4848360 101.6394844  51.5533404   6.1815818 101.1669137  50.2951266
   8.2964129  96.1456945  55.9403314   7.6428541  95.8305962  55.3159928
   8.2544603  95.5232686  56.6663137  11.5301869 102.6338879  60.2650961
  10.6124430 102.8553826  60.1072649  11.9462013 102.7085189  59.4062669
  12.3136917 104.0330294  55.3953642  13.0608736 104.5451692  55.0860764
  12.5828506 103.7114347  56.2558035  14.7615754 101.0687411  57.3772431
  14.0238511 100.5564797  57.7082673  15.0142528 100.6287792  56.5655708
  14.8627381  93.8463663  57.9714200  15.1686258  92.9861026  57.6840115
  15.5879986  94.4381283  57.7713194   7.0740821 102.7594516  56.2380770
   6.2608687 103.0588686  56.6445962   7.5699815 102.3650204  56.9555252
  12.6715033 103.2236340  65.0695664  13.0264420 103.4507813  65.9290130
  13.3187164 103.5554717  64.4472919  18.4012770 106.3454776  55.7744993
  18.2630668 106.5356372  54.8466182  18.0448988 107.1074159  56.2313044
   6.5654896 100.3312871  61.8542005   7.2054275 100.1901630  61.1564968
   5.7332426 100.0447384  61.4780607   3.5683512 100.3013196  56.6314992
   3.8290329 101.2158529  56.5224152   4.3900684  99.8337639  56.7811605
   5.0408437 101.7150953  63.8013816   5.7131491 101.5068315  63.1526465
   4.2138224 101.5173039  63.3619049  10.9434010  98.3412894  65.8179477
  10.2961925  99.0402844  65.7243954  11.7135025  98.7749038  66.1855725
   6.7847169 101.6878733  65.8695573   6.2484526 101.2369472  66.5217169
   6.1963878 101.8224642  65.1266037   6.1949428 101.1467385  48.4322036
   5.3178895 101.0256186  48.0684283   6.6707181 100.3553463  48.1800925
   2.5186291 100.8234741  62.9548567   2.4344479 100.2160411  62.2198977
   1.6968997 101.3143759  62.9558063  12.6910004  99.3088305  58.3218762
  13.1878704  98.5558267  58.0019832  11.9196986  99.3452621  57.7561971
  20.5439762 105.0128670  59.9637054  20.5329638 105.8953386  59.5930987
  19.6757141 104.6600221  59.7691591   9.2744973 101.4505688  58.0490447
   8.9042761 100.8976728  58.7371352   9.7704066 100.8463821  57.4965447
  17.1612337 103.9077311  56.4307220  17.6272789 104.7405303  56.3567522
  17.6119837 103.4422293  57.1352478  15.1328999  96.2757898  60.4698121
  14.2192079  96.5062125  60.6380328  15.5622101  96.3596342  61.3212153
  14.9035458 104.4647790  62.9698015  14.2506908 104.7123698  62.3150468
  15.2815838 103.6511928  62.6360492   4.6710307  98.8609678  64.2943553
   4.7351633  99.7224509  63.8820951   4.6077427  98.2483680  63.5615911
   4.1462579 100.9332811  67.9416587   4.7734618 100.5509888  68.5554111
   3.2890498 100.7147013  68.3072280   4.4522369 100.8165237  59.8562491
   3.7308955 101.4301204  59.7169964   5.2415625 101.3523001  59.7779136
   7.2548683  98.1519663  66.1303142   7.7783085  98.3981960  66.8929452
   7.0361016  98.9839698  65.7106280   2.6515964 100.4223338  53.9974267
   2.3228670  99.5420717  53.8149373   3.0055334 100.3671006  54.8850656
   5.7657787 100.7096308  54.3649745   6.1053859 101.2382229  53.6428353
   6.2129907 101.0476714  55.1408311   8.4601228  99.0933358  63.8152813
   8.1198048  98.2941171  64.2173493   7.7540234  99.3935069  63.2429646
   9.1117700  96.1782671  62.2680136   9.9343769  95.7043149  62.1459026
   9.3555763  96.9573154  62.7678822   7.7525934  99.2070929  52.5643037
   8.4734297  99.5852182  52.0606754   7.1291238  99.9259806  52.6678015
  11.8957057  99.9116078  53.5001370  12.1120671 100.7940716  53.1990198
  11.4151124  99.5202291  52.7707012   8.4952661  99.8604339  60.1253004
   8.4814230  98.9645433  59.7885302   9.2125089  99.8675003  60.7591290
  10.3478792 100.2941679  62.1706131  10.0896570 101.2158750  62.1690462
   9.8163832  99.8972114  62.8606596   7.8989557  98.7418720  55.3940574
   8.0205468  97.8135366  55.5931462   7.6091600  98.7557406  54.4818890
  10.7680748  96.4273630  58.5307294  10.7902444  96.4912963  57.5759274
  11.1848807  95.5878139  58.7247800  21.1464372 106.1628890  56.5686517
  21.5895518 105.4136215  56.1705640  20.2690882 106.1539026  56.1860249
   7.3830637 100.2550717  69.6030507   7.4318792 101.1312840  69.2208276
   7.9253151  99.7128110  69.0302150  15.2787120 103.6315235  67.5123679
  16.1796983 103.4921699  67.2207677  15.3535094 103.7969689  68.4521856
   9.6129925 101.0082089  66.3576865   8.7433235 101.3015655  66.0859454
   9.8489405 101.5922534  67.0784129  20.6897237 107.6334128  58.9608964
  21.5244128 108.0723932  59.1246524  20.8256365 107.1572781  58.1417210
  17.7388742 105.1913863  64.9086452  18.2142864 105.3841509  64.1005303
  16.8154308 105.2473049  64.6629836  12.3168959  97.2261706  63.8742286
  12.8350903  97.9622733  63.5488774  11.9624092  97.5325700  64.7089045
   3.8967897 102.0866387  51.9903692   3.2037142 102.1610742  51.3343728
   3.6519649 101.3226731  52.5125209  12.5681553  93.6461989  59.3943182
  12.8483307  92.9785178  60.0203609  13.3532160  93.8391084  58.8817846
  16.4390411 102.0679623  63.1414757  17.3907834 102.1677720  63.1626982
  16.2693862 101.2757891  63.6512842  14.4604791  99.1535206  63.3274158
  13.8654723  99.4340219  62.6320647  14.1754488  99.6429107  64.0990899
  18.9178489 105.2885742  62.2557057  18.8854809 104.3501743  62.4416741
  19.5279113 105.3669779  61.5222882  10.7561820 104.1581795  48.2984261
  11.7020925 104.0288004  48.3672679  10.3776065 103.4196457  48.7753689
  19.0672978 102.0796786  62.3015340  18.5512026 101.2955243  62.1145269
  19.9512926 101.7515503  62.4661860  16.7283705  95.8237801  58.2611153
  16.5308526  95.5152890  59.1454485  17.3383410  96.5499440  58.3909083
  24.7355039 106.3501749  61.3963094  25.4658428 106.0887037  61.9570797
  24.1261985 105.6130471  61.4365162  22.8170336 104.4909612  61.9937545
  22.0903500 104.3565577  61.3854037  22.4017623 104.7986441  62.7994263
   8.9404737 102.0831772  48.2339146   8.0336193 101.7864885  48.3101860
   9.2180718 101.7861590  47.3673433  10.5566803  96.6268662  54.3883388
   9.7467531  96.2815747  54.7638634  11.2451220  96.3176205  54.9770999
  12.4857351  95.7046708  56.0107684  13.0388390  96.1242162  56.6697707
  12.7227438  94.7782456  56.0530640   8.5090451 101.6933782  71.7910448
   8.4087177 102.6428139  71.7222539   8.2911993 101.3652021  70.9186518
   7.7103522  98.9418707  48.3751126   8.5722686  99.2673605  48.6346943
   7.8953866  98.1550203  47.8624191  15.8636158  97.8147234  55.5186349
  15.2834827  98.4732038  55.1364401  15.5972091  96.9924578  55.1073766
  14.3139725  97.2152291  57.7207669  14.8139503  97.3268826  56.9121988
  14.9575333  96.9113344  58.3608477  14.6461036  99.9747324  54.5742697
  13.7586891 100.2596975  54.3562892  15.0615025  99.8141087  53.7269974
  17.9975573  99.9993845  58.2897036  18.7735963 100.4890297  58.5621653
  17.2723707 100.4251899  58.7468906  20.4348131 100.7121464  59.3470977
  21.0292622 100.4717200  58.6364285  20.5074715  99.9928595  59.9744513
  14.6202060 105.4901860  54.7892987  14.5637262 105.9470411  53.9500619
  15.1730403 104.7292544  54.6115830  18.4306866 101.2791592  55.6143106
  18.1743800 100.8788227  56.4451314  17.8059734 101.9935386  55.4893246
  22.7419204 104.0187665  58.1214398  22.1818762 104.0880854  58.8945960
  22.1362707 103.8428650  57.4013894   8.6632965  96.1814750  51.6630835
   8.6511635  97.1256590  51.8199105   9.5556387  95.9984896  51.3690296
  12.4785084  92.7757527  55.9176771  11.7117480  92.2216013  56.0633454
  12.8895789  92.8479395  56.7790923   4.4826845  99.0642323  70.0081953
   5.3458307  98.7079127  70.2185277   3.9092256  98.7256217  70.6957357
  25.7021136 109.1755580  57.9714200  26.0080013 108.3152944  57.6840115
  26.4273741 109.7673201  57.7713194  23.4075308 108.9753906  59.3943182
  23.6877061 108.3077096  60.0203609  24.1925915 109.1683002  58.8817846
  23.3178839 108.1049444  55.9176771  22.5511235 107.5507931  56.0633454
  23.7289544 108.1771313  56.7790923   2.6461116  52.5404427  45.3888156
   1.8924825  51.9711825  45.2332161   2.7808658  52.5067091  46.3358791
   3.0567531  52.6980037  48.1208401   3.7870920  52.4365325  48.6816104
   2.4474477  51.9608759  48.1610469   1.1382829  50.8387899  48.7182852
   0.4115992  50.7043864  48.1099343   0.7230115  51.1464728  49.5239570
   1.0631696  50.3665952  44.8459705   0.5031254  50.4359142  45.6191267
   0.4575200  50.1906937  44.1259201   2.6487715  67.0422466  47.5389660
   3.2866125  66.9229213  46.8353000   2.5308558  67.9903310  47.5977612
   2.2028983  64.7673920  44.6142868   2.9892072  64.3493343  44.2633285
   2.4667687  65.6720012  44.7824517   2.3739060  70.2046770  39.3131525
   1.7384893  70.2781397  40.0252430   2.0436467  70.7940369  38.6350604
   7.6037410  64.7049153  45.5175847   8.3362582  64.1348370  45.7513676
   6.8476766  64.3170754  45.9582352   5.1262831  58.4170727  49.9770455
   4.7946155  59.2866138  49.7531670   4.5308444  58.1007011  50.6564486
   1.6194350  70.6183273  49.3766368   1.3195073  71.5208312  49.2682175
   1.2745410  70.3515456  50.2287521   5.0191494  63.1365813  47.0563805
   4.1108371  63.0681222  46.7622566   4.9679090  63.6137758  47.8845631
   6.8853140  61.3382252  48.8341679   6.2427521  61.6314785  48.1881474
   6.3808069  61.2235172  49.6394876   4.5393304  65.0845425  39.5227539
   5.4511160  65.3172812  39.3475236   4.0302951  65.6682469  38.9602617
   2.8234072  69.5070053  53.1588831   3.2317428  69.0652463  52.4143464
   2.1011333  68.9322680  53.4123024   3.1462886  70.0671244  46.9141120
   2.5171749  70.2316958  46.2117188   2.7588548  70.4812853  47.6852084
   7.0252118  71.0025681  44.2685484   6.3403156  71.3824583  43.7182517
   7.1095968  71.6121008  45.0017432   2.3264587  62.1047028  52.1903562
   2.0825519  62.8589089  51.6537838   2.6024518  62.4832376  53.0250809
   4.2803050  68.6485640  50.8680827   4.4919945  69.2917400  50.1915208
   4.2332798  67.8147957  50.4002757   1.8829279  61.2603461  47.7717400
   1.0213758  61.5584715  48.0634137   1.9091713  61.4773860  46.8398432
   5.3948878  71.5257596  49.0403185   6.2166321  71.1237783  48.7585866
   5.3911281  71.4225830  49.9919301  13.4854871  67.8696344  45.3888156
  12.7318579  67.3003742  45.2332161  13.6202412  67.8359009  46.3358791
   2.6003213  73.6436113  53.2224619   2.5821689  74.4644994  52.7304888
   3.5223133  73.5190188  53.4474760   2.2245962  56.2640308  49.5941769
   1.8810232  57.1541950  49.5180880   2.5924925  56.0741966  48.7311354
   2.1896245  66.2548920  38.1014204   1.6742869  67.0253524  38.3402592
   1.9173554  65.5814056  38.7247266   1.3042503  58.6344964  47.5591002
   0.8007298  58.5975099  46.7458808   1.5973110  59.5437706  47.6187659
   7.1630519  69.0081274  40.0367378   6.3859962  68.6692434  39.5922540
   7.8422000  69.0133897  39.3622343   1.9782548  64.1276012  39.9273985
   1.6732684  64.4422161  40.7784129   2.9312990  64.2057432  39.9701318
   5.4021826  68.4815255  46.6933986   4.7445501  69.1714517  46.7814114
   6.2062225  68.8711687  47.0367972   4.2127285  66.8359628  44.7437927
   4.7259167  67.4689620  45.2459637   4.8628509  66.2360824  44.3781287
   1.4749659  76.8143952  37.4998599   0.8011358  77.1175649  38.1083556
   1.8615481  77.6173033  37.1504056   1.4743164  65.7100499  42.1198948
   2.2214983  66.2221897  41.8106070   1.7434753  65.3884552  42.9803342
   4.9789081  71.8165630  42.8717070   4.5251408  70.9756539  42.9282260
   4.3483048  72.4527028  43.2091850   3.9222001  62.7457616  44.1017737
   3.1844758  62.2335002  44.4327980   4.1748774  62.3057997  43.2901014
   3.4222020  73.6542126  43.8066888   3.7144995  74.2147183  43.0879254
   3.9320641  73.9470687  44.5620047   4.0233628  55.5233868  44.6959507
   4.3292505  54.6631231  44.4085422   4.7486233  56.1151488  44.4958501
   1.8321279  64.9006545  51.7940971   2.1870667  65.1278018  52.6535436
   2.4793411  65.2324922  51.1718226   7.5619016  68.0224981  42.4990300
   7.4236915  68.2126577  41.5711489   7.2055235  68.7844364  42.9558351
   7.5888396  70.0901508  47.5101571   8.0224903  69.9976797  48.3584625
   8.3019977  70.0659008  46.8721587   1.3216291  73.6903602  49.0434672
   1.3753313  74.2594538  49.8112388   0.4531072  73.8605487  48.6788709
   8.4503946  70.1325208  50.0434456   8.6439836  71.0371019  50.2893731
   8.3504564  69.6732628  50.8773042   3.5119054  70.2831951  55.6175337
   3.3604561  70.0542503  54.7005421   3.5023734  71.2402553  55.6306682
   3.5657129  68.6052165  36.0346039   2.9486300  67.8798994  35.9379091
   3.0973618  69.3661526  35.6913113   5.2211261  73.3151074  53.6951819
   5.1623807  72.6310294  53.0282402   5.6230779  74.0570064  53.2432445
   5.2228668  71.2790658  51.9265799   4.3355447  70.9416580  52.0492198
   5.7927219  70.5473689  52.1634564   1.8516251  60.9858510  45.0464069
   2.3484951  60.2328472  44.7265139   1.0803233  61.0222826  44.4807278
   9.7046009  66.6898875  46.6882360   9.6935885  67.5723591  46.3176293
   8.8363388  66.3370426  46.4936897   1.2128505  75.8378944  51.0485200
   1.9256477  76.4726409  50.9761102   0.7218534  75.9342810  50.2325202
   2.9346032  69.7430197  42.6202492   2.0002311  69.8631659  42.4507196
   3.1122700  68.8402664  42.3562502   6.3218583  65.5847516  43.1552526
   6.7879036  66.4175508  43.0812829   6.7726084  65.1192498  43.8597785
   4.3894814  71.9291337  40.1538678   4.6654658  71.8147932  41.0632552
   3.5199313  71.5308822  40.1150851   4.2935246  57.9528103  47.1943428
   3.3798326  58.1832330  47.3625635   4.7228348  58.0366547  48.0457460
   4.0641705  66.1417995  49.6943322   3.4113155  66.3893902  49.0395774
   4.4422084  65.3282133  49.3605799   1.0248878  76.1777688  43.7971492
   1.2071273  75.3599344  44.2599244   1.8481864  76.3945380  43.3596382
   1.3591044  75.1045873  41.0586540   1.8878810  74.5938328  40.4456703
   1.6219264  74.7888404  41.9232073   3.7062935  73.0165991  56.2715629
   4.2502839  73.6295949  55.7770584   3.1249780  73.5745569  56.7882642
   1.9920448  76.1386709  47.4030657   1.8671587  75.3376449  46.8941602
   2.6499539  76.6332902  46.9144627   4.0555356  73.9395729  49.0310207
   3.1085692  73.8201080  48.9588534   4.4038129  73.0518227  49.1136468
   1.0601789  73.7348445  45.2314559   0.9126752  72.8065153  45.4122129
   1.8855283  73.7568536  44.7471634   4.6635911  74.5577004  46.3179432
   5.5882459  74.3519865  46.1803883   4.4951215  74.3093405  47.2268773
   1.0563304  61.5886283  40.2246676   1.2726918  62.4710921  39.9235505
   0.5757371  61.1972496  39.4952318   4.4531227  75.0762672  41.6741523
   4.6268105  74.5109094  40.9215376   4.9460119  75.8763566  41.4921013
  10.3070619  67.8399094  43.2931823  10.7501765  67.0906420  42.8950946
   9.4297129  67.8309231  42.9105555   5.4406400  74.3929436  38.7738422
   6.1357305  75.0136129  38.9925736   5.7829550  73.5424787  39.0490800
   7.3397823  71.8429141  40.3025752   7.8649147  72.1816414  39.5775072
   7.2520176  70.9076157  40.1188887   7.0291729  72.4762045  55.6076950
   6.2387273  72.4586184  55.0681450   6.7925084  73.0150339  56.3625987
   7.1489604  69.3254511  52.9209679   7.1987609  69.1604519  53.8625202
   7.0403528  68.4581771  52.5307560   4.4393367  65.3085440  54.2368986
   5.3403229  65.1691904  53.9452983   4.5141341  65.4739894  55.1767163
   8.6507801  71.7451453  53.1651701   8.3592609  72.1081434  54.0015161
   8.0379932  71.0318461  52.9865033   9.8503483  69.3104333  45.6854271
  10.6850375  69.7494137  45.8491831   9.9862612  68.8342986  44.8662517
   6.8994989  66.8684068  51.6331758   7.3749111  67.0611714  50.8250610
   5.9760555  66.9243253  51.3875142   1.4775206  58.9031911  50.5987592
   1.9957150  59.6392938  50.2734081   1.1230339  59.2095904  51.4334352
   1.7287800  55.3232194  46.1188489   2.0089554  54.6555383  46.7448916
   2.5138407  55.5161289  45.6063153   5.5996658  63.7449828  49.8660064
   6.5514081  63.8447925  49.8872288   5.4300109  62.9528096  50.3758148
   3.6211038  60.8305411  50.0519465   3.0260970  61.1110424  49.3565954
   3.3360734  61.3199312  50.8236206   2.7518528  74.7828338  38.8122098
   3.6849201  74.7173899  39.0154973   2.6641741  75.6184605  38.3536630
   5.3806545  74.0994208  35.7726045   5.3020176  73.7654072  36.6661803
   6.2016212  74.5915976  35.7717517   8.0784736  66.9655947  48.9802364
   8.0461056  66.0271948  49.1662048   8.6885360  67.0439984  48.2468189
   8.2279225  63.7566991  49.0260647   7.7118273  62.9725447  48.8390576
   9.1119173  63.4285707  49.1907166   5.8889951  57.5008006  44.9856460
   5.6914773  57.1923095  45.8699792   6.4989657  58.2269645  45.1154389
  13.8961286  68.0271954  48.1208401  14.6264674  67.7657242  48.6816104
  13.2868231  67.2900676  48.1610469  11.9776583  66.1679817  48.7182852
  11.2509747  66.0335782  48.1099343  11.5623870  66.4756645  49.5239570
   1.6463598  57.3816913  42.7352991   2.1994637  57.8012367  43.3943014
   1.8833684  56.4552661  42.7775947   5.0242405  59.4917438  42.2431655
   4.4441074  60.1502242  41.8609708   4.7578338  58.6694783  41.8319073
   3.4745972  58.8922496  44.4452976   3.9745750  59.0039031  43.6367294
   4.1181579  58.5883549  45.0853784   3.8067283  61.6517529  41.2988003
   2.9193138  61.9367179  41.0808198   4.2221272  61.4911292  40.4515280
   7.1581819  61.6764050  45.0142343   7.9342209  62.1660502  45.2866960
   6.4329953  62.1022104  45.4714212   9.5954378  62.3891669  46.0716283
  10.1898869  62.1487405  45.3609592   9.6680962  61.6698800  46.6989820
   2.9510497  71.4162203  35.3936023   3.6546347  71.6212206  36.0093679
   2.2273145  71.9838965  35.6585107   3.7808307  67.1672065  41.5138294
   3.7243508  67.6240616  40.6745926   4.3336649  66.4062749  41.3361136
   7.5913113  62.9561797  42.3388413   7.3350047  62.5558432  43.1696621
   6.9665981  63.6705591  42.2138552  11.9025451  65.6957870  44.8459705
  11.3425009  65.7651059  45.6191267  11.2968954  65.5198854  44.1259201
   4.8597194  71.8544733  37.4434484   5.6942798  71.4225931  37.2611958
   4.6981537  71.6826746  38.3711378   4.5143086  68.3576846  38.8090823
   4.4591890  68.1921117  37.8679267   3.8889142  69.0652879  38.9653013
   1.8288993  70.6625758  58.1344386   2.6980153  70.8366410  57.7731021
   1.3495745  71.4820175  58.0120115   1.6391331  54.4527732  42.6422078
   0.8723727  53.8986218  42.7878760   2.0502036  54.5249600  43.5036230
  13.4881469  82.3714384  47.5389660  14.1259879  82.2521131  46.8353000
  13.3702312  83.3195228  47.5977612  10.2971175  82.3241812  47.4751185
   9.9589687  82.2082877  46.5871720  11.1660944  81.9232977  47.4552191
   6.1557991  84.1777288  43.4648076   5.5922856  84.0867225  42.6964364
   6.0410386  83.3577193  43.9450568  10.7790958  83.4776664  53.4337390
  10.7679599  83.0829462  52.5617894  10.9411598  82.7442736  54.0271162
   3.7022423  85.6728480  46.3032296   4.4943715  85.3319305  45.8878596
   3.9419073  85.7823455  47.2234450  11.7357550  87.8448256  38.7762541
  11.0845530  88.4302336  38.3896555  12.5301913  88.3754451  38.8357578
   5.6613177  84.9337393  39.1749675   6.4344053  84.3866380  39.0362551
   6.0138576  85.7981642  39.3864137   7.4998220  86.2613775  52.3816574
   7.2088086  87.1659406  52.2663241   8.1355204  86.3030303  53.0960644
   8.4254426  83.6390624  48.9717934   9.0217999  83.4146646  48.2574897
   8.4829398  82.8975369  49.5743382   7.9979455  81.0930059  36.8068125
   8.2504975  80.5711581  36.0451588   7.0604014  80.9296205  36.9094809
  13.0422738  80.0965838  44.6142868  13.8285827  79.6785261  44.2633285
  13.3061442  81.0011930  44.7824517  13.2132815  85.5338688  39.3131525
  12.5778648  85.6073314  40.0252430  12.8830221  86.1232287  38.6350604
  18.4431165  80.0341071  45.5175847  19.1756337  79.4640288  45.7513676
  17.6870520  79.6462671  45.9582352   7.7175744  82.9958165  39.0092500
   7.6012002  82.3203069  39.6773584   7.8278003  82.5090539  38.1924653
  10.0607284  82.4568312  42.7139189   9.6965492  81.9298933  43.4252111
  10.9174400  82.0666781  42.5405675  15.9656585  73.7462645  49.9770455
  15.6339910  74.6158056  49.7531670  15.3702198  73.4298929  50.6564486
   9.7012771  77.4858212  37.7100538   9.8687174  78.3538448  38.0771009
   9.5109941  77.6485494  36.7861827  12.4588105  85.9475191  49.3766368
  12.1588828  86.8500230  49.2682175  12.1139164  85.6807374  50.2287521
   5.9100586  82.3988988  45.4103073   4.9851083  82.2665202  45.6180764
   6.1584999  83.1783207  45.9073015  15.8585248  78.4657731  47.0563805
  14.9502126  78.3973140  46.7622566  15.8072844  78.9429676  47.8845631
   9.6801992  79.9415870  38.6947205   9.5601618  80.3872920  39.5332685
   8.9854581  80.2901187  38.1360743   3.2709397  82.0422261  46.2446862
   3.4001778  82.2956740  47.1586273   2.5906848  82.6349969  45.9251517
   7.4408884  92.7119511  42.3437336   7.3632914  93.6627336  42.4225816
   6.8370528  92.3665384  43.0012262   9.9326114  79.8847377  54.9998703
   9.1559448  80.4441297  54.9901567  10.5716677  80.3704160  55.5213573
  17.7246895  76.6674170  48.8341679  17.0821275  76.9606703  48.1881474
  17.2201823  76.5527090  49.6394876  15.3787058  80.4137343  39.5227539
  16.2904915  80.6464729  39.3475236  14.8696706  80.9974387  38.9602617
   8.1872487  82.6932830  54.5616670   8.9287171  83.2317874  54.2851493
   7.4809472  83.3199119  54.7188222  13.6627826  84.8361971  53.1588831
  14.0711182  84.3944381  52.4143464  12.9405088  84.2614598  53.4123024
  10.0158896  79.7734577  50.5322388  10.8620091  80.1973991  50.6757037
   9.9557534  79.1168202  51.2260951  13.9856641  85.3963161  46.9141120
  13.3565503  85.5608875  46.2117188  13.5982303  85.8104771  47.6852084
  17.8645873  86.3317599  44.2685484  17.1796911  86.7116500  43.7182517
  17.9489722  86.9412926  45.0017432  13.1658342  77.4338946  52.1903562
  12.9219273  78.1881006  51.6537838  13.4418272  77.8124293  53.0250809
  15.1196804  83.9777558  50.8680827  15.3313700  84.6209318  50.1915208
  15.0726553  83.1439875  50.4002757  12.7223033  76.5895379  47.7717400
  11.8607512  76.8876632  48.0634137  12.7485468  76.8065778  46.8398432
   9.5384603  85.1337569  44.1791205  10.0022948  85.4125272  43.3895828
   9.2741401  84.2321014  43.9964296   6.4308684  84.6809051  47.1170968
   7.0010041  85.1096319  46.4788453   7.0216796  84.3991636  47.8155154
   8.4753489  81.2560722  40.9880770   9.1777532  81.7081765  41.4554697
   8.1434117  80.6144541  41.6160663   6.9233850  79.8472478  55.3631980
   6.2932511  80.5288759  55.5967377   6.8169938  79.7355560  54.4185118
   2.2178823  79.5144274  46.2897904   1.4277877  79.7701803  45.8138015
   2.7090070  80.3292612  46.3949944  16.2342632  86.8549513  49.0403185
  17.0560076  86.4529701  48.7585866  16.2305035  86.7517748  49.9919301
   4.1693568  79.8788854  43.2481381   3.3724731  79.9907548  43.7664876
   3.9419160  80.2175506  42.3822271   9.9999236  86.4033557  51.1963895
  10.0643668  86.8653964  52.0322067   9.2910160  85.7730922  51.3246205
   0.5016526  79.7674765  48.7212895   0.7524564  80.6521775  48.9870471
   1.0376074  79.5879366  47.9487987  24.3248625  83.1988262  45.3888156
  23.5712334  82.6295660  45.2332161  24.4596167  83.1650926  46.3358791
   9.7147253  88.0701664  41.0642876   9.5792928  88.9153200  41.4927723
  10.2557066  88.2720942  40.3008809   6.2014593  74.1493244  57.7257231
   5.8081539  73.5959443  58.4004875   7.0180733  74.4603823  58.1163748
   3.1676651  85.5877102  41.6370801   3.6801171  86.3820353  41.7876365
   3.8199364  84.8903393  41.5704402   4.9771535  88.7042859  43.7193554
   5.1538164  89.6260823  43.5314538   5.7728369  88.3901278  44.1487934
   9.1182554  75.5651123  55.3177487   9.8592267  76.1658276  55.2381950
   9.3500477  74.8228761  54.7595530   4.2623892  80.7507490  53.5955717
   4.1477407  79.8492748  53.8962816   3.4068410  80.9971187  53.2440534
  11.3415730  88.6925231  55.1943218  10.8979584  87.9061609  54.8764122
  12.0032943  88.8804381  54.5287108   6.1002851  90.2221032  49.7203896
   6.6510276  90.0938096  48.9480890   5.2614327  90.5215921  49.3698789
  13.4396968  88.9728031  53.2224619  13.4215443  89.7936912  52.7304888
  14.3616888  88.8482106  53.4474760   9.8970022  86.4872160  54.0648127
  10.4298359  85.7260448  53.8347435   9.3684103  86.1945812  54.8072282
  13.0639717  71.5932226  49.5941769  12.7203986  72.4833868  49.5180880
  13.4318680  71.4033884  48.7311354   1.1325568  83.9165757  42.4130371
   1.9700790  84.3262765  42.1964079   1.3103835  82.9765199  42.3830565
  13.0290000  81.5840837  38.1014204  12.5136623  82.3545442  38.3402592
  12.7567308  80.9105973  38.7247266  10.6137111  76.4290538  43.1599443
   9.7578707  76.0397388  42.9805081  11.0264062  76.5082499  42.2999228
  12.1436257  73.9636881  47.5591002  11.6401053  73.9267016  46.7458808
  12.4366864  74.8729624  47.6187659   8.3879143  74.0475611  46.5657184
   9.2532140  73.8518420  46.2063073   8.4556652  73.8185963  47.4926541
  18.0024274  84.3373192  40.0367378  17.2253717  83.9984351  39.5922540
  18.6815755  84.3425815  39.3622343  12.8176303  79.4567929  39.9273985
  12.5126438  79.7714079  40.7784129  13.7706745  79.5349349  39.9701318
  11.2622735  85.6158153  41.5766939  10.7344096  84.8810912  41.2640177
  10.7610237  86.3932829  41.3306908  16.2415581  83.8107173  46.6933986
  15.5839255  84.5006435  46.7814114  17.0455980  84.2003605  47.0367972
   5.9941462  76.2777819  43.9373551   6.5685214  76.0553000  43.2046744
   6.5812445  76.3466513  44.6902152  15.0521039  82.1651546  44.7437927
  15.5652921  82.7981538  45.2459637  15.7022263  81.5652741  44.3781287
   6.3211049  78.3082280  37.9569436   5.4848362  78.6456967  38.2778711
   6.1815819  78.1731260  37.0196573   8.2964130  73.1519068  42.6648620
   7.6428542  72.8368085  42.0405235   8.2544604  72.5294808  43.3908443
   9.4075335  83.4338363  34.5801912   8.5002397  83.2027616  34.7793061
   9.9046367  82.6375982  34.7675894  12.3143414  92.1435870  37.4998599
  11.6405112  92.4467567  38.1083556  12.7009236  92.9464950  37.1504056
  11.5301870  79.6401001  46.9896268  10.6124432  79.8615948  46.8317956
  11.9462014  79.7147312  46.1307975  12.3136918  81.0392417  42.1198948
  13.0608737  81.5513814  41.8106070  12.5828508  80.7176470  42.9803342
  10.5863568  83.5350958  39.1025902   9.6774788  83.2509991  39.1998372
  10.6158652  83.9550036  38.2429209  15.8182836  87.1457547  42.8717070
  15.3645163  86.3048457  42.9282260  15.1876802  87.7818946  43.2091850
  14.7615755  78.0749533  44.1017737  14.0238512  77.5626920  44.4327980
  15.0142529  77.6349915  43.2901014  14.2615775  88.9834044  43.8066888
  14.5538749  89.5439101  43.0879254  14.7714396  89.2762605  44.5620047
  14.8627383  70.8525785  44.6959507  15.1686259  69.9923149  44.4085422
  15.5879987  71.4443406  44.4958501   1.1551739  81.2556472  43.0841105
   0.9576138  80.6625833  42.3592171   0.5998403  80.9508682  43.8017043
   9.1348462  81.1479578  45.2035698   9.1897072  80.1953415  45.1278174
   8.3239664  81.3039017  45.6876996  10.2839656  85.0759701  36.4413981
   9.8459086  84.3595560  35.9819618  11.0250097  85.3035816  35.8799072
   7.0740822  79.7656638  42.9626077   6.2608688  80.0650809  43.3691269
   7.5699816  79.3712327  43.6800559   9.2249400  89.7614395  44.8960341
   9.1825579  89.9875241  43.9668873  10.1412099  89.5277770  45.0446142
  12.6715034  80.2298463  51.7940971  13.0264422  80.4569936  52.6535436
  13.3187165  80.5616839  51.1718226  18.4012771  83.3516898  42.4990300
  18.2630669  83.5418494  41.5711489  18.0448990  84.1136281  42.9558351
   6.5654897  77.3374994  48.5787312   7.2054276  77.1963753  47.8810275
   5.7332428  77.0509507  48.2025914  18.4282150  85.4193426  47.5101571
  18.8618657  85.3268715  48.3584625  19.1413731  85.3950926  46.8721587
   7.3415201  86.6377424  44.6922304   8.1355799  86.1427744  44.4904879
   6.6306893  86.1095287  44.3290010  12.1610045  89.0195520  49.0434672
  12.2147068  89.5886456  49.8112388  11.2924827  89.1897405  48.6788709
   3.6497964  80.7820506  40.7682057   2.7195552  80.7204961  40.9852019
   3.7455436  80.2596459  39.9718698   3.5683513  77.3075319  43.3560298
   3.8290331  78.2220652  43.2469459   4.3900686  76.8399761  43.5056911
   5.0408439  78.7213076  50.5259123   5.7131492  78.5130438  49.8771772
   4.2138225  78.5235162  50.0864355  19.2897700  85.4617126  50.0434456
  19.4833590  86.3662937  50.2893731  19.1898318  85.0024545  50.8773042
  10.9434011  75.3475017  52.5424784  10.2961926  76.0464966  52.4489260
  11.7135026  75.7811161  52.9101032  14.3512809  85.6123869  55.6175337
  14.1998315  85.3834421  54.7005421  14.3417488  86.5694470  55.6306682
  11.1198145  83.1855782  50.6021604  12.0490205  83.3366941  50.4290571
  10.6989175  83.2739802  49.7470250   9.9186477  87.2106446  48.3720141
   9.7797563  86.8425230  49.2446079   9.1301073  87.7254085  48.2004099
  10.5134629  92.3115543  39.7145678  10.6886385  91.8403586  40.5291300
   9.8267417  92.9381309  39.9426938  11.4691692  86.5888049  45.7608979
  11.1341525  86.5488819  46.6566629  10.9695638  85.9232765  45.2879389
   5.4435936  81.9955679  51.2861560   5.3055734  81.2635918  51.8873099
   6.3540859  81.9064579  51.0045748  14.4050884  83.9344083  36.0346039
  13.7880054  83.2090911  35.9379091  13.9367372  84.6953443  35.6913113
   8.0718237  81.7075638  50.7745240   8.7817855  81.0668830  50.7331858
   8.0287545  81.9588533  51.6971421  16.0605015  88.6442991  53.6951819
  16.0017562  87.9602212  53.0282402  16.4624534  89.3861981  53.2432445
   6.7847171  78.6940856  52.5940879   6.2484528  78.2431594  53.2462476
   6.1963879  78.8286765  51.8511344   5.0795714  95.4604905  46.4885538
   5.3192312  96.0923429  47.1664556   4.2364911  95.1092945  46.7750897
   6.1949430  78.1529507  35.1567343   5.3178896  78.0318308  34.7929590
   6.6707183  77.3615586  34.9046232  16.0622423  86.6082575  51.9265799
  15.1749201  86.2708497  52.0492198  16.6320974  85.8765607  52.1634564
   2.5186292  77.8296864  49.6793874   2.4344481  77.2222533  48.9444284
   1.6968998  78.3205882  49.6803370   9.5923576  91.2684028  48.8927042
   9.5193747  92.0738999  49.4046346   9.1500969  91.4675994  48.0675063
   9.3813356  90.5055798  42.4029863   8.5980878  91.0477478  42.4968088
  10.0806101  91.0229777  42.8024105  12.6910006  76.3150427  45.0464069
  13.1878705  75.5620390  44.7265139  11.9196987  76.3514744  44.4807278
  20.5439763  82.0190793  46.6882360  20.5329639  82.9015508  46.3176293
  19.6757143  81.6662344  46.4936897  12.0522260  91.1670862  51.0485200
  12.7650232  91.8018327  50.9761102  11.5612288  91.2634728  50.2325202
  13.7739786  85.0722114  42.6202492  12.8396065  85.1923577  42.4507196
  13.9516455  84.1694581  42.3562502   9.2744975  78.4567810  44.7735753
   8.9042762  77.9038851  45.4616659   9.7704067  77.8525944  44.2210753
  17.1612338  80.9139434  43.1552526  17.6272790  81.7467425  43.0812829
  17.6119838  80.4484415  43.8597785   7.1034173  88.9165305  51.8690771
   7.8043633  89.5501788  52.0220166   6.6329288  89.2580037  51.1086411
  15.2288569  87.2583255  40.1538678  15.5048413  87.1439850  41.0632552
  14.3593068  86.8600740  40.1150851  15.1329001  73.2820021  47.1943428
  14.2192080  73.5124248  47.3625635  15.5622102  73.3658465  48.0457460
  14.9035459  81.4709913  49.6943322  14.2506909  81.7185820  49.0395774
  15.2815839  80.6574051  49.3605799  11.8642633  91.5069606  43.7971492
  12.0465027  90.6891262  44.2599244  12.6875619  91.7237298  43.3596382
  12.1984798  90.4337791  41.0586540  12.7272565  89.9230246  40.4456703
  12.4613018  90.1180321  41.9232073  10.9523032  82.2129724  56.1809359
  10.2763669  82.1123853  56.8511734  11.7750666  82.0568937  56.6445356
   2.7001891  88.4501660  48.8021874   3.2855328  87.7045348  48.9349778
   2.5026730  88.7605617  49.6858538   5.5540546  91.4852908  43.8184316
   4.8850922  91.9699035  43.3348356   5.4153416  91.7322128  44.7327695
   9.6945815  93.5196651  50.4166975  10.2464123  93.6828273  51.1816060
  10.0352008  94.1101089  49.7447000   4.6710308  75.8671801  51.0188859
   4.7351635  76.7286632  50.6066257   4.6077428  75.2545803  50.2861218
   4.1462581  77.9394934  54.6661894   4.7734620  77.5572011  55.2799418
   3.2890500  77.7209135  55.0317586  14.5456689  88.3457909  56.2715629
  15.0896593  88.9587867  55.7770584  13.9643534  88.9037487  56.7882642
  12.8314202  91.4678627  47.4030657  12.7065342  90.6668367  46.8941602
  13.4893293  91.9624820  46.9144627   4.4522370  77.8227359  46.5807797
   3.7308956  78.4363327  46.4415270   5.2415626  78.3585124  46.5024443
  14.8949111  89.2687647  49.0310207  13.9479446  89.1492998  48.9588534
  15.2431884  88.3810145  49.1136468   7.2548684  75.1581786  52.8548449
   7.7783086  75.4044082  53.6174758   7.0361017  75.9901821  52.4351586
   2.6515965  77.4285460  40.7219574   2.3228671  76.5482839  40.5394680
   3.0055336  77.3733129  41.6095963  11.8995544  89.0640363  45.2314559
  11.7520506  88.1357070  45.4122129  12.7249037  89.0860454  44.7471634
   5.7657788  77.7158430  41.0895051   6.1053861  78.2444351  40.3673660
   6.2129909  78.0538836  41.8653618  15.5029666  89.8868922  46.3179432
  16.4276213  89.6811783  46.1803883  15.3344969  89.6385323  47.2268773
   8.4601229  76.0995481  50.5398119   8.1198049  75.3003294  50.9418799
   7.7540235  76.3997192  49.9674953   9.1117701  73.1844793  48.9925442
   9.9343770  72.7105271  48.8704333   9.3555764  73.9635277  49.4924129
   7.7525935  76.2133052  39.2888344   8.4734298  76.5914304  38.7852061
   7.1291239  76.9321929  39.3923322  11.8957058  76.9178201  40.2246676
  12.1120673  77.8002839  39.9235505  11.4151125  76.5264414  39.4952318
   6.6356280  79.8763914  46.8017421   6.4900860  80.1904217  47.6941703
   6.1581483  80.4948814  46.2488320   8.4952662  76.8666462  46.8498311
   8.4814231  75.9707555  46.5130609   9.2125091  76.8737126  47.4836597
  10.3478793  77.3003802  48.8951438  10.0896571  78.2220873  48.8935768
   9.8163834  76.9034237  49.5851902  15.2924982  90.4054589  41.6741523
  15.4661859  89.8401012  40.9215376  15.7853873  91.2055484  41.4921013
   1.1101942  82.4169258  49.7405082   0.5655410  83.1929066  49.8725357
   1.9881292  82.7640063  49.5824204   7.8989558  75.7480842  42.1185881
   8.0205470  74.8197488  42.3176768   7.6091601  75.7619528  41.2064196
  10.7680749  73.4335753  45.2552601  10.7902446  73.4975086  44.3004580
  11.1848808  72.5940261  45.4493107  21.1464373  83.1691012  43.2931823
  21.5895519  82.4198337  42.8950946  20.2690883  83.1601149  42.9105555
  16.2800154  89.7221354  38.7738422  16.9751059  90.3428046  38.9925736
  16.6223305  88.8716705  39.0490800   1.8967964  81.5439155  52.6335239
   1.1549700  81.6921790  53.2199870   1.5760708  81.8047420  51.7701989
  18.1791578  87.1721059  40.3025752  18.7042902  87.5108332  39.5775072
  18.0913930  86.2368074  40.1188887   9.8411626  91.0855133  52.4315629
  10.1498753  90.8404280  53.3038329  10.6387108  91.2901771  51.9434499
   9.8632238  93.2393042  44.6621006   9.4237229  92.7469421  45.3553862
  10.6140355  92.6966010  44.4213081   2.3424577  89.4304583  44.6645634
   3.1682597  89.1308355  44.2844277   1.9918629  88.6612206  45.1135422
   7.3106110  88.7831052  46.7343307   6.6886120  88.1201757  46.4345535
   7.9810977  88.8092183  46.0516955   7.3830638  77.2612840  56.3275813
   7.4318793  78.1374962  55.9453583   7.9253152  76.7190233  55.7547457
  17.8685484  87.8053963  55.6076950  17.0781027  87.7878102  55.0681450
  17.6318838  88.3442256  56.3625987  17.9883359  84.6546429  52.9209679
  18.0381364  84.4896437  53.8625202  17.8797282  83.7873688  52.5307560
   6.8719617  87.3334975  40.2101768   7.0207738  88.0170439  39.5568441
   7.6786061  87.3140065  40.7251224  15.2787121  80.6377357  54.2368986
  16.1796984  80.4983822  53.9452983  15.3535096  80.8031812  55.1767163
   9.6129926  78.0144212  53.0822172   8.7433236  78.3077778  52.8104761
   9.8489407  78.5984657  53.8029436  19.4901556  87.0743371  53.1651701
  19.1986364  87.4373351  54.0015161  18.8773687  86.3610379  52.9865033
  20.6897238  84.6396250  45.6854271  21.5244129  85.0786055  45.8491831
  20.8256367  84.1634904  44.8662517  17.7388744  82.1975985  51.6331758
  18.2142865  82.3903632  50.8250610  16.8154309  82.2535171  51.3875142
   4.6272250  83.3600152  41.2162837   4.3818292  82.4562482  41.4143047
   4.7968165  83.3617303  40.2742315  12.3168960  74.2323829  50.5987592
  12.8350904  74.9684856  50.2734081  11.9624093  74.5387822  51.4334352
   3.8967898  79.0928510  38.7148998   3.2037143  79.1672865  38.0589034
   3.6519650  78.3288854  39.2370515  12.5681554  70.6524111  46.1188489
  12.8483308  69.9847300  46.7448916  13.3532161  70.8453207  45.6063153
  10.3715023  89.8283105  37.6813515   9.7988990  90.4473292  37.2283987
  10.9447817  90.3782467  38.2153437  16.4390413  79.0741745  49.8660064
  17.3907836  79.1739843  49.8872288  16.2693863  78.2820014  50.3758148
  14.4604792  76.1597329  50.0519465  13.8654724  76.4402341  49.3565954
  14.1754489  76.6491230  50.8236206  13.5912283  90.1120255  38.8122098
  14.5242956  90.0465817  39.0154973  13.5035496  90.9476522  38.3536630
  16.2200299  89.4286126  35.7726045  16.1413931  89.0945989  36.6661803
  17.0409966  89.9207894  35.7717517  18.9178491  82.2947865  48.9802364
  18.8854811  81.3563866  49.1662048  19.5279114  82.3731902  48.2468189
  10.7561821  81.1643918  35.0229568  11.7020926  81.0350126  35.0917986
  10.3776066  80.4258580  35.4998996  19.0672979  79.0858909  49.0260647
  18.5512028  78.3017365  48.8390576  19.9512928  78.7577625  49.1907166
  16.7283706  72.8299924  44.9856460  16.5308527  72.5215012  45.8699792
  17.3383412  73.5561563  45.1154389  24.7355040  83.3563872  48.1208401
  25.4658429  83.0949160  48.6816104  24.1261986  82.6192594  48.1610469
  22.8170338  81.4971735  48.7182852  22.0903501  81.3627699  48.1099343
  22.4017624  81.8048563  49.5239570  10.6400514  85.2161664  56.4830225
  11.5603523  85.3940263  56.6770271  10.6050097  84.2717710  56.3309924
   8.9404739  79.0893894  34.9584453   8.0336194  78.7927007  35.0347167
   9.2180720  78.7923713  34.0918739   3.6362586  83.1262699  49.1253006
   3.8548596  84.0579807  49.1441040   4.0488360  82.7670673  49.9107810
  10.5566804  73.6330784  41.1128694   9.7467533  73.2877869  41.4883940
  11.2451221  73.3238328  41.7016306  12.4857353  72.7108831  42.7352991
  13.0388391  73.1304284  43.3943014  12.7227439  71.7844579  42.7775947
   8.5090452  78.6995905  58.5155755   8.4087179  79.6490262  58.4467846
   8.2911994  78.3714144  57.6431825   7.7103523  75.9480830  35.0996432
   8.5722687  76.2735728  35.3592250   7.8953867  75.1612326  34.5869498
  15.8636160  74.8209356  42.2431655  15.2834829  75.4794160  41.8609708
  15.5972092  73.9986701  41.8319073  14.3139726  74.2214414  44.4452976
  14.8139504  74.3330948  43.6367294  14.9575334  73.9175467  45.0853784
   8.3721722  82.1293043  57.3320817   7.8888804  82.9293404  57.5384706
   8.4582661  82.1400988  56.3788261   1.6407681  83.9621423  45.2542636
   1.6178370  84.0609110  44.3024519   1.9508318  84.8086574  45.5759802
   4.2995059  86.0197578  49.3689250   5.2538313  85.9881520  49.3019182
   4.1007583  85.5588202  50.1839476   4.8894441  84.5898694  51.9360048
   5.7087330  85.0842773  51.9594885   5.1631249  83.6730662  51.9077615
  14.6461038  76.9809447  41.2988003  13.7586893  77.2659097  41.0808198
  15.0615027  76.8203210  40.4515280  17.9975574  77.0055967  45.0142343
  18.7735964  77.4952420  45.2866960  17.2723708  77.4314022  45.4714212
  20.4348132  77.7183587  46.0716283  21.0292623  77.4779323  45.3609592
  20.5074716  76.9990717  46.6989820   2.6545288  91.5617198  46.3859448
   2.5199756  90.8017599  45.8197446   2.2377350  92.2858097  45.9188237
  13.7904251  86.7454121  35.3936023  14.4940101  86.9504124  36.0093679
  13.0666900  87.3130883  35.6585107  14.6202061  82.4963982  41.5138294
  14.5637263  82.9532534  40.6745926  15.1730404  81.7354667  41.3361136
  18.4306867  78.2853714  42.3388413  18.1743802  77.8850350  43.1696621
  17.8059735  78.9997508  42.2138552  22.7419205  81.0249788  44.8459705
  22.1818763  81.0942977  45.6191267  22.1362709  80.8490772  44.1259201
   5.8114414  92.4586515  46.5977891   5.6946798  93.4031947  46.4956581
   4.9906860  92.1560076  46.9863690  15.6990949  87.1836650  37.4434484
  16.5336552  86.7517849  37.2611958  15.5375291  87.0118664  38.3711378
  15.3536841  83.6868764  38.8090823  15.2985645  83.5213035  37.8679267
  14.7282896  84.3944797  38.9653013  12.6682748  85.9917676  58.1344386
  13.5373908  86.1658328  57.7731021  12.1889499  86.8112092  58.0120115
   8.6632966  73.1876873  38.3876141   8.6511636  74.1318713  38.5444412
   9.5556388  73.0047018  38.0935602   6.8368928  93.1114777  49.8133819
   7.7396175  93.1438387  50.1300314   6.6106298  92.1815228  49.8280155
   8.5922530  91.8645763  46.4743898   7.6418161  91.8647625  46.3608270
   8.8955016  91.1178498  45.9579932  12.4785086  69.7819649  42.6422078
  11.7117481  69.2278136  42.7878760  12.8895791  69.8541518  43.5036230
   4.4826847  76.0704445  56.7327259   5.3458308  75.7141250  56.9430584
   3.9092257  75.7318340  57.4202664  24.3275224  97.7006301  47.5389660
  24.9653634  97.5813049  46.8353000  24.2096067  98.6487145  47.5977612
  21.1364930  97.6533730  47.4751185  20.7983441  97.5374794  46.5871720
  22.0054698  97.2524895  47.4552191  16.9951746  99.5069206  43.4648076
  16.4316611  99.4159143  42.6964364  16.8804141  98.6869110  43.9450568
  21.6184713  98.8068581  53.4337390  21.6073354  98.4121380  52.5617894
  21.7805352  98.0734654  54.0271162  14.5416178 101.0020398  46.3032296
  15.3337469 100.6611222  45.8878596  14.7812828 101.1115373  47.2234450
  22.5751304 103.1740174  38.7762541  21.9239284 103.7594254  38.3896555
  23.3695667 103.7046369  38.8357578  16.5006931 100.2629311  39.1749675
  17.2737807  99.7158298  39.0362551  16.8532330 101.1273560  39.3864137
  18.3391974 101.5905693  52.3816574  18.0481840 102.4951324  52.2663241
  18.9748958 101.6322221  53.0960644  19.2648181  98.9682542  48.9717934
  19.8611753  98.7438564  48.2574897  19.3223152  98.2267287  49.5743382
  18.8373209  96.4221977  36.8068125  19.0898730  95.9003498  36.0451588
  17.8997768  96.2588122  36.9094809  23.8816492  95.4257755  44.6142868
  24.6679581  95.0077179  44.2633285  24.1455196  96.3303848  44.7824517
  24.0526569 100.8630606  39.3131525  23.4172402 100.9365232  40.0252430
  23.7223976 101.4524204  38.6350604  29.2824919  95.3632989  45.5175847
  30.0150091  94.7932205  45.7513676  28.5264275  94.9754589  45.9582352
  18.5569498  98.3250083  39.0092500  18.4405756  97.6494986  39.6773584
  18.6671758  97.8382457  38.1924653  20.9001039  97.7860230  42.7139189
  20.5359246  97.2590851  43.4252111  21.7568155  97.3958699  42.5405675
  26.8050340  89.0754563  49.9770455  26.4733664  89.9449974  49.7531670
  26.2095953  88.7590847  50.6564486  20.5406526  92.8150130  37.7100538
  20.7080928  93.6830366  38.0771009  20.3503695  92.9777411  36.7861827
  23.2981859 101.2767109  49.3766368  22.9982582 102.1792147  49.2682175
  22.9532919 101.0099292  50.2287521  16.7494341  97.7280905  45.4103073
  15.8244837  97.5957120  45.6180764  16.9978754  98.5075125  45.9073015
  26.6979003  93.7949649  47.0563805  25.7895880  93.7265057  46.7622566
  26.6466599  94.2721594  47.8845631  20.5195747  95.2707787  38.6947205
  20.3995372  95.7164838  39.5332685  19.8248335  95.6193105  38.1360743
  14.1103152  97.3714179  46.2446862  14.2395533  97.6248658  47.1586273
  13.4300603  97.9641887  45.9251517  20.7719869  95.2139294  54.9998703
  19.9953203  95.7733215  54.9901567  21.4110432  95.6996077  55.5213573
  28.5640649  91.9966087  48.8341679  27.9215030  92.2898620  48.1881474
  28.0595578  91.8819008  49.6394876  26.2180813  95.7429260  39.5227539
  27.1298669  95.9756647  39.3475236  25.7090460  96.3266305  38.9602617
  19.0266241  98.0224748  54.5616670  19.7680925  98.5609792  54.2851493
  18.3203226  98.6491037  54.7188222  24.5021581 100.1653888  53.1588831
  24.9104937  99.7236299  52.4143464  23.7798842  99.5906516  53.4123024
  20.8552651  95.1026495  50.5322388  21.7013846  95.5265909  50.6757037
  20.7951288  94.4460119  51.2260951  24.8250395 100.7255079  46.9141120
  24.1959258 100.8900793  46.2117188  24.4376057 101.1396688  47.6852084
  28.7039627 101.6609517  44.2685484  28.0190665 102.0408418  43.7182517
  28.7883476 102.2704843  45.0017432  24.0052096  92.7630863  52.1903562
  23.7613028  93.5172924  51.6537838  24.2812027  93.1416211  53.0250809
  25.9590559  99.3069476  50.8680827  26.1707454  99.9501236  50.1915208
  25.9120307  98.4731792  50.4002757  23.5616788  91.9187296  47.7717400
  22.7001267  92.2168550  48.0634137  23.5879222  92.1357695  46.8398432
  20.3778357 100.4629487  44.1791205  20.8416703 100.7417190  43.3895828
  20.1135155  99.5612932  43.9964296  17.2702438 100.0100968  47.1170968
  17.8403795 100.4388237  46.4788453  17.8610550  99.7283553  47.8155154
  19.3147243  96.5852639  40.9880770  20.0171287  97.0373683  41.4554697
  18.9827872  95.9436458  41.6160663  17.7627605  95.1764396  55.3631980
  17.1326265  95.8580677  55.5967377  17.6563693  95.0647478  54.4185118
  13.0572577  94.8436192  46.2897904  12.2671631  95.0993721  45.8138015
  13.5483825  95.6584530  46.3949944  27.0736387 102.1841431  49.0403185
  27.8953830 101.7821618  48.7585866  27.0698790 102.0809665  49.9919301
  15.0087323  95.2080771  43.2481381  14.2118486  95.3199465  43.7664876
  14.7812915  95.5467423  42.3822271  20.8392990 101.7325474  51.1963895
  20.9037423 102.1945882  52.0322067  20.1303914 101.1022839  51.3246205
  11.3410280  95.0966682  48.7212895  11.5918319  95.9813692  48.9870471
  11.8769829  94.9171284  47.9487987  35.1642380  98.5280180  45.3888156
  34.4106088  97.9587578  45.2332161  35.2989921  98.4942844  46.3358791
  20.5541008 103.3993582  41.0642876  20.4186683 104.2445118  41.4927723
  21.0950820 103.6012860  40.3008809  17.0408347  89.4785162  57.7257231
  16.6475293  88.9251360  58.4004875  17.8574488  89.7895740  58.1163748
  14.0070405 100.9169020  41.6370801  14.5194926 101.7112270  41.7876365
  14.6593118 100.2195310  41.5704402  15.8165290 104.0334776  43.7193554
  15.9931918 104.9552741  43.5314538  16.6122123 103.7193195  44.1487934
  19.9576308  90.8943041  55.3177487  20.6986022  91.4950194  55.2381950
  20.1894231  90.1520679  54.7595530  15.1017646  96.0799408  53.5955717
  14.9871162  95.1784665  53.8962816  14.2462164  96.3263105  53.2440534
  22.1809484 104.0217148  55.1943218  21.7373338 103.2353527  54.8764122
  22.8426698 104.2096299  54.5287108  16.9396605 105.5512950  49.7203896
  17.4904031 105.4230013  48.9480890  16.1008081 105.8507839  49.3698789
  24.2790722 104.3019948  53.2224619  24.2609198 105.1228829  52.7304888
  25.2010642 104.1774024  53.4474760  20.7363776 101.8164078  54.0648127
  21.2692113 101.0552366  53.8347435  20.2077858 101.5237730  54.8072282
  23.9033471  86.9224144  49.5941769  23.5597741  87.8125786  49.5180880
  24.2712434  86.7325801  48.7311354  11.9719322  99.2457674  42.4130371
  12.8094544  99.6554683  42.1964079  12.1497590  98.3057116  42.3830565
  23.8683754  96.9132755  38.1014204  23.3530378  97.6837360  38.3402592
  23.5961063  96.2397891  38.7247266  21.4530865  91.7582456  43.1599443
  20.5972462  91.3689306  42.9805081  21.8657817  91.8374417  42.2999228
  22.9830012  89.2928799  47.5591002  22.4794807  89.2558934  46.7458808
  23.2760619  90.2021542  47.6187659  19.2272898  89.3767529  46.5657184
  20.0925894  89.1810337  46.2063073  19.2950407  89.1477880  47.4926541
  28.8418028  99.6665110  40.0367378  28.0647471  99.3276269  39.5922540
  29.5209509  99.6717733  39.3622343  23.6570057  94.7859847  39.9273985
  23.3520193  95.1005996  40.7784129  24.6100499  94.8641267  39.9701318
  22.1016489 100.9450070  41.5766939  21.5737851 100.2102830  41.2640177
  21.6003992 101.7224747  41.3306908  27.0809335  99.1399091  46.6933986
  26.4233010  99.8298352  46.7814114  27.8849734  99.5295523  47.0367972
  16.8335217  91.6069737  43.9373551  17.4078969  91.3844918  43.2046744
  17.4206199  91.6758431  44.6902152  25.8914794  97.4943464  44.7437927
  26.4046676  98.1273455  45.2459637  26.5416018  96.8944659  44.3781287
  17.1604804  93.6374198  37.9569436  16.3242116  93.9748884  38.2778711
  17.0209574  93.5023177  37.0196573  19.1357884  88.4810986  42.6648620
  18.4822297  88.1660003  42.0405235  19.0938359  87.8586726  43.3908443
  20.2469089  98.7630281  34.5801912  19.3396151  98.5319534  34.7793061
  20.7440121  97.9667900  34.7675894  23.1537168 107.4727788  37.4998599
  22.4798867 107.7759485  38.1083556  23.5402990 108.2756868  37.1504056
  22.3695625  94.9692919  46.9896268  21.4518186  95.1907866  46.8317956
  22.7855768  95.0439230  46.1307975  23.1530673  96.3684335  42.1198948
  23.9002492  96.8805732  41.8106070  23.4222262  96.0468387  42.9803342
  21.4257323  98.8642875  39.1025902  20.5168542  98.5801908  39.1998372
  21.4552407  99.2841954  38.2429209  26.6576590 102.4749465  42.8717070
  26.2038917 101.6340375  42.9282260  26.0270557 103.1110863  43.2091850
  25.6009510  93.4041451  44.1017737  24.8632267  92.8918837  44.4327980
  25.8536283  92.9641833  43.2901014  25.1009529 104.3125962  43.8066888
  25.3932504 104.8731019  43.0879254  25.6108150 104.6054523  44.5620047
  25.7021137  86.1817703  44.6959507  26.0080014  85.3215066  44.4085422
  26.4273742  86.7735323  44.4958501  11.9945493  96.5848390  43.0841105
  11.7969893  95.9917750  42.3592171  11.4392157  96.2800600  43.8017043
  19.9742217  96.4771496  45.2035698  20.0290827  95.5245332  45.1278174
  19.1633419  96.6330935  45.6876996  21.1233411 100.4051619  36.4413981
  20.6852840  99.6887478  35.9819618  21.8643851 100.6327734  35.8799072
  17.9134577  95.0948556  42.9626077  17.1002442  95.3942726  43.3691269
  18.4093571  94.7004245  43.6800559  20.0643155 105.0906313  44.8960341
  20.0219333 105.3167159  43.9668873  20.9805853 104.8569687  45.0446142
  23.5108788  95.5590380  51.7940971  23.8658176  95.7861853  52.6535436
  24.1580920  95.8908757  51.1718226  29.2406525  98.6808816  42.4990300
  29.1024424  98.8710412  41.5711489  28.8842744  99.4428199  42.9558351
  17.4048651  92.6666911  48.5787312  18.0448031  92.5255670  47.8810275
  16.5726182  92.3801425  48.2025914  29.2675905 100.7485343  47.5101571
  29.7012412 100.6560632  48.3584625  29.9807486 100.7242844  46.8721587
  18.1808955 101.9669342  44.6922304  18.9749554 101.4719662  44.4904879
  17.4700648 101.4387205  44.3290010  23.0003800 104.3487437  49.0434672
  23.0540822 104.9178374  49.8112388  22.1318581 104.5189322  48.6788709
  14.4891719  96.1112423  40.7682057  13.5589307  96.0496879  40.9852019
  14.5849191  95.5888376  39.9718698  14.4077268  92.6367236  43.3560298
  14.6684085  93.5512570  43.2469459  15.2294440  92.1691679  43.5056911
  15.8802193  94.0504994  50.5259123  16.5525247  93.8422356  49.8771772
  15.0531980  93.8527079  50.0864355  30.1291455 100.7909044  50.0434456
  30.3227345 101.6954854  50.2893731  30.0292073 100.3316463  50.8773042
  21.7827765  90.6766934  52.5424784  21.1355680  91.3756884  52.4489260
  22.5528781  91.1103078  52.9101032  25.1906563 100.9415787  55.6175337
  25.0392070 100.7126338  54.7005421  25.1811243 101.8986388  55.6306682
  21.9591900  98.5147699  50.6021604  22.8883960  98.6658859  50.4290571
  21.5382930  98.6031720  49.7470250  20.7580231 102.5398364  48.3720141
  20.6191317 102.1717148  49.2446079  19.9694828 103.0546003  48.2004099
  21.3528383 107.6407460  39.7145678  21.5280139 107.1695503  40.5291300
  20.6661171 108.2673226  39.9426938  22.3085447 101.9179966  45.7608979
  21.9735279 101.8780736  46.6566629  21.8089392 101.2524682  45.2879389
  16.2829690  97.3247596  51.2861560  16.1449488  96.5927835  51.8873099
  17.1934614  97.2356497  51.0045748  25.2444638  99.2636001  36.0346039
  24.6273809  98.5382829  35.9379091  24.7761127 100.0245361  35.6913113
  18.9111991  97.0367556  50.7745240  19.6211610  96.3960748  50.7331858
  18.8681299  97.2880451  51.6971421  26.8998770 103.9734909  53.6951819
  26.8411316 103.2894129  53.0282402  27.3018288 104.7153899  53.2432445
  17.6240925  94.0232774  52.5940879  17.0878282  93.5723512  53.2462476
  17.0357634  94.1578683  51.8511344  17.0343184  93.4821425  35.1567343
  16.1572650  93.3610226  34.7929590  17.5100937  92.6907503  34.9046232
  26.9016177 101.9374493  51.9265799  26.0142956 101.6000415  52.0492198
  27.4714728 101.2057524  52.1634564   8.5545324  98.2698585  45.2508850
   9.2416364  97.9560315  44.6629865   8.3993453  99.1739949  44.9776101
  13.3580046  93.1588781  49.6793874  13.2738235  92.5514451  48.9444284
  12.5362753  93.6497800  49.6803370  20.4317331 106.5975945  48.8927042
  20.3587502 107.4030917  49.4046346  19.9894724 106.7967911  48.0675063
  20.2207110 105.8347715  42.4029863  19.4374632 106.3769396  42.4968088
  20.9199855 106.3521695  42.8024105  23.5303760  91.6442345  45.0464069
  24.0272460  90.8912307  44.7265139  22.7590742  91.6806662  44.4807278
  31.3833518  97.3482710  46.6882360  31.3723394  98.2307426  46.3176293
  30.5150897  96.9954261  46.4936897  22.8916014 106.4962779  51.0485200
  23.6043986 107.1310244  50.9761102  22.4006043 106.5926645  50.2325202
  24.6133541 100.4014032  42.6202492  23.6789820 100.5215495  42.4507196
  24.7910209  99.4986499  42.3562502  20.1138729  93.7859728  44.7735753
  19.7436517  93.2330768  45.4616659  20.6097821  93.1817861  44.2210753
  28.0006092  96.2431351  43.1552526  28.4666544  97.0759343  43.0812829
  28.4513593  95.7776333  43.8597785  17.9427928 104.2457223  51.8690771
  18.6437387 104.8793706  52.0220166  17.4723043 104.5871954  51.1086411
  26.0682323 102.5875173  40.1538678  26.3442167 102.4731767  41.0632552
  25.1986822 102.1892658  40.1150851  25.9722755  88.6111938  47.1943428
  25.0585835  88.8416165  47.3625635  26.4015856  88.6950382  48.0457460
  25.7429214  96.8001830  49.6943322  25.0900664  97.0477738  49.0395774
  26.1209593  95.9865969  49.3605799  22.7036387 106.8361524  43.7971492
  22.8858782 106.0183179  44.2599244  23.5269373 107.0529216  43.3596382
  23.0378553 105.7629709  41.0586540  23.5666319 105.2522163  40.4456703
  23.3006772 105.4472239  41.9232073  21.7916787  97.5421641  56.1809359
  21.1157424  97.4415771  56.8511734  22.6144420  97.3860855  56.6445356
  13.5395646 103.7793578  48.8021874  14.1249082 103.0337266  48.9349778
  13.3420484 104.0897535  49.6858538   8.1313300  96.3499178  47.5226317
   8.1697400  95.8162769  48.3163435   7.6253593  95.8234384  46.9037294
  15.5104063  91.1963719  51.0188859  15.5745389  92.0578550  50.6066257
  15.4471183  90.5837720  50.2861218  14.9856335  93.2686851  54.6661894
  15.6128374  92.8863929  55.2799418  14.1284254  93.0501053  55.0317586
  25.3850444 103.6749826  56.2715629  25.9290348 104.2879785  55.7770584
  24.8037289 104.2329405  56.7882642  11.7621878  95.0763280  40.5980249
  12.0575319  94.1673959  40.5447302  10.8609914  95.0551020  40.2761251
  23.6707957 106.7970544  47.4030657  23.5459096 105.9960284  46.8941602
  24.3287048 107.2916738  46.9144627  15.2916125  93.1519277  46.5807797
  14.5702711  93.7655245  46.4415270  16.0809381  93.6877042  46.5024443
  25.7342865 104.5979564  49.0310207  24.7873201 104.4784916  48.9588534
  26.0825638 103.7102063  49.1136468  18.0942438  90.4873703  52.8548449
  18.6176840  90.7336000  53.6174758  17.8754772  91.3193738  52.4351586
  13.4909720  92.7577378  40.7219574  13.1622426  91.8774757  40.5394680
  13.8449090  92.7025047  41.6095963  22.7389298 104.3932281  45.2314559
  22.5914261 103.4648988  45.4122129  23.5642792 104.4152371  44.7471634
  16.6051543  93.0450348  41.0895051  16.9447615  93.5736269  40.3673660
  17.0523663  93.3830754  41.8653618  26.3423420 105.2160839  46.3179432
  27.2669968 105.0103701  46.1803883  26.1738724 104.9677241  47.2268773
  19.2994984  91.4287399  50.5398119  18.9591804  90.6295212  50.9418799
  18.5933990  91.7289109  49.9674953  19.9511455  88.5136711  48.9925442
  20.7737525  88.0397189  48.8704333  20.1949519  89.2927195  49.4924129
  18.5919690  91.5424969  39.2888344  19.3128052  91.9206222  38.7852061
  17.9684994  92.2613846  39.3923322  22.7350813  92.2470118  40.2246676
  22.9514427  93.1294756  39.9235505  22.2544880  91.8556332  39.4952318
  17.4750034  95.2055832  46.8017421  17.3294615  95.5196135  47.6941703
  16.9975238  95.8240732  46.2488320  19.3346417  92.1958380  46.8498311
  19.3207986  91.2999473  46.5130609  20.0518845  92.2029043  47.4836597
  21.1872548  92.6295720  48.8951438  20.9290326  93.5512790  48.8935768
  20.6557588  92.2326154  49.5851902  26.1318736 105.7346507  41.6741523
  26.3055614 105.1692929  40.9215376  26.6247628 106.5347402  41.4921013
  11.9495696  97.7461176  49.7405082  11.4049164  98.5220984  49.8725357
  12.8275046  98.0931980  49.5824204  18.7383313  91.0772760  42.1185881
  18.8599224  90.1489406  42.3176768  18.4485355  91.0911446  41.2064196
  21.6074503  88.7627670  45.2552601  21.6296200  88.8267003  44.3004580
  22.0242562  87.9232179  45.4493107  31.9858128  98.4982930  43.2931823
  32.4289274  97.7490255  42.8950946  31.1084638  98.4893066  42.9105555
  27.1193909 105.0513271  38.7738422  27.8144814 105.6719964  38.9925736
  27.4617059 104.2008623  39.0490800  12.7361718  96.8731072  52.6335239
  11.9943454  97.0213708  53.2199870  12.4154462  97.1339338  51.7701989
  29.0185332 102.5012977  40.3025752  29.5436656 102.8400250  39.5775072
  28.9307685 101.5659992  40.1188887  20.6805381 106.4147050  52.4315629
  20.9892507 106.1696197  53.3038329  21.4780863 106.6193689  51.9434499
  13.1818332 104.7596501  44.6645634  14.0076352 104.4600273  44.2844277
  12.8312384 103.9904123  45.1135422  18.1499865 104.1122969  46.7343307
  17.5279874 103.4493674  46.4345535  18.8204732 104.1384101  46.0516955
  11.3826937 102.6782827  45.6234567  10.5458845 102.2505002  45.4418569
  11.3550582 102.8715271  46.5605359  18.2224392  92.5904757  56.3275813
  18.2712548  93.4666880  55.9453583  18.7646907  92.0482150  55.7547457
  28.7079238 103.1345880  55.6076950  27.9174782 103.1170019  55.0681450
  28.4712593 103.6734174  56.3625987  28.8277113  99.9838347  52.9209679
  28.8775118  99.8188354  53.8625202  28.7191037  99.1165606  52.5307560
  17.7113372 102.6626893  40.2101768  17.8601492 103.3462357  39.5568441
  18.5179815 102.6431983  40.7251224  26.1180876  95.9669275  54.2368986
  27.0190738  95.8275740  53.9452983  26.1928850  96.1323730  55.1767163
  20.4523681  93.3436130  53.0822172  19.5826990  93.6369696  52.8104761
  20.6883161  93.9276575  53.8029436  30.3295310 102.4035288  53.1651701
  30.0380118 102.7665269  54.0015161  29.7167441 101.6902297  52.9865033
  31.5290992  99.9688168  45.6854271  32.3637884 100.4077972  45.8491831
  31.6650121  99.4926821  44.8662517  28.5782498  97.5267903  51.6331758
  29.0536620  97.7195549  50.8250610  27.6548064  97.5827089  51.3875142
  15.4666005  98.6892070  41.2162837  15.2212047  97.7854400  41.4143047
  15.6361919  98.6909221  40.2742315  23.1562715  89.5615747  50.5987592
  23.6744659  90.2976773  50.2734081  22.8017847  89.8679740  51.4334352
  14.7361652  94.4220428  38.7148998  14.0430897  94.4964783  38.0589034
  14.4913404  93.6580771  39.2370515  23.4075309  85.9816029  46.1188489
  23.6877063  85.3139218  46.7448916  24.1925916  86.1745125  45.6063153
  21.2108777 105.1575023  37.6813515  20.6382744 105.7765210  37.2283987
  21.7841571 105.7074385  38.2153437  27.2784167  94.4033663  49.8660064
  28.2301590  94.5031761  49.8872288  27.1087618  93.6111932  50.3758148
  25.2998547  91.4889246  50.0519465  24.7048479  91.7694259  49.3565954
  25.0148243  91.9783147  50.8236206  24.4306037 105.4412173  38.8122098
  25.3636710 105.3757735  39.0154973  24.3429250 106.2768440  38.3536630
  27.0594054 104.7578043  35.7726045  26.9807685 104.4237907  36.6661803
  27.8803721 105.2499811  35.7717517  29.7572245  97.6239783  48.9802364
  29.7248565  96.6855783  49.1662048  30.3672869  97.7023819  48.2468189
  21.5955576  96.4935836  35.0229568  22.5414681  96.3642044  35.0917986
  21.2169821  95.7550498  35.4998996  29.9066734  94.4150826  49.0260647
  29.3905782  93.6309283  48.8390576  30.7906682  94.0869543  49.1907166
  27.5677460  88.1591842  44.9856460  27.3702282  87.8506930  45.8699792
  28.1777166  88.8853481  45.1154389  35.5748795  98.6855790  48.1208401
  36.3052183  98.4241078  48.6816104  34.9655740  97.9484512  48.1610469
  33.6564092  96.8263652  48.7182852  32.9297256  96.6919617  48.1099343
  33.2411379  97.1340481  49.5239570  21.4794268 100.5453582  56.4830225
  22.3997278 100.7232181  56.6770271  21.4443851  99.6009627  56.3309924
  19.7798493  94.4185812  34.9584453  18.8729948  94.1218925  35.0347167
  20.0574474  94.1215630  34.0918739  10.6976433  95.7392176  45.4083499
  10.3779218  94.8857484  45.1157873  10.1509862  95.9540754  46.1641467
  14.4756341  98.4554617  49.1253006  14.6942351  99.3871724  49.1441040
  14.8882115  98.0962591  49.9107810  21.3960559  88.9622702  41.1128694
  20.5861287  88.6169787  41.4883940  22.0844976  88.6530246  41.7016306
  23.3251107  88.0400749  42.7352991  23.8782146  88.4596202  43.3943014
  23.5621193  87.1136497  42.7775947  19.3484206  94.0287822  58.5155755
  19.2480933  94.9782179  58.4467846  19.1305748  93.7006061  57.6431825
  18.5497278  91.2772747  35.0996432  19.4116442  91.6027646  35.3592250
  18.7347622  90.4904243  34.5869498  10.5664693  99.3595087  47.3776621
   9.8728165  98.9449040  46.8646575  11.3137684  99.4015624  46.7810040
  26.7029914  90.1501274  42.2431655  26.1228583  90.8086078  41.8609708
  26.4365847  89.3278618  41.8319073  25.1533481  89.5506332  44.4452976
  25.6533259  89.6622866  43.6367294  25.7969088  89.2467384  45.0853784
  19.2115476  97.4584961  57.3320817  18.7282558  98.2585321  57.5384706
  19.2976415  97.4692906  56.3788261  12.4801436  99.2913341  45.2542636
  12.4572124  99.3901028  44.3024519  12.7902072 100.1378492  45.5759802
  15.1388814 101.3489496  49.3689250  16.0932067 101.3173438  49.3019182
  14.9401337 100.8880120  50.1839476  15.7288196  99.9190612  51.9360048
  16.5481085 100.4134691  51.9594885  16.0025004  99.0022580  51.9077615
  25.4854792  92.3101364  41.2988003  24.5980647  92.5951015  41.0808198
  25.9008781  92.1495128  40.4515280  28.8369328  92.3347885  45.0142343
  29.6129718  92.8244338  45.2866960  28.1117462  92.7605939  45.4714212
  31.2741887  93.0475504  46.0716283  31.8686378  92.8071240  45.3609592
  31.3468471  92.3282635  46.6989820  24.6298006 102.0746039  35.3936023
  25.3333856 102.2796041  36.0093679  23.9060654 102.6422801  35.6585107
  25.4595816  97.8255900  41.5138294  25.4031017  98.2824452  40.6745926
  26.0124158  97.0646585  41.3361136  29.2700622  93.6145632  42.3388413
  29.0137556  93.2142268  43.1696621  28.6453490  94.3289426  42.2138552
  33.5812960  96.3541705  44.8459705  33.0212518  96.4234895  45.6191267
  32.9756463  96.1782690  44.1259201  26.5384703 102.5128568  37.4434484
  27.3730307 102.0809767  37.2611958  26.3769046 102.3410582  38.3711378
  26.1930595  99.0160681  38.8090823  26.1379399  98.8504953  37.8679267
  25.5676650  99.7236714  38.9653013  10.9823110  94.2528746  52.6352245
  11.6281974  93.7427700  53.1239470  10.7740261  94.9897427  53.2095670
  23.5076502 101.3209593  58.1344386  24.3767662 101.4950246  57.7731021
  23.0283254 102.1404010  58.0120115  19.5026721  88.5168790  38.3876141
  19.4905390  89.4610630  38.5444412  20.3950143  88.3338936  38.0935602
  19.4316285 107.1937681  46.4743898  18.4811916 107.1939542  46.3608270
  19.7348771 106.4470415  45.9579932  23.3178840  85.1111567  42.6422078
  22.5511236  84.5570054  42.7878760  23.7289545  85.1833436  43.5036230
  15.3220601  91.3996363  56.7327259  16.1852063  91.0433168  56.9430584
  14.7486012  91.0610258  57.4202664  34.7210247 110.7549673  44.6142868
  35.5073336 110.3369096  44.2633285  34.9848951 111.6595765  44.7824517
  40.1218674 110.6924906  45.5175847  40.8543846 110.1224123  45.7513676
  39.3658029 110.3046507  45.9582352  37.6444094 104.4046480  49.9770455
  37.3127419 105.2741891  49.7531670  37.0489707 104.0882764  50.6564486
  31.3800280 108.1442047  37.7100538  31.5474683 109.0122284  38.0771009
  31.1897450 108.3069329  36.7861827  37.5372757 109.1241567  47.0563805
  36.6289635 109.0556975  46.7622566  37.4860353 109.6013511  47.8845631
  31.3589501 110.5999705  38.6947205  31.2389127 111.0456756  39.5332685
  30.6642090 110.9485023  38.1360743  31.6113623 110.5431212  54.9998703
  30.8346957 111.1025132  54.9901567  32.2504186 111.0287995  55.5213573
  39.4034404 107.3258005  48.8341679  38.7608784 107.6190538  48.1881474
  38.8989332 107.2110925  49.6394876  37.0574567 111.0721178  39.5227539
  37.9692424 111.3048565  39.3475236  36.5484215 111.6558222  38.9602617
  31.6946405 110.4318413  50.5322388  32.5407600 110.8557826  50.6757037
  31.6345043 109.7752037  51.2260951  34.8445851 108.0922781  52.1903562
  34.6006782 108.8464842  51.6537838  35.1205781 108.4708129  53.0250809
  34.4010542 107.2479214  47.7717400  33.5395021 107.5460468  48.0634137
  34.4272977 107.4649613  46.8398432  46.0036134 113.8572097  45.3888156
  45.2499843 113.2879495  45.2332161  46.1383675 113.8234762  46.3358791
  27.8802102 104.8077079  57.7257231  27.4869048 104.2543278  58.4004875
  28.6968242 105.1187658  58.1163748  30.7970063 106.2234959  55.3177487
  31.5379776 106.8242112  55.2381950  31.0287986 105.4812596  54.7595530
  34.7427226 102.2516061  49.5941769  34.3991495 103.1417703  49.5180880
  35.1106189 102.0617719  48.7311354  34.7077509 112.2424673  38.1014204
  34.1924132 113.0129277  38.3402592  34.4354817 111.5689809  38.7247266
  32.2924620 107.0874373  43.1599443  31.4366216 106.6981224  42.9805081
  32.7051571 107.1666334  42.2999228  33.8223766 104.6220717  47.5591002
  33.3188562 104.5850852  46.7458808  34.1154373 105.5313459  47.6187659
  30.0666652 104.7059446  46.5657184  30.9319649 104.5102255  46.2063073
  30.1344161 104.4769798  47.4926541  39.6811783 114.9957027  40.0367378
  38.9041226 114.6568187  39.5922540  40.3603264 115.0009650  39.3622343
  34.4963812 110.1151765  39.9273985  34.1913947 110.4297914  40.7784129
  35.4494254 110.1933185  39.9701318  27.6728971 106.9361654  43.9373551
  28.2472723 106.7136836  43.2046744  28.2599954 107.0050349  44.6902152
  36.7308548 112.8235381  44.7437927  37.2440430 113.4565373  45.2459637
  37.3809772 112.2236577  44.3781287  27.9998558 108.9666115  37.9569436
  27.1635871 109.3040802  38.2778711  27.8603328 108.8315095  37.0196573
  29.9751639 103.8102903  42.6648620  29.3216051 103.4951920  42.0405235
  29.9332113 103.1878644  43.3908443  33.2089379 110.2984837  46.9896268
  32.2911941 110.5199784  46.8317956  33.6249523 110.3731147  46.1307975
  33.9924427 111.6976252  42.1198948  34.7396246 112.2097650  41.8106070
  34.2616017 111.3760305  42.9803342  36.4403264 108.7333369  44.1017737
  35.7026021 108.2210755  44.4327980  36.6930038 108.2933750  43.2901014
  36.5414892 101.5109621  44.6959507  36.8473768 100.6506984  44.4085422
  37.2667496 102.1027241  44.4958501  28.7528331 110.4240473  42.9626077
  27.9396197 110.7234644  43.3691269  29.2487325 110.0296162  43.6800559
  34.3502543 110.8882298  51.7940971  34.7051931 111.1153771  52.6535436
  34.9974674 111.2200675  51.1718226  40.0800280 114.0100734  42.4990300
  39.9418178 114.2002330  41.5711489  39.7236499 114.7720117  42.9558351
  28.2442406 107.9958829  48.5787312  28.8841785 107.8547588  47.8810275
  27.4119937 107.7093342  48.2025914  25.2471022 107.9659154  43.3560298
  25.5077840 108.8804487  43.2469459  26.0688195 107.4983597  43.5056911
  26.7195948 109.3796911  50.5259123  27.3919001 109.1714273  49.8771772
  25.8925734 109.1818997  50.0864355  32.6221520 106.0058852  52.5424784
  31.9749435 106.7048802  52.4489260  33.3922535 106.4394996  52.9101032
  28.4634680 109.3524691  52.5940879  27.9272037 108.9015430  53.2462476
  27.8751388 109.4870600  51.8511344  27.8736939 108.8113343  35.1567343
  26.9966405 108.6902144  34.7929590  28.3494692 108.0199421  34.9046232
  24.1973801 108.4880699  49.6793874  24.1131990 107.8806369  48.9444284
  23.3756507 108.9789717  49.6803370  34.3697515 106.9734263  45.0464069
  34.8666214 106.2204225  44.7265139  33.5984496 107.0098579  44.4807278
  42.2227272 112.6774628  46.6882360  42.2117148 113.5599344  46.3176293
  41.3544652 112.3246179  46.4936897  30.9532483 109.1151646  44.7735753
  30.5830271 108.5622686  45.4616659  31.4491576 108.5109779  44.2210753
  38.8399847 111.5723269  43.1552526  39.3060299 112.4051261  43.0812829
  39.2907347 111.1068251  43.8597785  36.8116510 103.9403856  47.1943428
  35.8979589 104.1708083  47.3625635  37.2409611 104.0242300  48.0457460
  36.5822968 112.1293748  49.6943322  35.9294418 112.3769655  49.0395774
  36.9603348 111.3157886  49.3605799  26.3497817 106.5255636  51.0188859
  26.4139144 107.3870467  50.6066257  26.2864937 105.9129638  50.2861218
  25.8250090 108.5978769  54.6661894  26.4522128 108.2155846  55.2799418
  24.9678009 108.3792971  55.0317586  26.1309879 108.4811195  46.5807797
  25.4096465 109.0947162  46.4415270  26.9203135 109.0168959  46.5024443
  28.9336193 105.8165621  52.8548449  29.4570595 106.0627918  53.6174758
  28.7148526 106.6485656  52.4351586  24.3303474 108.0869296  40.7219574
  24.0016180 107.2066675  40.5394680  24.6842845 108.0316964  41.6095963
  27.4445297 108.3742265  41.0895051  27.7841370 108.9028187  40.3673660
  27.8917418 108.7122672  41.8653618  30.1388738 106.7579316  50.5398119
  29.7985558 105.9587129  50.9418799  29.4327744 107.0581027  49.9674953
  30.7905210 103.8428629  48.9925442  31.6131279 103.3689107  48.8704333
  31.0343273 104.6219112  49.4924129  29.4313444 106.8716887  39.2888344
  30.1521807 107.2498140  38.7852061  28.8078748 107.5905764  39.3923322
  33.5744567 107.5762036  40.2246676  33.7908182 108.4586674  39.9235505
  33.0938634 107.1848249  39.4952318  30.1740171 107.5250297  46.8498311
  30.1601740 106.6291391  46.5130609  30.8912600 107.5320961  47.4836597
  32.0266302 107.9587637  48.8951438  31.7684080 108.8804708  48.8935768
  31.4951343 107.5618072  49.5851902  29.5777067 106.4064678  42.1185881
  29.6992979 105.4781324  42.3176768  29.2879110 106.4203363  41.2064196
  32.4468258 104.0919588  45.2552601  32.4689955 104.1558921  44.3004580
  32.8636317 103.2524097  45.4493107  42.8251882 113.8274848  43.2931823
  43.2683028 113.0782173  42.8950946  41.9478392 113.8184984  42.9105555
  29.0618147 107.9196675  56.3275813  29.1106302 108.7958798  55.9453583
  29.6040661 107.3774068  55.7547457  36.9574630 111.2961193  54.2368986
  37.8584493 111.1567657  53.9452983  37.0322605 111.4615647  55.1767163
  31.2917435 108.6728047  53.0822172  30.4220745 108.9661613  52.8104761
  31.5276916 109.2568492  53.8029436  42.3684747 115.2980086  45.6854271
  43.2031638 115.7369890  45.8491831  42.5043876 114.8218739  44.8662517
  39.4176253 112.8559821  51.6331758  39.8930374 113.0487467  50.8250610
  38.4941818 112.9119006  51.3875142  33.9956469 104.8907664  50.5987592
  34.5138413 105.6268691  50.2734081  33.6411602 105.1971658  51.4334352
  25.5755407 109.7512345  38.7148998  24.8824652 109.8256700  38.0589034
  25.3307159 108.9872689  39.2370515  34.2469063 101.3107947  46.1188489
  34.5270817 100.6431136  46.7448916  35.0319670 101.5037042  45.6063153
  38.1177922 109.7325581  49.8660064  39.0695345 109.8323678  49.8872288
  37.9481372 108.9403849  50.3758148  36.1392301 106.8181164  50.0519465
  35.5442233 107.0986177  49.3565954  35.8541998 107.3075065  50.8236206
  40.5966000 112.9531700  48.9802364  40.5642320 112.0147701  49.1662048
  41.2066623 113.0315737  48.2468189  32.4349330 111.8227753  35.0229568
  33.3808435 111.6933962  35.0917986  32.0563575 111.0842415  35.4998996
  40.7460488 109.7442744  49.0260647  40.2299537 108.9601200  48.8390576
  41.6300437 109.4161460  49.1907166  38.4071215 103.4883759  44.9856460
  38.2096036 103.1798848  45.8699792  39.0170920 104.2145398  45.1154389
  46.4142549 114.0147707  48.1208401  47.1445938 113.7532995  48.6816104
  45.8049495 113.2776429  48.1610469  44.4957846 112.1555570  48.7182852
  43.7691010 112.0211535  48.1099343  44.0805133 112.4632398  49.5239570
  30.6192248 109.7477730  34.9584453  29.7123703 109.4510843  35.0347167
  30.8968229 109.4507548  34.0918739  32.2354313 104.2914620  41.1128694
  31.4255042 103.9461704  41.4883940  32.9238730 103.9822163  41.7016306
  34.1644862 103.3692666  42.7352991  34.7175900 103.7888120  43.3943014
  34.4014948 102.4428414  42.7775947  30.1877961 109.3579740  58.5155755
  30.0874688 110.3074097  58.4467846  29.9699503 109.0297979  57.6431825
  29.3891032 106.6064665  35.0996432  30.2510196 106.9319563  35.3592250
  29.5741376 105.8196161  34.5869498  37.5423669 105.4793191  42.2431655
  36.9622338 106.1377996  41.8609708  37.2759601 104.6570536  41.8319073
  35.9927235 104.8798249  44.4452976  36.4927013 104.9914784  43.6367294
  36.6362843 104.5759302  45.0853784  36.3248547 107.6393282  41.2988003
  35.4374402 107.9242932  41.0808198  36.7402536 107.4787045  40.4515280
  39.6763083 107.6639803  45.0142343  40.4523473 108.1536255  45.2866960
  38.9511217 108.0897857  45.4714212  42.1135641 108.3767422  46.0716283
  42.7080132 108.1363158  45.3609592  42.1862225 107.6574553  46.6989820
  36.2989570 113.1547818  41.5138294  36.2424772 113.6116369  40.6745926
  36.8517913 112.3938502  41.3361136  40.1094376 108.9437550  42.3388413
  39.8531311 108.5434185  43.1696621  39.4847244 109.6581344  42.2138552
  44.4206714 111.6833623  44.8459705  43.8606272 111.7526812  45.6191267
  43.8150218 111.5074608  44.1259201  30.3420475 103.8460708  38.3876141
  30.3299145 104.7902548  38.5444412  31.2343897 103.6630853  38.0935602
  34.1572595 100.4403485  42.6422078  33.3904990  99.8861971  42.7878760
  34.5683300 100.5125353  43.5036230  26.1614356 106.7288280  56.7327259
  27.0245817 106.3725085  56.9430584  25.5879766 106.3902175  57.4202664
  47.3808646 116.8401538  44.6959507  47.6867523 115.9798902  44.4085422
  48.1061251 117.4319159  44.4958501  45.0862818 116.6399864  46.1188489
  45.3664572 115.9723053  46.7448916  45.8713425 116.8328960  45.6063153
  44.9966349 115.7695402  42.6422078  44.2298745 115.2153889  42.7878760
  45.4077054 115.8417271  43.5036230   2.6461118  29.5466549  32.1133463
   1.8924826  28.9773947  31.9577467   2.7808659  29.5129214  33.0604098
   3.0567533  29.7042159  34.8453707   3.7870921  29.4427447  35.4061411
   2.4474478  28.9670881  34.8855775   1.1382830  27.8450022  35.4428158
   0.4115993  27.7105987  34.8344650   0.7230117  28.1526850  36.2484876
   1.0631697  27.3728075  31.5705011   0.5031255  27.4421264  32.3436573
   0.4575201  27.1969059  30.8504507   2.6487716  44.0484589  34.2634967
   3.2866126  43.9291336  33.5598307   2.5308559  44.9965433  34.3222919
   2.2028984  41.7736043  31.3388175   2.9892074  41.3555466  30.9878592
   2.4667689  42.6782135  31.5069823   2.3739062  47.2108893  26.0376832
   1.7384895  47.2843519  26.7497736   2.0436468  47.8002492  25.3595911
   7.6037412  41.7111276  32.2421153   8.3362583  41.1410493  32.4758983
   6.8476767  41.3232876  32.6827659   5.1262832  35.4232850  36.7015762
   4.7946157  36.2928261  36.4776977   4.5308445  35.1069134  37.3809792
   1.6194351  47.6245396  36.1011675   1.3195074  48.5270435  35.9927482
   1.2745411  47.3577579  36.9532828   5.0191495  40.1427936  33.7809112
   4.1108373  40.0743344  33.4867873   4.9679091  40.6199881  34.6090938
   6.8853142  38.3444374  35.5586986   6.2427522  38.6376908  34.9126781
   6.3808070  38.2297295  36.3640183   4.5393305  42.0907548  26.2472845
   5.4511161  42.3234934  26.0720543   4.0302952  42.6744592  25.6847924
   2.8234073  46.5132175  39.8834138   3.2317429  46.0714586  39.1388770
   2.1011334  45.9384803  40.1368331   3.1462888  47.0733366  33.6386427
   2.5171750  47.2379080  32.9362495   2.7588550  47.4874976  34.4097391
   7.0252119  48.0087804  30.9930791   6.3403158  48.3886705  30.4427824
   7.1095969  48.6183131  31.7262738   2.3264588  39.1109151  38.9148868
   2.0825520  39.8651211  38.3783144   2.6024519  39.4894498  39.7496116
   4.2803051  45.6547763  37.5926134   4.4919946  46.2979523  36.9160515
   4.2332799  44.8210080  37.1248064   1.8829280  38.2665584  34.4962706
   1.0213759  38.5646837  34.7879444   1.9091715  38.4835983  33.5643739
   5.3948879  48.5319718  35.7648491   6.2166323  48.1299906  35.4831173
   5.3911282  48.4287953  36.7164607  13.4854872  44.8758467  32.1133463
  12.7318580  44.3065865  31.9577467  13.6202413  44.8421131  33.0604098
   2.6003215  50.6498236  39.9469926   2.5821690  51.4707117  39.4550195
   3.5223135  50.5252311  40.1720067   2.2245964  33.2702431  36.3187076
   1.8810233  34.1604073  36.2426186   2.5924926  33.0804089  35.4556661
   2.1896246  43.2611042  24.8259511   1.6742870  44.0315647  25.0647898
   1.9173555  42.5876178  25.4492572   1.3042504  35.6407086  34.2836309
   0.8007300  35.6037221  33.4704114   1.5973111  36.5499829  34.3432966
   7.1630521  46.0143397  26.7612684   6.3859963  45.6754556  26.3167846
   7.8422002  46.0196020  26.0867649   1.9782550  41.1338134  26.6519292
   1.6732685  41.4484283  27.5029435   2.9312992  41.2119554  26.6946625
   5.4021827  45.4877378  33.4179292   4.7445502  46.1776639  33.5059421
   6.2062227  45.8773810  33.7613279   4.2127286  43.8421751  31.4683234
   4.7259168  44.4751743  31.9704944   4.8628510  43.2422946  31.1026594
   1.4749660  53.8206075  24.2243905   0.8011359  54.1237772  24.8328863
   1.8615482  54.6235155  23.8749362   1.4743165  42.7162622  28.8444255
   2.2214984  43.2284019  28.5351377   1.7434754  42.3946675  29.7048648
   4.9789082  48.8227752  29.5962377   4.5251410  47.9818662  29.6527567
   4.3483049  49.4589151  29.9337157   3.9222002  39.7519738  30.8263044
   3.1844759  39.2397124  31.1573287   4.1748776  39.3120120  30.0146321
   3.4222022  50.6604249  30.5312195   3.7144996  51.2209306  29.8124560
   3.9320642  50.9532810  31.2865354   4.0233629  32.5295990  31.4204813
   4.3292506  31.6693354  31.1330728   4.7486234  33.1213610  31.2203807
   1.8321281  41.9068668  38.5186277   2.1870668  42.1340141  39.3780743
   2.4793412  42.2387044  37.8963532   7.5619018  45.0287103  29.2235606
   7.4236916  45.2188699  28.2956795   7.2055236  45.7906486  29.6803657
   7.5888397  47.0963630  34.2346878   8.0224904  47.0038920  35.0829932
   8.3019978  47.0721131  33.5966894   1.3216292  50.6965725  35.7679978
   1.3753314  51.2656661  36.5357694   0.4531074  50.8667610  35.4034015
   8.4503947  47.1387331  36.7679763   8.6439837  48.0433142  37.0139038
   8.3504565  46.6794750  37.6018348   3.5119055  47.2894074  42.3420644
   3.3604562  47.0604626  41.4250727   3.5023735  48.2464675  42.3551989
   3.5657130  45.6114288  22.7591345   2.9486301  44.8861116  22.6624398
   3.0973619  46.3723648  22.4158419   5.2211262  50.3213196  40.4197126
   5.1623808  49.6372417  39.7527709   5.6230781  51.0632186  39.9677752
   5.2228669  48.2852780  38.6511105   4.3355448  47.9478702  38.7737504
   5.7927220  47.5535812  38.8879871   1.8516253  37.9920632  31.7709375
   2.3484952  37.2390594  31.4510446   1.0803234  38.0284949  31.2052585
   9.7046010  43.6960998  33.4127667   9.6935886  44.5785713  33.0421600
   8.8363389  43.3432549  33.2182204   1.2128506  52.8441067  37.7730507
   1.9256479  53.4788532  37.7006409   0.7218535  52.9404933  36.9570509
   2.9346033  46.7492319  29.3447799   2.0002312  46.8693782  29.1752503
   3.1122702  45.8464786  29.0807809   6.3218585  42.5909639  29.8797833
   6.7879037  43.4237630  29.8058136   6.7726085  42.1254620  30.5843091
   4.3894816  48.9353460  26.8783985   4.6654660  48.8210055  27.7877859
   3.5199314  48.5370945  26.8396158   4.2935247  34.9590226  33.9188734
   3.3798327  35.1894452  34.0870941   4.7228349  35.0428670  34.7702767
   4.0641706  43.1480118  36.4188628   3.4113156  43.3956025  35.7641081
   4.4422086  42.3344256  36.0851106   1.0248880  53.1839811  30.5216799
   1.2071274  52.3661467  30.9844551   1.8481866  53.4007503  30.0841689
   1.3591045  52.1107996  27.7831847   1.8878812  51.6000451  27.1702009
   1.6219265  51.7950526  28.6477380   3.7062936  50.0228114  42.9960936
   4.2502840  50.6358072  42.5015891   3.1249781  50.5807692  43.5127949
   1.9920449  53.1448832  34.1275964   1.8671588  52.3438571  33.6186909
   2.6499540  53.6395025  33.6389934   4.0555357  50.9457852  35.7555514
   3.1085693  50.8263203  35.6833840   4.4038130  50.0580350  35.8381775
   1.0601791  50.7410568  31.9559866   0.9126753  49.8127275  32.1367436
   1.8855284  50.7630659  31.4716941   4.6635913  51.5639127  33.0424739
   5.5882460  51.3581988  32.9049190   4.4951216  51.3155528  33.9514080
   1.0563305  38.5948406  26.9491983   1.2726919  39.4773043  26.6480811
   0.5757372  38.2034619  26.2197625   4.4531229  52.0824794  28.3986830
   4.6268106  51.5171217  27.6460683   4.9460120  52.8825689  28.2166320
  10.3070620  44.8461217  30.0177130  10.7501766  44.0968542  29.6196253
   9.4297130  44.8371353  29.6350862   5.4406401  51.3991559  25.4983728
   6.1357306  52.0198251  25.7171043   5.7829551  50.5486910  25.7736106
   7.3397824  48.8491264  27.0271059   7.8649148  49.1878537  26.3020379
   7.2520177  47.9138279  26.8434194   7.0291730  49.4824168  42.3322257
   6.2387274  49.4648307  41.7926756   6.7925085  50.0212461  43.0871294
   7.1489605  46.3316634  39.6454986   7.1987610  46.1666642  40.5870508
   7.0403529  45.4643893  39.2552866   4.4393368  42.3147562  40.9614292
   5.3403231  42.1754027  40.6698290   4.5141342  42.4802017  41.9012470
   8.6507802  48.7513576  39.8897007   8.3592611  49.1143556  40.7260468
   8.0379934  48.0380584  39.7110339   9.8503485  46.3166455  32.4099577
  10.6850376  46.7556259  32.5737138   9.9862613  45.8405109  31.5907823
   6.8994991  43.8746190  38.3577065   7.3749112  44.0673837  37.5495917
   5.9760556  43.9305376  38.1120449   1.4775207  35.9094034  37.3232899
   1.9957151  36.6455061  36.9979388   1.1230340  36.2158027  38.1579658
   1.7287801  32.3294316  32.8433796   2.0089555  31.6617505  33.4694222
   2.5138408  32.5223412  32.3308459   5.5996660  40.7511950  36.5905371
   6.5514082  40.8510048  36.6117595   5.4300110  39.9590219  37.1003455
   3.6211039  37.8367534  36.7764772   3.0260971  38.1172546  36.0811260
   3.3360736  38.3261434  37.5481513   2.7518529  51.7890460  25.5367404
   3.6849203  51.7236022  25.7400280   2.6641742  52.6246727  25.0781937
   5.3806546  51.1056331  22.4971352   5.3020178  50.7716194  23.3907110
   6.2016213  51.5978099  22.4962824   8.0784737  43.9718070  35.7047670
   8.0461057  43.0334071  35.8907354   8.6885361  44.0502107  34.9713495
   8.2279226  40.7629113  35.7505954   7.7118274  39.9787570  35.5635882
   9.1119174  40.4347830  35.9152473   5.8889953  34.5070129  31.7101766
   5.6914774  34.1985217  32.5945098   6.4989658  35.2331768  31.8399696
  13.8961287  45.0334077  34.8453707  14.6264676  44.7719365  35.4061411
  13.2868233  44.2962799  34.8855775  11.9776584  43.1741939  35.4428158
  11.2509748  43.0397904  34.8344650  11.5623871  43.4818768  36.2484876
   1.6463599  34.3879036  29.4598298   2.1994638  34.8074489  30.1188321
   1.8833686  33.4614784  29.5021254   5.0242406  36.4979561  28.9676962
   4.4441075  37.1564365  28.5855014   4.7578339  35.6756906  28.5564379
   3.4745973  35.8984619  31.1698282   3.9745751  36.0101153  30.3612601
   4.1181581  35.5945672  31.8099091   3.8067284  38.6579651  28.0233310
   2.9193139  38.9429302  27.8053505   4.2221274  38.4973415  27.1760587
   7.1581821  38.6826172  31.7387649   7.9342211  39.1722625  32.0112266
   6.4329955  39.1084227  32.1959519   9.5954379  39.3953792  32.7961590
  10.1898870  39.1549528  32.0854898   9.6680963  38.6760922  33.4235126
   2.9510498  48.4224326  22.1181330   3.6546348  48.6274329  22.7338986
   2.2273147  48.9901088  22.3830414   3.7808308  44.1734187  28.2383600
   3.7243510  44.6302739  27.3991233   4.3336651  43.4124872  28.0606443
   7.5913114  39.9623919  29.0633720   7.3350048  39.5620555  29.8941927
   6.9665982  40.6767713  28.9383859  11.9025452  42.7019992  31.5705011
  11.3425010  42.7713182  32.3436573  11.2968955  42.5260977  30.8504507
   4.8597195  48.8606855  24.1679790   5.6942799  48.4288054  23.9857265
   4.6981538  48.6888869  25.0956685   4.5143087  45.3638969  25.5336129
   4.4591891  45.1983240  24.5924574   3.8889143  46.0715002  25.6898319
   1.8288995  47.6687880  44.8589692   2.6980154  47.8428533  44.4976327
   1.3495746  48.4882297  44.7365422   1.6391332  31.4589854  29.3667385
   0.8723728  30.9048341  29.5124067   2.0502037  31.5311723  30.2281536
  13.4881470  59.3776506  34.2634967  14.1259880  59.2583254  33.5598307
  13.3702313  60.3257350  34.3222919  10.2971177  59.3303935  34.1996492
   9.9589688  59.2144999  33.3117026  11.1660945  58.9295100  34.1797498
   6.1557992  61.1839411  30.1893383   5.5922858  61.0929348  29.4209670
   6.0410387  60.3639315  30.6695875  10.7790960  60.4838786  40.1582697
  10.7679600  60.0891585  39.2863201  10.9411599  59.7504859  40.7516469
   3.7022424  62.6790603  33.0277603   4.4943716  62.3381427  32.6123902
   3.9419074  62.7885578  33.9479756  11.7357551  64.8510379  25.5007847
  11.0845531  65.4364459  25.1141861  12.5301914  65.3816574  25.5602885
   5.6613178  61.9399516  25.8994982   6.4344054  61.3928503  25.7607858
   6.0138577  62.8043765  26.1109443   7.4998221  63.2675898  39.1061881
   7.2088087  64.1721529  38.9908547   8.1355205  63.3092426  39.8205951
   8.4254428  60.6452747  35.6963241   9.0218000  60.4208769  34.9820204
   8.4829399  59.9037492  36.2988689   7.9979456  58.0992182  23.5313432
   8.2504977  57.5773703  22.7696895   7.0604015  57.9358327  23.6340115
  13.0422739  57.1027960  31.3388175  13.8285828  56.6847383  30.9878592
  13.3061443  58.0074052  31.5069823  13.2132816  62.5400811  26.0376832
  12.5778649  62.6135437  26.7497736  12.8830223  63.1294409  25.3595911
  18.4431166  57.0403193  32.2421153  19.1756338  56.4702410  32.4758983
  17.6870522  56.6524794  32.6827659   7.7175745  60.0020288  25.7337807
   7.6012003  59.3265191  26.4018891   7.8278005  59.5152662  24.9169960
  10.0607286  59.4630435  29.4384496   9.6965493  58.9361056  30.1497417
  10.9174402  59.0728904  29.2650981  15.9656586  50.7524768  36.7015762
  15.6339911  51.6220179  36.4776977  15.3702200  50.4361052  37.3809792
   9.7012773  54.4920335  24.4345844   9.8687175  55.3600571  24.8016315
   9.5109942  54.6547616  23.5107134  12.4588106  62.9537314  36.1011675
  12.1588829  63.8562352  35.9927482  12.1139165  62.6869497  36.9532828
   5.9100587  59.4051110  32.1348379   4.9851084  59.2727325  32.3426071
   6.1585001  60.1845330  32.6318322  15.8585250  55.4719854  33.7809112
  14.9502127  55.4035262  33.4867873  15.8072845  55.9491799  34.6090938
   9.6801994  56.9477992  25.4192511   9.5601619  57.3935043  26.2577992
   8.9854582  57.2963310  24.8606049   3.2709398  59.0484384  32.9692168
   3.4001780  59.3018863  33.8831580   2.5906850  59.6412092  32.6496823
   7.4408886  69.7181634  29.0682642   7.3632915  70.6689459  29.1471123
   6.8370529  69.3727506  29.7257569   9.9326115  56.8909499  41.7244009
   9.1559450  57.4503419  41.7146874  10.5716679  57.3766282  42.2458880
  17.7246896  53.6736292  35.5586986  17.0821276  53.9668825  34.9126781
  17.2201825  53.5589212  36.3640183  15.3787060  57.4199465  26.2472845
  16.2904916  57.6526852  26.0720543  14.8696707  58.0036510  25.6847924
   8.1872488  59.6994953  41.2861976   8.9287172  60.2379997  41.0096800
   7.4809473  60.3261241  41.4433528  13.6627827  61.8424093  39.8834138
  14.0711183  61.4006504  39.1388770  12.9405089  61.2676721  40.1368331
  10.0158897  56.7796700  37.2567695  10.8620093  57.2036113  37.4002344
   9.9557535  56.1230324  37.9506258  13.9856642  62.4025284  33.6386427
  13.3565505  62.5670998  32.9362495  13.5982304  62.8166893  34.4097391
  17.8645874  63.3379722  30.9930791  17.1796912  63.7178623  30.4427824
  17.9489723  63.9475048  31.7262738  13.1658343  54.4401068  38.9148868
  12.9219275  55.1943129  38.3783144  13.4418273  54.8186416  39.7496116
  15.1196806  60.9839681  37.5926134  15.3313701  61.6271441  36.9160515
  15.0726554  60.1501997  37.1248064  12.7223035  53.5957501  34.4962706
  11.8607514  53.8938755  34.7879444  12.7485469  53.8127900  33.5643739
   9.5384604  62.1399692  30.9036512  10.0022949  62.4187395  30.1141134
   9.2741402  61.2383136  30.7209603   6.4308685  61.6871173  33.8416275
   7.0010042  62.1158442  33.2033760   7.0216797  61.4053758  34.5400461
   8.4753490  58.2622844  27.7126077   9.1777533  58.7143888  28.1800003
   8.1434118  57.6206663  28.3405970   6.9233852  56.8534601  42.0877286
   6.2932512  57.5350882  42.3212683   6.8169939  56.7417682  41.1430425
   2.2178824  56.5206397  33.0143211   1.4277878  56.7763925  32.5383321
   2.7090071  57.3354735  33.1195251  16.2342634  63.8611636  35.7648491
  17.0560077  63.4591823  35.4831173  16.2305036  63.7579870  36.7164607
   4.1693569  56.8850976  29.9726687   3.3724733  56.9969670  30.4910183
   3.9419162  57.2237628  29.1067578   9.9999237  63.4095679  37.9209202
  10.0643669  63.8716087  38.7567374   9.2910161  62.7793044  38.0491512
   0.5016527  56.7736887  35.4458201   0.7524565  57.6583897  35.7115777
   1.0376075  56.5941489  34.6733293  24.3248627  60.2050385  32.1133463
  23.5712335  59.6357783  31.9577467  24.4596168  60.1713049  33.0604098
   9.7147255  65.0763787  27.7888182   9.5792929  65.9215323  28.2173030
  10.2557067  65.2783065  27.0254116   6.2014594  51.1555367  44.4502537
   5.8081540  50.6021565  45.1250182   7.0180735  51.4665945  44.8409055
   3.1676652  62.5939225  28.3616107   3.6801173  63.3882475  28.5121672
   3.8199365  61.8965515  28.2949709   4.9771537  65.7104981  30.4438860
   5.1538165  66.6322946  30.2559844   5.7728370  65.3963400  30.8733240
   9.1182555  52.5713246  42.0422794   9.8592269  53.1720399  41.9627256
   9.3500478  51.8290884  41.4840837   4.2623893  57.7569613  40.3201024
   4.1477408  56.8554870  40.6208123   3.4068411  58.0033310  39.9685840
  11.3415731  65.6987353  41.9188524  10.8979585  64.9123732  41.6009429
  12.0032945  65.8866504  41.2532415   6.1002852  67.2283155  36.4449203
   6.6510277  67.1000218  35.6726197   5.2614328  67.5278044  36.0944096
  13.4396969  65.9790153  39.9469926  13.4215444  66.7999034  39.4550195
  14.3616889  65.8544229  40.1720067   9.8970023  63.4934283  40.7893434
  10.4298360  62.7322571  40.5592742   9.3684104  63.2007935  41.5317588
  13.0639718  48.5994349  36.3187076  12.7203988  49.4895990  36.2426186
  13.4318681  48.4096006  35.4556661   1.1325569  60.9227879  29.1375678
   1.9700791  61.3324888  28.9209386   1.3103836  59.9827321  29.1075872
  13.0290001  58.5902960  24.8259511  12.5136624  59.3607564  25.0647898
  12.7567309  57.9168096  25.4492572  10.6137112  53.4352661  29.8844749
   9.7578708  53.0459511  29.7050388  11.0264064  53.5144621  29.0244535
  12.1436259  50.9699004  34.2836309  11.6401054  50.9329139  33.4704114
  12.4366865  51.8791747  34.3432966   8.3879144  51.0537734  33.2902491
   9.2532141  50.8580542  32.9308380   8.4556653  50.8248085  34.2171847
  18.0024275  61.3435314  26.7612684  17.2253718  61.0046474  26.3167846
  18.6815756  61.3487938  26.0867649  12.8176304  56.4630052  26.6519292
  12.5126440  56.7776201  27.5029435  13.7706746  56.5411472  26.6946625
  11.2622736  62.6220275  28.3012246  10.7344097  61.8873035  27.9885483
  10.7610239  63.3994952  28.0552214  16.2415582  60.8169296  33.4179292
  15.5839256  61.5068557  33.5059421  17.0455981  61.2065728  33.7613279
   5.9941464  53.2839942  30.6618857   6.5685215  53.0615123  29.9292050
   6.5812446  53.3528636  31.4147459  15.0521041  59.1713668  31.4683234
  15.5652922  59.8043660  31.9704944  15.7022265  58.5714864  31.1026594
   6.3211051  55.3144403  24.6814743   5.4848363  55.6519089  25.0024017
   6.1815820  55.1793382  23.7441880   8.2964131  50.1581190  29.3893927
   7.6428544  49.8430208  28.7650542   8.2544605  49.5356931  30.1153750
   9.4075336  60.4400486  21.3047219   8.5002398  60.2089739  21.5038368
   9.9046368  59.6438105  21.4921201  12.3143415  69.1497993  24.2243905
  11.6405114  69.4529689  24.8328863  12.7009237  69.9527073  23.8749362
  11.5301872  56.6463124  33.7141575  10.6124433  56.8678071  33.5563263
  11.9462015  56.7209434  32.8553282  12.3136919  58.0454540  28.8444255
  13.0608738  58.5575937  28.5351377  12.5828509  57.7238592  29.7048648
  10.5863570  60.5413080  25.8271209   9.6774789  60.2572113  25.9243679
  10.6158653  60.9612159  24.9674516  15.8182837  64.1519670  29.5962377
  15.3645164  63.3110580  29.6527567  15.1876804  64.7881068  29.9337157
  14.7615757  55.0811656  30.8263044  14.0238513  54.5689042  31.1573287
  15.0142530  54.6412038  30.0146321  14.2615776  65.9896167  30.5312195
  14.5538751  66.5501224  29.8124560  14.7714397  66.2824728  31.2865354
  14.8627384  47.8587908  31.4204813  15.1686261  46.9985271  31.1330728
  15.5879989  48.4505528  31.2203807   1.1551740  58.2618595  29.8086411
   0.9576140  57.6687955  29.0837478   0.5998404  57.9570805  30.5262350
   9.1348464  58.1541701  31.9281004   9.1897073  57.2015537  31.8523481
   8.3239666  58.3101140  32.4122303  10.2839657  62.0821824  23.1659288
   9.8459087  61.3657683  22.7064925  11.0250098  62.3097939  22.6044379
   7.0740823  56.7718761  29.6871383   6.2608689  57.0712931  30.0936575
   7.5699818  56.3774450  30.4045866   9.2249401  66.7676518  31.6205648
   9.1825580  66.9937364  30.6914180  10.1412100  66.5339892  31.7691449
  12.6715035  57.2360585  38.5186277  13.0264423  57.4632058  39.3780743
  13.3187166  57.5678962  37.8963532  18.4012772  60.3579021  29.2235606
  18.2630671  60.5480617  28.2956795  18.0448991  61.1198404  29.6803657
   6.5654898  54.3437116  35.3032618   7.2054278  54.2025875  34.6055582
   5.7332429  54.0571630  34.9271220  18.4282152  62.4255548  34.2346878
  18.8618658  62.3330837  35.0829932  19.1413732  62.4013049  33.5966894
   7.3415202  63.6439547  31.4167611   8.1355801  63.1489867  31.2150186
   6.6306895  63.1157410  31.0535316  12.1610047  66.0257642  35.7679978
  12.2147069  66.5948579  36.5357694  11.2924828  66.1959527  35.4034015
   3.6497966  57.7882628  27.4927363   2.7195554  57.7267084  27.7097326
   3.7455438  57.2658581  26.6964005   3.5683515  54.3137441  30.0805605
   3.8290332  55.2282774  29.9714766   4.3900687  53.8461884  30.2302218
   5.0408440  55.7275198  37.2504430   5.7131493  55.5192561  36.6017078
   4.2138227  55.5297284  36.8109662  19.2897701  62.4679249  36.7679763
  19.4833591  63.3725059  37.0139038  19.1898319  62.0086668  37.6018348
  10.9434012  52.3537139  39.2670090  10.2961927  53.0527089  39.1734567
  11.7135027  52.7873283  39.6346339  14.3512810  62.6185992  42.3420644
  14.1998316  62.3896543  41.4250727  14.3417489  63.5756593  42.3551989
  11.1198146  60.1917904  37.3266910  12.0490206  60.3429064  37.1535877
  10.6989176  60.2801925  36.4715557   9.9186478  64.2168569  35.0965448
   9.7797564  63.8487353  35.9691386   9.1301074  64.7316208  34.9249406
  10.5134630  69.3177665  26.4390984  10.6886386  68.8465708  27.2536607
   9.8267418  69.9443431  26.6672245  11.4691693  63.5950171  32.4854286
  11.1341526  63.5550941  33.3811935  10.9695639  62.9294887  32.0124696
   5.4435937  59.0017801  38.0106867   5.3055735  58.2698040  38.6118406
   6.3540861  58.9126702  37.7291054  14.4050885  60.9406206  22.7591345
  13.7880056  60.2153034  22.6624398  13.9367373  61.7015566  22.4158419
   8.0718238  58.7137761  37.4990546   8.7817856  58.0730953  37.4577165
   8.0287546  58.9650656  38.4216727  16.0605017  65.6505114  40.4197126
  16.0017563  64.9664334  39.7527709  16.4624535  66.3924104  39.9677752
   6.7847172  55.7002979  39.3186186   6.2484529  55.2493717  39.9707782
   6.1963880  55.8348887  38.5756650   5.0795715  72.4667028  33.2130844
   5.3192314  73.0985552  33.8909863   4.2364912  72.1155068  33.4996204
   6.1949431  55.1591630  21.8812650   5.3178897  55.0380431  21.5174896
   6.6707184  54.3677708  21.6291538  16.0622424  63.6144698  38.6511105
  15.1749203  63.2770620  38.7737504  16.6320975  62.8827729  38.8879871
   2.5186293  54.8358986  36.4039180   2.4344482  54.2284656  35.6689590
   1.6969000  55.3268005  36.4048677   9.5923577  68.2746150  35.6172348
   9.5193749  69.0801122  36.1291653   9.1500970  68.4738116  34.7920370
   9.3813357  67.5117920  29.1275170   8.5980879  68.0539601  29.2213395
  10.0806102  68.0291900  29.5269411  12.6910007  53.3212550  31.7709375
  13.1878707  52.5682512  31.4510446  11.9196989  53.3576866  31.2052585
  20.5439764  59.0252915  33.4127667  20.5329641  59.9077631  33.0421600
  19.6757144  58.6724466  33.2182204  12.0522261  68.1732984  37.7730507
  12.7650233  68.8080449  37.7006409  11.5612289  68.2696850  36.9570509
  13.7739788  62.0784237  29.3447799  12.8396066  62.1985700  29.1752503
  13.9516456  61.1756704  29.0807809   9.2744976  55.4629933  31.4981060
   8.9042763  54.9100973  32.1861966   9.7704068  54.8588066  30.9456060
  17.1612339  57.9201556  29.8797833  17.6272791  58.7529548  29.8058136
  17.6119840  57.4546538  30.5843091   7.1034174  65.9227428  38.5936078
   7.8043634  66.5563911  38.7465472   6.6329289  66.2642159  37.8331717
  15.2288570  64.2645378  26.8783985  15.5048414  64.1501972  27.7877859
  14.3593069  63.8662862  26.8396158  15.1329002  50.2882143  33.9188734
  14.2192082  50.5186370  34.0870941  15.5622103  50.3720587  34.7702767
  14.9035460  58.4772035  36.4188628  14.2506911  58.7247943  35.7641081
  15.2815840  57.6636173  36.0851106  11.8642634  68.5131728  30.5216799
  12.0465029  67.6953384  30.9844551  12.6875620  68.7299421  30.0841689
  12.1984800  67.4399914  27.7831847  12.7272566  66.9292368  27.1702009
  12.4613019  67.1242444  28.6477380  10.9523033  59.2191846  42.9054665
  10.2763670  59.1185976  43.5757041  11.7750667  59.0631060  43.3690663
   2.7001892  65.4563783  35.5267181   3.2855329  64.7107471  35.6595085
   2.5026731  65.7667740  36.4103845   5.5540548  68.4915030  30.5429623
   4.8850923  68.9761158  30.0593663   5.4153417  68.7384251  31.4573002
   9.6945816  70.5258774  37.1412281  10.2464124  70.6890395  37.9061367
  10.0352010  71.1163212  36.4692306   4.6710309  52.8733924  37.7434166
   4.7351636  53.7348755  37.3311564   4.6077430  52.2607925  37.0106525
   4.1462582  54.9457056  41.3907200   4.7734621  54.5634133  42.0044725
   3.2890501  54.7271258  41.7562893  14.5456691  65.3520031  42.9960936
  15.0896595  65.9649990  42.5015891  13.9643535  65.9099610  43.5127949
  12.8314203  68.4740749  34.1275964  12.7065343  67.6730489  33.6186909
  13.4893295  68.9686943  33.6389934   4.4522372  54.8289482  33.3053104
   3.7308957  55.4425450  33.1660577   5.2415627  55.3647247  33.2269750
  14.8949112  66.2749769  35.7555514  13.9479447  66.1555121  35.6833840
  15.2431885  65.3872267  35.8381775   7.2548685  52.1643908  39.5793756
   7.7783087  52.4106205  40.3420065   7.0361018  52.9963943  39.1596893
   2.6515966  54.4347583  27.4464880   2.3228672  53.5544962  27.2639986
   3.0055337  54.3795252  28.3341270  11.8995545  66.0702486  31.9559866
  11.7520508  65.1419193  32.1367436  12.7249039  66.0922576  31.4716941
   5.7657789  54.7220553  27.8140358   6.1053862  55.2506474  27.0918966
   6.2129910  55.0600959  28.5898925  15.5029667  66.8931044  33.0424739
  16.4276214  66.6873906  32.9049190  15.3344970  66.6447446  33.9514080
   8.4601230  53.1057603  37.2643426   8.1198051  52.3065416  37.6664106
   7.7540237  53.4059314  36.6920259   9.1117702  50.1906916  35.7170749
   9.9343771  49.7167394  35.5949639   9.3555766  50.9697400  36.2169435
   7.7525937  53.2195174  26.0133651   8.4734299  53.5976427  25.5097368
   7.1291241  53.9384051  26.1168629  11.8957059  53.9240323  26.9491983
  12.1120674  54.8064961  26.6480811  11.4151127  53.5326537  26.2197625
   6.6356281  56.8826037  33.5262728   6.4900862  57.1966340  34.4187009
   6.1581484  57.5010937  32.9733626   8.4952664  53.8728584  33.5743617
   8.4814232  52.9769678  33.2375915   9.2125092  53.8799248  34.2081903
  10.3478794  54.3065925  35.6196745  10.0896572  55.2282995  35.6181075
   9.8163835  53.9096359  36.3097209  15.2924983  67.4116712  28.3986830
  15.4661861  66.8463134  27.6460683  15.7853874  68.2117607  28.2166320
   1.1101943  59.4231381  36.4650389   0.5655411  60.1991189  36.5970663
   1.9881293  59.7702185  36.3069510   7.8989560  52.7542965  28.8431187
   8.0205471  51.8259611  29.0422075   7.6091602  52.7681651  27.9309503
  10.7680750  50.4397875  31.9797907  10.7902447  50.5037208  31.0249887
  11.1848809  49.6002384  32.1738413  21.1464374  60.1753135  30.0177130
  21.5895520  59.4260460  29.6196253  20.2690885  60.1663271  29.6350862
  16.2800156  66.7283476  25.4983728  16.9751060  67.3490169  25.7171043
  16.6223306  65.8778827  25.7736106   1.8967965  58.5501277  39.3580546
   1.1549701  58.6983913  39.9445176   1.5760709  58.8109543  38.4947295
  18.1791579  64.1783182  27.0271059  18.7042903  64.5170455  26.3020379
  18.0913931  63.2430197  26.8434194   9.8411628  68.0917255  39.1560936
  10.1498754  67.8466402  40.0283635  10.6387110  68.2963894  38.6679806
   9.8632240  70.2455165  31.3866312   9.4237230  69.7531544  32.0799169
  10.6140357  69.7028133  31.1458388   2.3424579  66.4366706  31.3890940
   3.1682598  66.1370478  31.0089584   1.9918631  65.6674328  31.8380729
   7.3106112  65.7893174  33.4588614   6.6886121  65.1263879  33.1590842
   7.9810979  65.8154306  32.7762262   7.3830639  54.2674962  43.0521120
   7.4318795  55.1437085  42.6698890   7.9253153  53.7252355  42.4792763
  17.8685485  64.8116085  42.3322257  17.0781029  64.7940224  41.7926756
  17.6318839  65.3504379  43.0871294  17.9883360  61.6608552  39.6454986
  18.0381365  61.4958559  40.5870508  17.8797283  60.7935811  39.2552866
   6.8719619  64.3397097  26.9347075   7.0207739  65.0232562  26.2813747
   7.6786062  64.3202188  27.4496530  15.2787122  57.6439480  40.9614292
  16.1796985  57.5045945  40.6698290  15.3535097  57.8093935  41.9012470
   9.6129928  55.0206335  39.8067479   8.7433237  55.3139901  39.5350067
   9.8489408  55.6046780  40.5274742  19.4901557  64.0805493  39.8897007
  19.1986365  64.4435474  40.7260468  18.8773688  63.3672502  39.7110339
  20.6897239  61.6458373  32.4099577  21.5244130  62.0848177  32.5737138
  20.8256368  61.1697026  31.5907823  17.7388745  59.2038108  38.3577065
  18.2142867  59.3965754  37.5495917  16.8154310  59.2597294  38.1120449
   4.6272252  60.3662275  27.9408143   4.3818294  59.4624605  28.1388354
   4.7968166  60.3679426  26.9987621  12.3168961  51.2385951  37.3232899
  12.8350905  51.9746978  36.9979388  11.9624094  51.5449945  38.1579658
   3.8967899  56.0990633  25.4394305   3.2037144  56.1734988  24.7834341
   3.6519651  55.3350976  25.9615822  12.5681556  47.6586234  32.8433796
  12.8483309  46.9909423  33.4694222  13.3532163  47.8515330  32.3308459
  10.3715024  66.8345228  24.4058822   9.7988991  67.4535415  23.9529294
  10.9447818  67.3844590  24.9398744  16.4390414  56.0803868  36.5905371
  17.3907837  56.1801966  36.6117595  16.2693864  55.2882137  37.1003455
  14.4604793  53.1659451  36.7764772  13.8654726  53.4464464  36.0811260
  14.1754490  53.6553352  37.5481513  13.5912284  67.1182378  25.5367404
  14.5242957  67.0527940  25.7400280  13.5035497  67.9538645  25.0781937
  16.2200301  66.4348248  22.4971352  16.1413932  66.1008112  23.3907110
  17.0409967  66.9270016  22.4962824  18.9178492  59.3009988  35.7047670
  18.8854812  58.3625988  35.8907354  19.5279115  59.3794024  34.9713495
  10.7561823  58.1706041  21.7474874  11.7020927  58.0412249  21.8163292
  10.3776068  57.4320703  22.2244303  19.0672980  56.0921031  35.7505954
  18.5512029  55.3079488  35.5635882  19.9512929  55.7639748  35.9152473
  16.7283707  49.8362047  31.7101766  16.5308528  49.5277135  32.5945098
  17.3383413  50.5623686  31.8399696  24.7355042  60.3625995  34.8453707
  25.4658430  60.1011283  35.4061411  24.1261987  59.6254716  34.8855775
  22.8170339  58.5033857  35.4428158  22.0903502  58.3689822  34.8344650
  22.4017626  58.8110686  36.2484876  10.6400515  62.2223787  43.2075531
  11.5603525  62.4002386  43.4015578  10.6050098  61.2779832  43.0555231
   8.9404740  56.0956017  21.6829760   8.0336195  55.7989130  21.7592473
   9.2180721  55.7985835  20.8164046   3.6362588  60.1324821  35.8498313
   3.8548598  61.0641929  35.8686346   4.0488362  59.7732796  36.6353116
  10.5566806  50.6392907  27.8374001   9.7467534  50.2939992  28.2129247
  11.2451222  50.3300450  28.4261613  12.4857354  49.7170954  29.4598298
  13.0388392  50.1366407  30.1188321  12.7227440  48.7906702  29.5021254
   8.5090453  55.7058027  45.2401062   8.4087180  56.6552384  45.1713153
   8.2911995  55.3776266  44.3677132   7.7103524  52.9542952  21.8241739
   8.5722688  53.2797851  22.0837556   7.8953869  52.1674448  21.3114805
  15.8636161  51.8271479  28.9676962  15.2834830  52.4856283  28.5855014
  15.5972094  51.0048823  28.5564379  14.3139727  51.2276536  31.1698282
  14.8139506  51.3393071  30.3612601  14.9575335  50.9237589  31.8099091
   8.3721723  59.1355166  44.0566123   7.8888805  59.9355526  44.2630012
   8.4582662  59.1463111  43.1033567   1.6407683  60.9683546  31.9787943
   1.6178371  61.0671233  31.0269826   1.9508319  61.8148697  32.3005109
   4.2995061  63.0259701  36.0934557   5.2538314  62.9943643  36.0264489
   4.1007584  62.5650324  36.9084783   4.8894443  61.5960817  38.6605355
   5.7087332  62.0904895  38.6840192   5.1631250  60.6792785  38.6322922
  14.6461039  53.9871569  28.0233310  13.7586894  54.2721220  27.8053505
  15.0615028  53.8265332  27.1760587  17.9975575  54.0118090  31.7387649
  18.7735965  54.5014543  32.0112266  17.2723709  54.4376144  32.1959519
  20.4348134  54.7245709  32.7961590  21.0292624  54.4841445  32.0854898
  20.5074717  54.0052840  33.4235126   2.6545289  68.5679320  33.1104755
   2.5199757  67.8079721  32.5442753   2.2377352  69.2920220  32.6433544
  13.7904252  63.7516244  22.1181330  14.4940103  63.9566246  22.7338986
  13.0666901  64.3193006  22.3830414  14.6202063  59.5026105  28.2383600
  14.5637264  59.9594656  27.3991233  15.1730405  58.7416790  28.0606443
  18.4306869  55.2915837  29.0633720  18.1743803  54.8912473  29.8941927
  17.8059737  56.0059631  28.9383859  22.7419206  58.0311910  31.5705011
  22.1818764  58.1005099  32.3436573  22.1362710  57.8552895  30.8504507
   5.8114415  69.4648637  33.3223197   5.6946799  70.4094070  33.2201888
   4.9906862  69.1622199  33.7108997  15.6990950  64.1898773  24.1679790
  16.5336554  63.7579971  23.9857265  15.5375293  64.0180787  25.0956685
  15.3536842  60.6930886  25.5336129  15.2985646  60.5275158  24.5924574
  14.7282897  61.4006919  25.6898319  12.6682749  62.9979798  44.8589692
  13.5373909  63.1720450  44.4976327  12.1889501  63.8174215  44.7365422
   8.6632967  50.1938995  25.1121448   8.6511637  51.1380835  25.2689719
   9.5556389  50.0109141  24.8180909   6.8368929  70.1176899  36.5379126
   7.7396176  70.1500509  36.8545621   6.6106299  69.1877350  36.5525462
   8.5922531  68.8707886  33.1989205   7.6418162  68.8709747  33.0853577
   8.8955018  68.1240620  32.6825239  12.4785087  46.7881772  29.3667385
  11.7117483  46.2340259  29.5124067  12.8895792  46.8603641  30.2281536
   4.4826848  53.0766568  43.4572566   5.3458310  52.7203373  43.6675890
   3.9092259  52.7380463  44.1447970  24.3275225  74.7068424  34.2634967
  24.9653635  74.5875171  33.5598307  24.2096068  75.6549268  34.3222919
  21.1364931  74.6595852  34.1996492  20.7983443  74.5436917  33.3117026
  22.0054699  74.2587017  34.1797498  16.9951747  76.5131329  30.1893383
  16.4316612  76.4221266  29.4209670  16.8804142  75.6931233  30.6695875
  21.6184714  75.8130704  40.1582697  21.6073355  75.4183502  39.2863201
  21.7805354  75.0796777  40.7516469  14.5416179  78.0082520  33.0277603
  15.3337471  77.6673345  32.6123902  14.7812829  78.1177495  33.9479756
  22.5751306  80.1802296  25.5007847  21.9239285  80.7656377  25.1141861
  23.3695668  80.7108491  25.5602885  16.5006933  77.2691433  25.8994982
  17.2737809  76.7220421  25.7607858  16.8532332  78.1335683  26.1109443
  18.3391975  78.5967816  39.1061881  18.0481841  79.5013447  38.9908547
  18.9748960  78.6384343  39.8205951  19.2648182  75.9744664  35.6963241
  19.8611754  75.7500687  34.9820204  19.3223154  75.2329410  36.2988689
  18.8373211  73.4284100  23.5313432  19.0898731  72.9065621  22.7696895
  17.8997770  73.2650245  23.6340115  23.8816493  72.4319878  31.3388175
  24.6679583  72.0139301  30.9878592  24.1455198  73.3365970  31.5069823
  24.0526571  77.8692728  26.0376832  23.4172404  77.9427355  26.7497736
  23.7223977  78.4586327  25.3595911  29.2824921  72.3695111  32.2421153
  30.0150092  71.7994328  32.4758983  28.5264276  71.9816712  32.6827659
  18.5569499  75.3312206  25.7337807  18.4405757  74.6557109  26.4018891
  18.6671759  74.8444579  24.9169960  20.9001040  74.7922353  29.4384496
  20.5359247  74.2652974  30.1497417  21.7568156  74.4020822  29.2650981
  26.8050341  66.0816685  36.7015762  26.4733666  66.9512096  36.4776977
  26.2095954  65.7652969  37.3809792  20.5406527  69.8212252  24.4345844
  20.7080930  70.6892489  24.8016315  20.3503696  69.9839534  23.5107134
  23.2981860  78.2829231  36.1011675  22.9982583  79.1854270  35.9927482
  22.9532920  78.0161414  36.9532828  16.7494342  74.7343028  32.1348379
  15.8244838  74.6019242  32.3426071  16.9978755  75.5137247  32.6318322
  26.6979004  70.8011771  33.7809112  25.7895882  70.7327180  33.4867873
  26.6466600  71.2783716  34.6090938  20.5195748  72.2769910  25.4192511
  20.3995373  72.7226961  26.2577992  19.8248336  72.6255228  24.8606049
  14.1103153  74.3776302  32.9692168  14.2395534  74.6310781  33.8831580
  13.4300604  74.9704010  32.6496823  18.2802640  85.0473552  29.0682642
  18.2026670  85.9981377  29.1471123  17.6764284  84.7019424  29.7257569
  20.7719870  72.2201417  41.7244009  19.9953204  72.7795337  41.7146874
  21.4110433  72.7058200  42.2458880  28.5640651  69.0028210  35.5586986
  27.9215031  69.2960743  34.9126781  28.0595579  68.8881130  36.3640183
  26.2180814  72.7491383  26.2472845  27.1298670  72.9818770  26.0720543
  25.7090461  73.3328427  25.6847924  19.0266242  75.0286870  41.2861976
  19.7680927  75.5671914  41.0096800  18.3203228  75.6553159  41.4433528
  24.5021582  77.1716011  39.8834138  24.9104938  76.7298421  39.1388770
  23.7798843  76.5968638  40.1368331  20.8552652  72.1088618  37.2567695
  21.7013847  72.5328031  37.4002344  20.7951290  71.4522242  37.9506258
  24.8250397  77.7317201  33.6386427  24.1959259  77.8962916  32.9362495
  24.4376059  78.1458811  34.4097391  24.0052097  69.7692986  38.9148868
  23.7613029  70.5235046  38.3783144  24.2812028  70.1478334  39.7496116
  23.5616789  68.9249419  34.4962706  22.7001268  69.2230673  34.7879444
  23.5879224  69.1419818  33.5643739  20.3778358  77.4691610  30.9036512
  20.8416704  77.7479313  30.1141134  20.1135157  76.5675054  30.7209603
  17.2702439  77.0163091  33.8416275  17.8403797  77.4450359  33.2033760
  17.8610551  76.7345676  34.5400461  19.3147244  73.5914762  27.7126077
  20.0171288  74.0435806  28.1800003  18.9827873  72.9498581  28.3405970
  17.7627606  72.1826519  42.0877286  17.1326267  72.8642799  42.3212683
  17.6563694  72.0709600  41.1430425  13.0572578  71.8498315  33.0143211
  12.2671632  72.1055843  32.5383321  13.5483826  72.6646652  33.1195251
  27.0736388  79.1903554  35.7648491  27.8953832  78.7883741  35.4831173
  27.0698791  79.0871788  36.7164607  15.0087324  72.2142894  29.9726687
  14.2118487  72.3261588  30.4910183  14.7812916  72.5529546  29.1067578
  20.8392991  78.7387597  37.9209202  20.9037424  79.2008004  38.7567374
  20.1303915  78.1084962  38.0491512  11.3410281  72.1028805  35.4458201
  11.5918320  72.9875815  35.7115777  11.8769830  71.9233407  34.6733293
  20.5541009  80.4055705  27.7888182  20.4186684  81.2507240  28.2173030
  21.0950822  80.6074982  27.0254116  17.0408349  66.4847284  44.4502537
  16.6475294  65.9313483  45.1250182  17.8574489  66.7957863  44.8409055
  14.0070406  77.9231143  28.3616107  14.5194927  78.7174393  28.5121672
  14.6593119  77.2257433  28.2949709  15.8165291  81.0396899  30.4438860
  15.9931920  81.9614864  30.2559844  16.6122125  80.7255318  30.8733240
  19.9576310  67.9005163  42.0422794  20.6986023  68.5012317  41.9627256
  20.1894233  67.1582801  41.4840837  15.1017648  73.0861531  40.3201024
  14.9871163  72.1846788  40.6208123  14.2462165  73.3325228  39.9685840
  22.1809485  81.0279271  41.9188524  21.7373340  80.2415650  41.6009429
  22.8426699  81.2158422  41.2532415  16.9396607  82.5575073  36.4449203
  17.4904032  82.4292136  35.6726197  16.1008083  82.8569962  36.0944096
  24.2790724  81.3082071  39.9469926  24.2609199  82.1290952  39.4550195
  25.2010644  81.1836146  40.1720067  20.7363778  78.8226200  40.7893434
  21.2692114  78.0614489  40.5592742  20.2077859  78.5299852  41.5317588
  23.9033473  63.9286266  36.3187076  23.5597742  64.8187908  36.2426186
  24.2712435  63.7387924  35.4556661  11.9719323  76.2519797  29.1375678
  12.8094545  76.6616805  28.9209386  12.1497591  75.3119239  29.1075872
  23.8683755  73.9194878  24.8259511  23.3530379  74.6899482  25.0647898
  23.5961064  73.2460014  25.4492572  21.4530866  68.7644578  29.8844749
  20.5972463  68.3751429  29.7050388  21.8657818  68.8436539  29.0244535
  22.9830013  66.2990922  34.2836309  22.4794809  66.2621057  33.4704114
  23.2760620  67.2083664  34.3432966  19.2272899  66.3829651  33.2902491
  20.0925896  66.1872460  32.9308380  19.2950408  66.1540003  34.2171847
  23.6570059  71.7921970  26.6519292  23.3520194  72.1068119  27.5029435
  24.6100501  71.8703390  26.6946625  22.1016490  77.9512193  28.3012246
  21.5737852  77.2164953  27.9885483  21.6003993  78.7286869  28.0552214
  16.8335218  68.6131859  30.6618857  17.4078970  68.3907041  29.9292050
  17.4206200  68.6820554  31.4147459  25.8914795  74.5005586  31.4683234
  26.4046677  75.1335578  31.9704944  26.5416019  73.9006782  31.1026594
  17.1604805  70.6436320  24.6814743  16.3242117  70.9811007  25.0024017
  17.0209575  70.5085300  23.7441880  19.1357886  65.4873108  29.3893927
  18.4822298  65.1722125  28.7650542  19.0938360  64.8648849  30.1153750
  20.2469091  75.7692403  21.3047219  19.3396152  75.5381657  21.5038368
  20.7440123  74.9730022  21.4921201  23.1537169  84.4789910  24.2243905
  22.4798868  84.7821607  24.8328863  23.5402991  85.2818991  23.8749362
  22.3695626  71.9755042  33.7141575  21.4518187  72.1969989  33.5563263
  22.7855770  72.0501352  32.8553282  23.1530674  73.3746457  28.8444255
  23.9002493  73.8867855  28.5351377  23.4222263  73.0530510  29.7048648
  21.4257324  75.8704998  25.8271209  20.5168543  75.5864031  25.9243679
  21.4552408  76.2904077  24.9674516  25.6009511  70.4103574  30.8263044
  24.8632268  69.8980960  31.1573287  25.8536285  69.9703955  30.0146321
  25.1009531  81.3188084  30.5312195  25.3932505  81.8793141  29.8124560
  25.6108151  81.6116645  31.2865354  25.7021138  63.1879826  31.4204813
  26.0080015  62.3277189  31.1330728  26.4273743  63.7797446  31.2203807
  11.9945494  73.5910512  29.8086411  11.7969894  72.9979873  29.0837478
  11.4392158  73.2862722  30.5262350  19.9742218  73.4833619  31.9281004
  20.0290828  72.5307455  31.8523481  19.1633420  73.6393058  32.4122303
  21.1233412  77.4113742  23.1659288  20.6852842  76.6949601  22.7064925
  21.8643853  77.6389857  22.6044379  17.9134578  72.1010678  29.6871383
  17.1002444  72.4004849  30.0936575  18.4093572  71.7066367  30.4045866
  20.0643156  82.0968435  31.6205648  20.0219335  82.3229282  30.6914180
  20.9805855  81.8631810  31.7691449  23.5108790  72.5652503  38.5186277
  23.8658177  72.7923976  39.3780743  24.1580921  72.8970880  37.8963532
  17.4048653  69.6729034  35.3032618  18.0448032  69.5317793  34.6055582
  16.5726183  69.3863547  34.9271220  18.1808957  78.9731464  31.4167611
  18.9749555  78.4781785  31.2150186  17.4700649  78.4449327  31.0535316
  23.0003801  81.3549560  35.7679978  23.0540823  81.9240496  36.5357694
  22.1318582  81.5251445  35.4034015  14.4891720  73.1174546  27.4927363
  13.5589308  73.0559002  27.7097326  14.5849192  72.5950499  26.6964005
  14.4077269  69.6429359  30.0805605  14.6684086  70.5574692  29.9714766
  15.2294441  69.1753801  30.2302218  15.8802194  71.0567116  37.2504430
  16.5525248  70.8484478  36.6017078  15.0531981  70.8589202  36.8109662
  21.7827767  67.6829057  39.2670090  21.1355682  68.3819007  39.1734567
  22.5528782  68.1165201  39.6346339  25.1906564  77.9477909  42.3420644
  25.0392071  77.7188461  41.4250727  25.1811244  78.9048511  42.3551989
  21.9591901  75.5209822  37.3266910  22.8883961  75.6720982  37.1535877
  21.5382931  75.6093843  36.4715557  20.7580233  79.5460486  35.0965448
  20.6191318  79.1779271  35.9691386  19.9694829  80.0608126  34.9249406
  21.3528385  84.6469583  26.4390984  21.5280140  84.1757626  27.2536607
  20.6661173  85.2735349  26.6672245  22.3085448  78.9242089  32.4854286
  21.9735280  78.8842859  33.3811935  21.8089393  78.2586805  32.0124696
  16.2829692  74.3309719  38.0106867  16.1449490  73.5989958  38.6118406
  17.1934615  74.2418619  37.7291054  25.2444639  76.2698123  22.7591345
  24.6273810  75.5444952  22.6624398  24.7761128  77.0307484  22.4158419
  18.9111992  74.0429678  37.4990546  19.6211611  73.4022871  37.4577165
  18.8681301  74.2942573  38.4216727  26.8998771  80.9797032  40.4197126
  26.8411317  80.2956252  39.7527709  27.3018289  81.7216022  39.9677752
  17.6240926  71.0294896  39.3186186  17.0878283  70.5785635  39.9707782
  17.0357635  71.1640805  38.5756650  15.9189470  87.7958946  33.2130844
  16.1586068  88.4277470  33.8909863  15.0758666  87.4446986  33.4996204
  17.0343185  70.4883548  21.8812650  16.1572652  70.3672348  21.5174896
  17.5100938  69.6969626  21.6291538   8.5545325  75.2760707  31.9754157
   9.2416365  74.9622437  31.3875172   8.3993454  76.1802072  31.7021408
  13.3580048  70.1650904  36.4039180  13.2738236  69.5576574  35.6689590
  12.5362754  70.6559922  36.4048677  20.4317332  83.6038068  35.6172348
  20.3587503  84.4093040  36.1291653  19.9894725  83.8030034  34.7920370
  20.2207111  82.8409838  29.1275170  19.4374633  83.3831518  29.2213395
  20.9199857  83.3583818  29.5269411  23.5303761  68.6504468  31.7709375
  24.0272461  67.8974430  31.4510446  22.7590743  68.6868784  31.2052585
  22.8916015  83.5024902  37.7730507  23.6043987  84.1372367  37.7006409
  22.4006044  83.5988768  36.9570509  24.6133542  77.4076155  29.3447799
  23.6789821  77.5277617  29.1752503  24.7910211  76.5048622  29.0807809
  20.1138730  70.7921851  31.4981060  19.7436518  70.2392891  32.1861966
  20.6097823  70.1879984  30.9456060  17.9427929  81.2519346  38.5936078
  18.6437388  81.8855828  38.7465472  17.4723044  81.5934077  37.8331717
  25.9722756  65.6174061  33.9188734  25.0585836  65.8478288  34.0870941
  26.4015858  65.7012505  34.7702767  25.7429215  73.8063953  36.4188628
  25.0900665  74.0539860  35.7641081  26.1209595  72.9928091  36.0851106
  22.7036389  83.8423646  30.5216799  22.8858783  83.0245302  30.9844551
  23.5269375  84.0591338  30.0841689  23.0378554  82.7691831  27.7831847
  23.5666321  82.2584286  27.1702009  23.3006774  82.4534361  28.6477380
  21.7916788  74.5483764  42.9054665  21.1157425  74.4477893  43.5757041
  22.6144422  74.3922978  43.3690663  13.5395647  80.7855701  35.5267181
  14.1249084  80.0399388  35.6595085  13.3420485  81.0959657  36.4103845
  16.3934302  83.8206948  30.5429623  15.7244677  84.3053076  30.0593663
  16.2547172  84.0676168  31.4573002   8.1313302  73.3561301  34.2471624
   8.1697401  72.8224891  35.0408742   7.6253594  72.8296506  33.6282601
  20.5339571  85.8550691  37.1412281  21.0857879  86.0182313  37.9061367
  20.8745764  86.4455129  36.4692306  15.5104064  68.2025841  37.7434166
  15.5745390  69.0640672  37.3311564  15.4471184  67.5899843  37.0106525
  14.9856336  70.2748974  41.3907200  15.6128375  69.8926051  42.0044725
  14.1284255  70.0563176  41.7562893  25.3850445  80.6811949  42.9960936
  25.9290349  81.2941907  42.5015891  24.8037290  81.2391527  43.5127949
  11.7621879  72.0825403  27.3225555  12.0575320  71.1736081  27.2692609
  10.8609915  72.0613142  27.0006558  23.6707958  83.8032667  34.1275964
  23.5459097  83.0022407  33.6186909  24.3287049  84.2978860  33.6389934
  15.2916126  70.1581399  33.3053104  14.5702712  70.7717367  33.1660577
  16.0809382  70.6939164  33.2269750  25.7342866  81.6041687  35.7555514
  24.7873202  81.4847038  35.6833840  26.0825639  80.7164185  35.8381775
  18.0942440  67.4935826  39.5793756  18.6176842  67.7398123  40.3420065
  17.8754773  68.3255861  39.1596893  13.4909721  69.7639501  27.4464880
  13.1622427  68.8836880  27.2639986  13.8449091  69.7087169  28.3341270
  22.7389300  81.3994403  31.9559866  22.5914262  80.4711111  32.1367436
  23.5642793  81.4214494  31.4716941  16.6051544  70.0512470  27.8140358
  16.9447616  70.5798392  27.0918966  17.0523664  70.3892877  28.5898925
  26.3423421  82.2222962  33.0424739  27.2669969  82.0165823  32.9049190
  26.1738725  81.9739363  33.9514080  19.2994985  68.4349521  37.2643426
  18.9591805  67.6357334  37.6664106  18.5933991  68.7351232  36.6920259
  19.9511457  65.5198834  35.7170749  20.7737526  65.0459312  35.5949639
  20.1949520  66.2989317  36.2169435  18.5919691  68.5487092  26.0133651
  19.3128054  68.9268345  25.5097368  17.9684995  69.2675969  26.1168629
  22.7350814  69.2532241  26.9491983  22.9514428  70.1356879  26.6480811
  22.2544881  68.8618454  26.2197625  17.4750035  72.2117954  33.5262728
  17.3294616  72.5258257  34.4187009  16.9975239  72.8302855  32.9733626
  19.3346418  69.2020502  33.5743617  19.3207987  68.3061595  33.2375915
  20.0518846  69.2091166  34.2081903  21.1872549  69.6357842  35.6196745
  20.9290327  70.5574913  35.6181075  20.6557589  69.2388277  36.3097209
  26.1318738  82.7408629  28.3986830  26.3055615  82.1755052  27.6460683
  26.6247629  83.5409524  28.2166320  11.9495697  74.7523299  36.4650389
  11.4049166  75.5283107  36.5970663  12.8275047  75.0994103  36.3069510
  18.7383314  68.0834882  28.8431187  18.8599225  67.1551529  29.0422075
  18.4485357  68.0973568  27.9309503  21.6074505  65.7689793  31.9797907
  21.6296201  65.8329126  31.0249887  22.0242564  64.9294302  32.1738413
  27.1193910  82.0575394  25.4983728  27.8144815  82.6782087  25.7171043
  27.4617060  81.2070745  25.7736106  12.7361719  73.8793195  39.3580546
  11.9943455  74.0275830  39.9445176  12.4154464  74.1401460  38.4947295
  20.6805382  83.4209173  39.1560936  20.9892508  83.1758320  40.0283635
  21.4780864  83.6255812  38.6679806  20.7025994  85.5747083  31.3866312
  20.2630984  85.0823461  32.0799169  21.4534111  85.0320050  31.1458388
  13.1818333  81.7658624  31.3890940  14.0076353  81.4662395  31.0089584
  12.8312385  80.9966246  31.8380729  18.1499866  81.1185092  33.4588614
  17.5279875  80.4555797  33.1590842  18.8204733  81.1446224  32.7762262
  11.3826938  79.6844950  32.3479874  10.5458846  79.2567124  32.1663875
  11.3550584  79.8777393  33.2850665  18.2224394  69.5966880  43.0521120
  18.2712549  70.4729003  42.6698890  18.7646908  69.0544273  42.4792763
  17.7113373  79.6689015  26.9347075  17.8601493  80.3524480  26.2813747
  18.5179817  79.6494105  27.4496530  20.4523682  70.3498252  39.8067479
  19.5826992  70.6431818  39.5350067  20.6883163  70.9338697  40.5274742
  15.4666006  75.6954193  27.9408143  15.2212048  74.7916523  28.1388354
  15.6361921  75.6971343  26.9987621  23.1562716  66.5677869  37.3232899
  23.6744660  67.3038896  36.9979388  22.8017849  66.8741862  38.1579658
  14.7361654  71.4282550  25.4394305  14.0430899  71.5026905  24.7834341
  14.4913406  70.6642894  25.9615822  23.4075310  62.9878152  32.8433796
  23.6877064  62.3201341  33.4694222  24.1925917  63.1807247  32.3308459
  21.2108779  82.1637146  24.4058822  20.6382746  82.7827333  23.9529294
  21.7841572  82.7136507  24.9398744  25.2998548  68.4951369  36.7764772
  24.7048480  68.7756382  36.0811260  25.0148245  68.9845270  37.5481513
  24.4306038  82.4474296  25.5367404  25.3636712  82.3819857  25.7400280
  24.3429251  83.2830563  25.0781937  27.0594055  81.7640166  22.4971352
  26.9807687  81.4300030  23.3907110  27.8803722  82.2561934  22.4962824
  21.5955577  73.4997958  21.7474874  22.5414682  73.3704166  21.8163292
  21.2169822  72.7612620  22.2244303  27.5677462  65.1653964  31.7101766
  27.3702283  64.8569053  32.5945098  28.1777167  65.8915603  31.8399696
  21.4794270  77.5515704  43.2075531  22.3997279  77.7294303  43.4015578
  21.4443853  76.6071750  43.0555231  19.7798494  71.4247935  21.6829760
  18.8729950  71.1281047  21.7592473  20.0574475  71.1277753  20.8164046
  10.6976435  72.7454298  32.1328806  10.3779219  71.8919606  31.8403180
  10.1509863  72.9602876  32.8886773  14.4756342  75.4616739  35.8498313
  14.6942352  76.3933847  35.8686346  14.8882116  75.1024714  36.6353116
  21.3960560  65.9684824  27.8374001  20.5861288  65.6231909  28.2129247
  22.0844977  65.6592368  28.4261613  23.3251108  65.0462871  29.4598298
  23.8782147  65.4658325  30.1188321  23.5621195  64.1198619  29.5021254
  19.3484208  71.0349945  45.2401062  19.2480934  71.9844302  45.1713153
  19.1305750  70.7068184  44.3677132  18.5497279  68.2834870  21.8241739
  19.4116443  68.6089768  22.0837556  18.7347623  67.4966366  21.3114805
  10.5664695  76.3657210  34.1021928   9.8728166  75.9511162  33.5891882
  11.3137686  76.4077746  33.5055347  26.7029915  67.1563396  28.9676962
  26.1228584  67.8148200  28.5855014  26.4365848  66.3340741  28.5564379
  25.1533482  66.5568454  31.1698282  25.6533260  66.6684989  30.3612601
  25.7969090  66.2529507  31.8099091  19.2115478  74.4647084  44.0566123
  18.7282559  75.2647444  44.2630012  19.2976417  74.4755029  43.1033567
  12.4801437  76.2975463  31.9787943  12.4572125  76.3963151  31.0269826
  12.7902074  77.1440614  32.3005109  15.1388815  78.3551618  36.0934557
  16.0932069  78.3235561  36.0264489  14.9401339  77.8942242  36.9084783
  15.7288197  76.9252734  38.6605355  16.5481086  77.4196813  38.6840192
  16.0025005  76.0084703  38.6322922  25.4854793  69.3163487  28.0233310
  24.5980648  69.6013137  27.8053505  25.9008782  69.1557250  27.1760587
  28.8369330  69.3410008  31.7387649  29.6129720  69.8306460  32.0112266
  28.1117464  69.7668062  32.1959519  13.4939044  83.8971238  33.1104755
  13.3593512  83.1371639  32.5442753  13.0771106  84.6212138  32.6433544
  24.6298007  79.0808161  22.1181330  25.3333857  79.2858164  22.7338986
  23.9060656  79.6484923  22.3830414  25.4595817  74.8318023  28.2383600
  25.4031019  75.2886574  27.3991233  26.0124160  74.0708707  28.0606443
  29.2700623  70.6207755  29.0633720  29.0137557  70.2204390  29.8941927
  28.6453491  71.3351549  28.9383859  16.6508170  84.7940555  33.3223197
  16.5340554  85.7385987  33.2201888  15.8300616  84.4914116  33.7108997
  26.5384704  79.5190691  24.1679790  27.3730308  79.0871889  23.9857265
  26.3769047  79.3472704  25.0956685  26.1930596  76.0222804  25.5336129
  26.1379400  75.8567075  24.5924574  25.5676652  76.7298837  25.6898319
  10.9823111  71.2590868  39.3597552  11.6281975  70.7489822  39.8484777
  10.7740263  71.9959550  39.9340977  23.5076504  78.3271716  44.8589692
  24.3767663  78.5012368  44.4976327  23.0283255  79.1466133  44.7365422
  19.5026722  65.5230913  25.1121448  19.4905392  66.4672753  25.2689719
  20.3950144  65.3401058  24.8180909  17.6762684  85.4468817  36.5379126
  18.5789931  85.4792427  36.8545621  17.4500054  84.5169268  36.5525462
  19.4316286  84.1999803  33.1989205  18.4811917  84.2001665  33.0853577
  19.7348772  83.4532538  32.6825239  23.3178841  62.1173690  29.3667385
  22.5511237  61.5632176  29.5124067  23.7289546  62.1895558  30.2281536
  15.3220602  68.4058485  43.4572566  16.1852064  68.0495290  43.6675890
  14.7486013  68.0672380  44.1447970  27.8345501  91.8423246  30.1893383
  27.2710366  91.7513183  29.4209670  27.7197896  91.0223151  30.6695875
  25.3809933  93.3374438  33.0277603  26.1731225  92.9965263  32.6123902
  25.6206583  93.4469413  33.9479756  33.4145060  95.5094214  25.5007847
  32.7633040  96.0948294  25.1141861  34.2089423  96.0400409  25.5602885
  27.3400687  92.5983351  25.8994982  28.1131563  92.0512338  25.7607858
  27.6926086  93.4627600  26.1109443  29.1785730  93.9259733  39.1061881
  28.8875596  94.8305364  38.9908547  29.8142714  93.9676261  39.8205951
  30.1041937  91.3036582  35.6963241  30.7005509  91.0792604  34.9820204
  30.1616908  90.5621327  36.2988689  29.6766965  88.7576017  23.5313432
  29.9292486  88.2357539  22.7696895  28.7391524  88.5942163  23.6340115
  34.8920325  93.1984646  26.0376832  34.2566158  93.2719272  26.7497736
  34.5617732  93.7878245  25.3595911  29.3963254  90.6604123  25.7337807
  29.2799512  89.9849027  26.4018891  29.5065514  90.1736497  24.9169960
  31.7394795  90.1214270  29.4384496  31.3753002  89.5944891  30.1497417
  32.5961911  89.7312739  29.2650981  31.3800282  85.1504170  24.4345844
  31.5474684  86.0184406  24.8016315  31.1897451  85.3131452  23.5107134
  27.5888096  90.0634946  32.1348379  26.6638593  89.9311160  32.3426071
  27.8372510  90.8429165  32.6318322  31.3589503  87.6061828  25.4192511
  31.2389128  88.0518878  26.2577992  30.6642091  87.9547145  24.8606049
  24.9496907  89.7068219  32.9692168  25.0789289  89.9602698  33.8831580
  24.2694359  90.2995927  32.6496823  29.1196395 100.3765469  29.0682642
  29.0420424 101.3273294  29.1471123  28.5158038 100.0311342  29.7257569
  29.8659997  90.3578788  41.2861976  30.6074681  90.8963832  41.0096800
  29.1596982  90.9845077  41.4433528  31.2172113  92.7983527  30.9036512
  31.6810458  93.0771230  30.1141134  30.9528911  91.8966972  30.7209603
  28.1096194  92.3455009  33.8416275  28.6797551  92.7742277  33.2033760
  28.7004306  92.0637593  34.5400461  30.1540999  88.9206680  27.7126077
  30.8565042  89.3727723  28.1800003  29.8221627  88.2790498  28.3405970
  28.6021360  87.5118436  42.0877286  27.9720021  88.1934717  42.3212683
  28.4957448  87.4001518  41.1430425  23.8966333  87.1790232  33.0143211
  23.1065387  87.4347761  32.5383321  24.3877580  87.9938570  33.1195251
  25.8481078  87.5434812  29.9726687  25.0512242  87.6553506  30.4910183
  25.6206671  87.8821464  29.1067578  31.6786746  94.0679515  37.9209202
  31.7431178  94.5299922  38.7567374  30.9697670  93.4376880  38.0491512
  22.1804036  87.4320723  35.4458201  22.4312074  88.3167733  35.7115777
  22.7163584  87.2525324  34.6733293  31.3934764  95.7347622  27.7888182
  31.2580438  96.5799158  28.2173030  31.9344576  95.9366900  27.0254116
  27.8802103  81.8139202  44.4502537  27.4869049  81.2605401  45.1250182
  28.6968244  82.1249781  44.8409055  24.8464161  93.2523060  28.3616107
  25.3588682  94.0466311  28.5121672  25.4986874  92.5549351  28.2949709
  26.6559046  96.3688817  30.4438860  26.8325674  97.2906781  30.2559844
  27.4515879  96.0547236  30.8733240  30.7970064  83.2297081  42.0422794
  31.5379778  83.8304234  41.9627256  31.0287987  82.4874719  41.4840837
  25.9411402  88.4153448  40.3201024  25.8264917  87.5138706  40.6208123
  25.0855920  88.6617145  39.9685840  33.0203240  96.3571189  41.9188524
  32.5767094  95.5707567  41.6009429  33.6820454  96.5450339  41.2532415
  27.7790361  97.8866990  36.4449203  28.3297786  97.7584054  35.6726197
  26.9401837  98.1861879  36.0944096  35.1184478  96.6373989  39.9469926
  35.1002953  97.4582870  39.4550195  36.0404398  96.5128064  40.1720067
  31.5757532  94.1518118  40.7893434  32.1085869  93.3906406  40.5592742
  31.0471613  93.8591770  41.5317588  22.8113078  91.5811715  29.1375678
  23.6488300  91.9908723  28.9209386  22.9891345  90.6411157  29.1075872
  32.9410245  93.2804111  28.3012246  32.4131606  92.5456870  27.9885483
  32.4397748  94.0578787  28.0552214  27.6728973  83.9423777  30.6618857
  28.2472724  83.7198958  29.9292050  28.2599955  84.0112471  31.4147459
  27.9998560  85.9728238  24.6814743  27.1635872  86.3102924  25.0024017
  27.8603329  85.8377218  23.7441880  31.0862845  91.0984321  21.3047219
  30.1789907  90.8673574  21.5038368  31.5833877  90.3021940  21.4921201
  33.9930924  99.8081828  24.2243905  33.3192623 100.1113525  24.8328863
  34.3796746 100.6110908  23.8749362  32.2651079  91.1996916  25.8271209
  31.3562298  90.9155949  25.9243679  32.2946162  91.6195994  24.9674516
  35.9403285  96.6480002  30.5312195  36.2326260  97.2085059  29.8124560
  36.4501906  96.9408563  31.2865354  22.8339249  88.9202430  29.8086411
  22.6363649  88.3271791  29.0837478  22.2785913  88.6154640  30.5262350
  30.8135973  88.8125536  31.9281004  30.8684582  87.8599373  31.8523481
  30.0027175  88.9684975  32.4122303  31.9627166  92.7405659  23.1659288
  31.5246596  92.0241518  22.7064925  32.7037607  92.9681774  22.6044379
  28.7528332  87.4302596  29.6871383  27.9396198  87.7296767  30.0936575
  29.2487327  87.0358285  30.4045866  30.9036910  97.4260353  31.6205648
  30.8613089  97.6521199  30.6914180  31.8199609  97.1923728  31.7691449
  28.2442407  85.0020952  35.3032618  28.8841787  84.8609711  34.6055582
  27.4119938  84.7155465  34.9271220  29.0202711  94.3023382  31.4167611
  29.8143310  93.8073702  31.2150186  28.3094404  93.7741245  31.0535316
  33.8397556  96.6841478  35.7679978  33.8934578  97.2532414  36.5357694
  32.9712337  96.8543363  35.4034015  25.3285475  88.4466464  27.4927363
  24.3983063  88.3850919  27.7097326  25.4242947  87.9242417  26.6964005
  25.2471024  84.9721277  30.0805605  25.5077841  85.8866610  29.9714766
  26.0688196  84.5045719  30.2302218  26.7195949  86.3859034  37.2504430
  27.3919002  86.1776396  36.6017078  25.8925736  86.1881120  36.8109662
  31.5973987  94.8752404  35.0965448  31.4585073  94.5071188  35.9691386
  30.8088583  95.3900043  34.9249406  32.1922139  99.9761500  26.4390984
  32.3673895  99.5049544  27.2536607  31.5054927 100.6027267  26.6672245
  33.1479202  94.2534007  32.4854286  32.8129035  94.2134777  33.3811935
  32.6483148  93.5878723  32.0124696  27.1223446  89.6601637  38.0106867
  26.9843244  88.9281876  38.6118406  28.0328370  89.5710537  37.7291054
  28.4634681  86.3586814  39.3186186  27.9272038  85.9077552  39.9707782
  27.8751389  86.4932723  38.5756650  26.7583224 103.1250863  33.2130844
  26.9979823 103.7569387  33.8909863  25.9152421 102.7738903  33.4996204
  27.8736940  85.8175465  21.8812650  26.9966406  85.6964266  21.5174896
  28.3494693  85.0261544  21.6291538  19.3939080  90.6052625  31.9754157
  20.0810120  90.2914355  31.3875172  19.2387209  91.5093990  31.7021408
  24.1973802  85.4942822  36.4039180  24.1131991  84.8868491  35.6689590
  23.3756509  85.9851840  36.4048677  31.2711086  98.9329986  35.6172348
  31.1981258  99.7384957  36.1291653  30.8288479  99.1321952  34.7920370
  31.0600866  98.1701756  29.1275170  30.2768388  98.7123436  29.2213395
  31.7593611  98.6875735  29.5269411  33.7309770  98.8316820  37.7730507
  34.4437742  99.4664285  37.7006409  33.2399798  98.9280686  36.9570509
  35.4527297  92.7368072  29.3447799  34.5183575  92.8569535  29.1752503
  35.6303965  91.8340539  29.0807809  30.9532485  86.1213768  31.4981060
  30.5830272  85.5684809  32.1861966  31.4491577  85.5171902  30.9456060
  28.7821683  96.5811263  38.5936078  29.4831143  97.2147746  38.7465472
  28.3116798  96.9225995  37.8331717  36.9076079  94.9229213  26.8783985
  37.1835923  94.8085808  27.7877859  36.0380578  94.5246698  26.8396158
  33.5430143  99.1715564  30.5216799  33.7252538  98.3537220  30.9844551
  34.3663129  99.3883256  30.0841689  33.8772309  98.0983749  27.7831847
  34.4060075  97.5876204  27.1702009  34.1400528  97.7826279  28.6477380
  24.3789401  96.1147618  35.5267181  24.9642838  95.3691306  35.6595085
  24.1814240  96.4251575  36.4103845  27.2328057  99.1498866  30.5429623
  26.5638432  99.6344993  30.0593663  27.0940926  99.3968086  31.4573002
  18.9707056  88.6853218  34.2471624  19.0091156  88.1516809  35.0408742
  18.4647349  88.1588424  33.6282601  31.3733325 101.1842609  37.1412281
  31.9251633 101.3474231  37.9061367  31.7139519 101.7747047  36.4692306
  26.3497818  83.5317759  37.7434166  26.4139145  84.3932590  37.3311564
  26.2864939  82.9191761  37.0106525  25.8250091  85.6040891  41.3907200
  26.4522130  85.2217969  42.0044725  24.9678010  85.3855093  41.7562893
  36.2244200  96.0103867  42.9960936  36.7684103  96.6233825  42.5015891
  35.6431044  96.5683445  43.5127949  22.6015634  87.4117321  27.3225555
  22.8969075  86.5027999  27.2692609  21.7003669  87.3905060  27.0006558
  34.5101712  99.1324585  34.1275964  34.3852852  98.3314325  33.6186909
  35.1680804  99.6270778  33.6389934  26.1309881  85.4873317  33.3053104
  25.4096466  86.1009285  33.1660577  26.9203136  86.0231082  33.2269750
  28.9336194  82.8227744  39.5793756  29.4570596  83.0690040  40.3420065
  28.7148527  83.6547778  39.1596893  24.3303475  85.0931418  27.4464880
  24.0016181  84.2128797  27.2639986  24.6842846  85.0379087  28.3341270
  33.5783054  96.7286321  31.9559866  33.4308017  95.8003028  32.1367436
  34.4036548  96.7506412  31.4716941  27.4445298  85.3804388  27.8140358
  27.7841371  85.9090309  27.0918966  27.8917419  85.7184794  28.5898925
  37.1817176  97.5514880  33.0424739  38.1063723  97.3457741  32.9049190
  37.0132479  97.3031281  33.9514080  29.4313446  83.8779010  26.0133651
  30.1521808  84.2560262  25.5097368  28.8078750  84.5967886  26.1168629
  28.3143790  87.5409872  33.5262728  28.1688371  87.8550175  34.4187009
  27.8368993  88.1594772  32.9733626  30.1740173  84.5312420  33.5743617
  30.1601741  83.6353513  33.2375915  30.8912601  84.5383084  34.2081903
  36.9712492  98.0700547  28.3986830  37.1449370  97.5046970  27.6460683
  37.4641383  98.8701442  28.2166320  22.7889452  90.0815216  36.4650389
  22.2442920  90.8575024  36.5970663  23.6668802  90.4286021  36.3069510
  37.9587665  97.3867312  25.4983728  38.6538569  98.0074004  25.7171043
  38.3010815  96.5362663  25.7736106  23.5755474  89.2085113  39.3580546
  22.8337210  89.3567748  39.9445176  23.2548218  89.4693378  38.4947295
  31.5199136  98.7501091  39.1560936  31.8286263  98.5050238  40.0283635
  32.3174619  98.9547729  38.6679806  31.5419749 100.9039000  31.3866312
  31.1024739 100.4115379  32.0799169  32.2927866 100.3611968  31.1458388
  24.0212088  97.0950541  31.3890940  24.8470107  96.7954313  31.0089584
  23.6706140  96.3258164  31.8380729  28.9893621  96.4477009  33.4588614
  28.3673630  95.7847714  33.1590842  29.6598488  96.4738141  32.7762262
  22.2220693  95.0136868  32.3479874  21.3852601  94.5859042  32.1663875
  22.1944338  95.2069311  33.2850665  29.0618148  84.9258797  43.0521120
  29.1106304  85.8020920  42.6698890  29.6040662  84.3836191  42.4792763
  28.5507128  94.9980933  26.9347075  28.6995248  95.6816397  26.2813747
  29.3573571  94.9786023  27.4496530  26.3059761  91.0246110  27.9408143
  26.0605803  90.1208440  28.1388354  26.4755675  91.0263261  26.9987621
  25.5755408  86.7574468  25.4394305  24.8824653  86.8318823  24.7834341
  25.3307160  85.9934812  25.9615822  32.0502533  97.4929063  24.4058822
  31.4776500  98.1119250  23.9529294  32.6235327  98.0428425  24.9398744
  35.2699793  97.7766213  25.5367404  36.2030466  97.7111775  25.7400280
  35.1823006  98.6122480  25.0781937  37.8987810  97.0932084  22.4971352
  37.8201441  96.7591947  23.3907110  38.7197476  97.5853852  22.4962824
  32.4349332  88.8289876  21.7474874  33.3808436  88.6996084  21.8163292
  32.0563577  88.0904538  22.2244303  32.3188024  92.8807622  43.2075531
  33.2391034  93.0586221  43.4015578  32.2837607  91.9363667  43.0555231
  30.6192249  86.7539852  21.6829760  29.7123704  86.4572965  21.7592473
  30.8968230  86.4569670  20.8164046  21.5370189  88.0746216  32.1328806
  21.2172974  87.2211524  31.8403180  20.9903617  88.2894794  32.8886773
  25.3150097  90.7908657  35.8498313  25.5336106  91.7225765  35.8686346
  25.7275871  90.4316631  36.6353116  30.1877962  86.3641863  45.2401062
  30.0874689  87.3136220  45.1713153  29.9699504  86.0360101  44.3677132
  29.3891033  83.6126788  21.8241739  30.2510197  83.9381686  22.0837556
  29.5741378  82.8258284  21.3114805  21.4058449  91.6949127  34.1021928
  20.7121921  91.2803080  33.5891882  22.1531440  91.7369664  33.5055347
  30.0509232  89.7939001  44.0566123  29.5676314  90.5939362  44.2630012
  30.1370171  89.8046946  43.1033567  23.3195192  91.6267381  31.9787943
  23.2965880  91.7255068  31.0269826  23.6295828  92.4732532  32.3005109
  25.9782570  93.6843536  36.0934557  26.9325823  93.6527478  36.0264489
  25.7795093  93.2234160  36.9084783  26.5681952  92.2544652  38.6605355
  27.3874841  92.7488731  38.6840192  26.8418759  91.3376620  38.6322922
  24.3332798  99.2263156  33.1104755  24.1987266  98.4663556  32.5442753
  23.9164861  99.9504055  32.6433544  35.4691761  94.4100079  22.1181330
  36.1727611  94.6150082  22.7338986  34.7454410  94.9776841  22.3830414
  27.4901924 100.1232473  33.3223197  27.3734308 101.0677905  33.2201888
  26.6694371  99.8206034  33.7108997  37.3778459  94.8482608  24.1679790
  38.2124063  94.4163807  23.9857265  37.2162802  94.6764622  25.0956685
  21.8216866  86.5882786  39.3597552  22.4675730  86.0781740  39.8484777
  21.6134017  87.3251468  39.9340977  34.3470258  93.6563633  44.8589692
  35.2161418  93.8304286  44.4976327  33.8677010  94.4758050  44.7365422
  30.3420476  80.8522831  25.1121448  30.3299146  81.7964671  25.2689719
  31.2343898  80.6692976  24.8180909  28.5156438 100.7760734  36.5379126
  29.4183685 100.8084345  36.8545621  28.2893808  99.8461185  36.5525462
  30.2710040  99.5291721  33.1989205  29.3205671  99.5293583  33.0853577
  30.5742527  98.7824456  32.6825239  26.1614357  83.7350403  43.4572566
  27.0245818  83.3787208  43.6675890  25.5879768  83.3964298  44.1447970
  46.0062734 105.3652259  34.2634967  46.6441144 105.2459007  33.5598307
  45.8883577 106.3133103  34.3222919  42.8152440 105.3179688  34.1996492
  42.4770952 105.2020752  33.3117026  43.6842208 104.9170853  34.1797498
  38.6739256 107.1715164  30.1893383  38.1104121 107.0805101  29.4209670
  38.5591651 106.3515068  30.6695875  43.2972223 106.4714539  40.1582697
  43.2860864 106.0767338  39.2863201  43.4592863 105.7380612  40.7516469
  36.2203688 108.6666356  33.0277603  37.0124980 108.3257180  32.6123902
  36.4600338 108.7761331  33.9479756  44.2538815 110.8386132  25.5007847
  43.6026794 111.4240212  25.1141861  45.0483177 111.3692327  25.5602885
  38.1794442 107.9275269  25.8994982  38.9525318 107.3804256  25.7607858
  38.5319841 108.7919518  26.1109443  40.0179484 109.2551651  39.1061881
  39.7269350 110.1597282  38.9908547  40.6536469 109.2968179  39.8205951
  40.9435691 106.6328500  35.6963241  41.5399263 106.4084522  34.9820204
  41.0010663 105.8913245  36.2988689  40.5160720 104.0867935  23.5313432
  40.7686240 103.5649456  22.7696895  39.5785279 103.9234080  23.6340115
  45.5604002 103.0903713  31.3388175  46.3467092 102.6723136  30.9878592
  45.8242707 103.9949805  31.5069823  45.7314080 108.5276564  26.0376832
  45.0959913 108.6011190  26.7497736  45.4011486 109.1170162  25.3595911
  50.9612429 103.0278946  32.2421153  51.6937601 102.4578163  32.4758983
  50.2051785 102.6400547  32.6827659  40.2357008 105.9896041  25.7337807
  40.1193266 105.3140944  26.4018891  40.3459268 105.5028415  24.9169960
  42.5788549 105.4506188  29.4384496  42.2146756 104.9236809  30.1497417
  43.4355665 105.0604657  29.2650981  42.2194036 100.4796088  24.4345844
  42.3868439 101.3476324  24.8016315  42.0291205 100.6423369  23.5107134
  44.9769369 108.9413067  36.1011675  44.6770092 109.8438105  35.9927482
  44.6320429 108.6745250  36.9532828  38.4281851 105.3926863  32.1348379
  37.5032347 105.2603078  32.3426071  38.6766264 106.1721083  32.6318322
  48.3766513 101.4595607  33.7809112  47.4683390 101.3911015  33.4867873
  48.3254109 101.9367552  34.6090938  42.1983257 102.9353745  25.4192511
  42.0782882 103.3810796  26.2577992  41.5035845 103.2839063  24.8606049
  35.7890662 105.0360137  32.9692168  35.9183043 105.2894616  33.8831580
  35.1088113 105.6287845  32.6496823  42.4507379 102.8785252  41.7244009
  41.6740713 103.4379172  41.7146874  43.0897942 103.3642035  42.2458880
  50.2428160  99.6612045  35.5586986  49.6002540  99.9544578  34.9126781
  49.7383088  99.5464966  36.3640183  47.8968323 103.4075218  26.2472845
  48.8086179 103.6402605  26.0720543  47.3877970 103.9912263  25.6847924
  40.7053751 105.6870706  41.2861976  41.4468436 106.2255750  41.0096800
  39.9990737 106.3136994  41.4433528  46.1809091 107.8299846  39.8834138
  46.5892447 107.3882257  39.1388770  45.4586352 107.2552474  40.1368331
  42.5340161 102.7672453  37.2567695  43.3801356 103.1911867  37.4002344
  42.4738799 102.1106077  37.9506258  46.5037906 108.3901037  33.6386427
  45.8746768 108.5546751  32.9362495  46.1163568 108.8042646  34.4097391
  50.3827137 109.3255475  30.9930791  49.6978176 109.7054376  30.4427824
  50.4670987 109.9350801  31.7262738  47.6378069 106.9715434  37.5926134
  47.8494964 107.6147194  36.9160515  47.5907817 106.1377750  37.1248064
  45.2404298  99.5833254  34.4962706  44.3788777  99.8814508  34.7879444
  45.2666733  99.8003653  33.5643739  42.0565867 108.1275445  30.9036512
  42.5204213 108.4063148  30.1141134  41.7922666 107.2258889  30.7209603
  38.9489948 107.6746926  33.8416275  39.5191306 108.1034195  33.2033760
  39.5398060 107.3929511  34.5400461  40.9934753 104.2498597  27.7126077
  41.6958797 104.7019641  28.1800003  40.6615382 103.6082416  28.3405970
  39.4415115 102.8410354  42.0877286  38.8113776 103.5226635  42.3212683
  39.3351203 102.7293435  41.1430425  34.7360087 102.5082150  33.0143211
  33.9459141 102.7639678  32.5383321  35.2271335 103.3230488  33.1195251
  48.7523897 109.8487389  35.7648491  49.5741341 109.4467576  35.4831173
  48.7486300 109.7455623  36.7164607  36.6874833 102.8726729  29.9726687
  35.8905996 102.9845423  30.4910183  36.4600425 103.2113381  29.1067578
  42.5180500 109.3971432  37.9209202  42.5824933 109.8591840  38.7567374
  41.8091424 108.7668797  38.0491512  33.0197790 102.7612640  35.4458201
  33.2705829 103.6459650  35.7115777  33.5557339 102.5817242  34.6733293
  56.8429890 106.1926138  32.1133463  56.0893598 105.6233536  31.9577467
  56.9777431 106.1588802  33.0604098  42.2328518 111.0639540  27.7888182
  42.0974193 111.9091076  28.2173030  42.7738331 111.2658818  27.0254116
  35.6857915 108.5814978  28.3616107  36.1982436 109.3758228  28.5121672
  36.3380628 107.8841268  28.2949709  37.4952800 111.6980734  30.4438860
  37.6719429 112.6198699  30.2559844  38.2909634 111.3839153  30.8733240
  36.7805157 103.7445366  40.3201024  36.6658672 102.8430623  40.6208123
  35.9249674 103.9909063  39.9685840  43.8596994 111.6863106  41.9188524
  43.4160849 110.8999485  41.6009429  44.5214208 111.8742257  41.2532415
  38.6184116 113.2158908  36.4449203  39.1691541 113.0875971  35.6726197
  37.7795592 113.5153797  36.0944096  45.9578233 111.9665906  39.9469926
  45.9396708 112.7874787  39.4550195  46.8798153 111.8419982  40.1720067
  42.4151287 109.4810036  40.7893434  42.9479623 108.7198324  40.5592742
  41.8865368 109.1883688  41.5317588  33.6506832 106.9103632  29.1375678
  34.4882054 107.3200641  28.9209386  33.8285100 105.9703074  29.1075872
  45.5471264 104.5778713  24.8259511  45.0317888 105.3483318  25.0647898
  45.2748573 103.9043849  25.4492572  43.1318375  99.4228414  29.8844749
  42.2759972  99.0335264  29.7050388  43.5445327  99.5020374  29.0244535
  50.5205538 107.3311068  26.7612684  49.7434981 106.9922227  26.3167846
  51.1997019 107.3363691  26.0867649  45.3357568 102.4505805  26.6519292
  45.0307703 102.7651954  27.5029435  46.2888010 102.5287225  26.6946625
  43.7803999 108.6096028  28.3012246  43.2525361 107.8748788  27.9885483
  43.2791502 109.3870705  28.0552214  48.7596845 106.8045049  33.4179292
  48.1020520 107.4944310  33.5059421  49.5637245 107.1941481  33.7613279
  38.5122727  99.2715695  30.6618857  39.0866479  99.0490876  29.9292050
  39.0993709  99.3404389  31.4147459  47.5702304 105.1589421  31.4683234
  48.0834186 105.7919413  31.9704944  48.2203528 104.5590617  31.1026594
  38.8392314 101.3020156  24.6814743  38.0029626 101.6394842  25.0024017
  38.6997084 101.1669135  23.7441880  41.9256600 106.4276239  21.3047219
  41.0183661 106.1965492  21.5038368  42.4227632 105.6313858  21.4921201
  44.8324678 115.1373746  24.2243905  44.1586377 115.4405442  24.8328863
  45.2190500 115.9402826  23.8749362  44.0483135 102.6338877  33.7141575
  43.1305696 102.8553824  33.5563263  44.4643279 102.7085187  32.8553282
  44.8318183 104.0330293  28.8444255  45.5790002 104.5451690  28.5351377
  45.1009772 103.7114345  29.7048648  43.1044833 106.5288833  25.8271209
  42.1956052 106.2447866  25.9243679  43.1339917 106.9487912  24.9674516
  48.3364100 110.1395423  29.5962377  47.8826428 109.2986333  29.6527567
  47.7058067 110.7756821  29.9337157  47.2797020 101.0687409  30.8263044
  46.5419777 100.5564795  31.1573287  47.5323794 100.6287791  30.0146321
  46.7797040 111.9771920  30.5312195  47.0720014 112.5376977  29.8124560
  47.2895660 112.2700481  31.2865354  33.6733003 104.2494348  29.8086411
  33.4757403 103.6563708  29.0837478  33.1179667 103.9446558  30.5262350
  41.6529727 104.1417454  31.9281004  41.7078337 103.1891290  31.8523481
  40.8420929 104.2976893  32.4122303  42.8020921 108.0697577  23.1659288
  42.3640351 107.3533436  22.7064925  43.5431362 108.2973692  22.6044379
  39.5922087 102.7594514  29.6871383  38.7789953 103.0588684  30.0936575
  40.0881081 102.3650203  30.4045866  41.7430665 112.7552271  31.6205648
  41.7006844 112.9813117  30.6914180  42.6593364 112.5215645  31.7691449
  45.1896299 103.2236338  38.5186277  45.5445686 103.4507811  39.3780743
  45.8368430 103.5554715  37.8963532  50.9194036 106.3454774  29.2235606
  50.7811934 106.5356370  28.2956795  50.5630254 107.1074157  29.6803657
  39.0836162 100.3312869  35.3032618  39.7235541 100.1901628  34.6055582
  38.2513692 100.0447383  34.9271220  50.9463415 108.4131301  34.2346878
  51.3799922 108.3206590  35.0829932  51.6594996 108.3888802  33.5966894
  39.8596466 109.6315300  31.4167611  40.6537064 109.1365620  31.2150186
  39.1488158 109.1033163  31.0535316  44.6791310 112.0133395  35.7679978
  44.7328332 112.5824332  36.5357694  43.8106091 112.1835280  35.4034015
  36.1679229 103.7758381  27.4927363  35.2376817 103.7142837  27.7097326
  36.2636701 103.2534334  26.6964005  36.0864778 100.3013194  30.0805605
  36.3471595 101.2158528  29.9714766  36.9081950  99.8337637  30.2302218
  37.5589703 101.7150951  37.2504430  38.2312757 101.5068314  36.6017078
  36.7319490 101.5173037  36.8109662  51.8078965 108.4555002  36.7679763
  52.0014855 109.3600812  37.0139038  51.7079583 107.9962421  37.6018348
  46.8694073 108.6061745  42.3420644  46.7179580 108.3772296  41.4250727
  46.8598753 109.5632346  42.3551989  43.6379410 106.1793657  37.3266910
  44.5671470 106.3304817  37.1535877  43.2170440 106.2677678  36.4715557
  42.4367742 110.2044322  35.0965448  42.2978827 109.8363106  35.9691386
  41.6482338 110.7191961  34.9249406  43.0315894 115.3053418  26.4390984
  43.2067649 114.8341461  27.2536607  42.3448682 115.9319184  26.6672245
  43.9872957 109.5825924  32.4854286  43.6522789 109.5426694  33.3811935
  43.4876902 108.9170640  32.0124696  37.9617201 104.9893554  38.0106867
  37.8236999 104.2573793  38.6118406  38.8722124 104.9002455  37.7291054
  46.9232148 106.9281959  22.7591345  46.3061319 106.2028787  22.6624398
  46.4548637 107.6891319  22.4158419  40.5899501 104.7013514  37.4990546
  41.2999120 104.0606706  37.4577165  40.5468810 104.9526409  38.4216727
  48.5786280 111.6380867  40.4197126  48.5198826 110.9540087  39.7527709
  48.9805798 112.3799857  39.9677752  39.3028435 101.6878732  39.3186186
  38.7665792 101.2369470  39.9707782  38.7145144 101.8224640  38.5756650
  38.7130694 101.1467383  21.8812650  37.8360161 101.0256184  21.5174896
  39.1888447 100.3553461  21.6291538  48.5803687 109.6020451  38.6511105
  47.6930466 109.2646373  38.7737504  49.1502238 108.8703482  38.8879871
  30.2332834 105.9344543  31.9754157  30.9203874 105.6206273  31.3875172
  30.0780963 106.8385907  31.7021408  35.0367557 100.8234739  36.4039180
  34.9525745 100.2160409  35.6689590  34.2150263 101.3143758  36.4048677
  42.1104841 114.2621903  35.6172348  42.0375012 115.0676875  36.1291653
  41.6682234 114.4613869  34.7920370  41.8994620 113.4993673  29.1275170
  41.1162142 114.0415354  29.2213395  42.5987366 114.0167653  29.5269411
  45.2091270  99.3088303  31.7709375  45.7059970  98.5558265  31.4510446
  44.4378252  99.3452620  31.2052585  53.0621028 105.0128668  33.4127667
  53.0510904 105.8953384  33.0421600  52.1938407 104.6600219  33.2182204
  44.5703524 114.1608737  37.7730507  45.2831496 114.7956202  37.7006409
  44.0793553 114.2572603  36.9570509  46.2921051 108.0659990  29.3447799
  45.3577330 108.1861453  29.1752503  46.4697720 107.1632457  29.0807809
  41.7926239 101.4505686  31.4981060  41.4224027 100.8976726  32.1861966
  42.2885332 100.8463819  30.9456060  49.6793603 103.9077309  29.8797833
  50.1454055 104.7405301  29.8058136  50.1301103 103.4422291  30.5843091
  39.6215438 111.9103181  38.5936078  40.3224897 112.5439664  38.7465472
  39.1510553 112.2517912  37.8331717  47.7469834 110.2521131  26.8783985
  48.0229678 110.1377725  27.7877859  46.8774332 109.8538616  26.8396158
  47.4216724 104.4647788  36.4188628  46.7688174 104.7123696  35.7641081
  47.7997104 103.6511927  36.0851106  44.3823898 114.5007481  30.5216799
  44.5646292 113.6829137  30.9844551  45.2056884 114.7175174  30.0841689
  44.7166063 113.4275667  27.7831847  45.2453830 112.9168121  27.1702009
  44.9794283 113.1118197  28.6477380  43.4704297 105.2067599  42.9054665
  42.7944934 105.1061729  43.5757041  44.2931931 105.0506813  43.3690663
  35.2183156 111.4439536  35.5267181  35.8036593 110.6983224  35.6595085
  35.0207994 111.7543493  36.4103845  29.8100811 104.0145136  34.2471624
  29.8484910 103.4808727  35.0408742  29.3041103 103.4880342  33.6282601
  37.1891573  98.8609677  37.7434166  37.2532899  99.7224508  37.3311564
  37.1258693  98.2483678  37.0106525  36.6643845 100.9332809  41.3907200
  37.2915884 100.5509886  42.0044725  35.8071764 100.7147011  41.7562893
  47.0637954 111.3395784  42.9960936  47.6077858 111.9525743  42.5015891
  46.4824799 111.8975363  43.5127949  33.4409388 102.7409238  27.3225555
  33.7362829 101.8319917  27.2692609  32.5397424 102.7196978  27.0006558
  45.3495467 114.4616502  34.1275964  45.2246606 113.6606242  33.6186909
  46.0074558 114.9562696  33.6389934  36.9703635 100.8165235  33.3053104
  36.2490221 101.4301203  33.1660577  37.7596891 101.3523000  33.2269750
  47.4130375 112.2625522  35.7555514  46.4660711 112.1430874  35.6833840
  47.7613148 111.3748020  35.8381775  35.1697230 100.4223336  27.4464880
  34.8409936  99.5420715  27.2639986  35.5236600 100.3671005  28.3341270
  44.4176809 112.0578239  31.9559866  44.2701771 111.1294946  32.1367436
  45.2430302 112.0798329  31.4716941  38.2839053 100.7096306  27.8140358
  38.6235125 101.2382227  27.0918966  38.7311173 101.0476712  28.5898925
  48.0210930 112.8806797  33.0424739  48.9457478 112.6749659  32.9049190
  47.8526234 112.6323199  33.9514080  40.2707200  99.2070927  26.0133651
  40.9915563  99.5852180  25.5097368  39.6472504  99.9259804  26.1168629
  44.4138323  99.9116076  26.9491983  44.6301937 100.7940714  26.6480811
  43.9332390  99.5202290  26.2197625  39.1537544 102.8701790  33.5262728
  39.0082125 103.1842093  34.4187009  38.6762748 103.4886690  32.9733626
  41.0133927  99.8604338  33.5743617  40.9995496  98.9645431  33.2375915
  41.7306355  99.8675001  34.2081903  42.8660058 100.2941678  35.6196745
  42.6077836 101.2158748  35.6181075  42.3345098  99.8972112  36.3097209
  47.8106247 113.3992465  28.3986830  47.9843124 112.8338887  27.6460683
  48.3035138 114.1993360  28.2166320  33.6283206 105.4107134  36.4650389
  33.0836675 106.1866942  36.5970663  34.5062556 105.7577938  36.3069510
  40.4170823  98.7418718  28.8431187  40.5386734  97.8135364  29.0422075
  40.1272866  98.7557404  27.9309503  53.6645638 106.1628888  30.0177130
  54.1076784 105.4136213  29.6196253  52.7872148 106.1539024  29.6350862
  48.7981419 112.7159229  25.4983728  49.4932324 113.3365922  25.7171043
  49.1404569 111.8654580  25.7736106  34.4149228 104.5377030  39.3580546
  33.6730964 104.6859666  39.9445176  34.0941973 104.7985296  38.4947295
  50.6972842 110.1658935  27.0271059  51.2224166 110.5046208  26.3020379
  50.6095195 109.2305950  26.8434194  42.3592891 114.0793008  39.1560936
  42.6680017 113.8342155  40.0283635  43.1568373 114.2839647  38.6679806
  34.8605842 112.4242459  31.3890940  35.6863862 112.1246231  31.0089584
  34.5099894 111.6550081  31.8380729  39.8287375 111.7768927  33.4588614
  39.2067384 111.1139632  33.1590842  40.4992242 111.8030059  32.7762262
  33.0614447 110.3428785  32.3479874  32.2246355 109.9150960  32.1663875
  33.0338092 110.5361229  33.2850665  39.9011903 100.2550715  43.0521120
  39.9500058 101.1312838  42.6698890  40.4434417  99.7128108  42.4792763
  50.3866748 110.7991838  42.3322257  49.5962292 110.7815977  41.7926756
  50.1500103 111.3380132  43.0871294  50.5064623 107.6484305  39.6454986
  50.5562628 107.4834312  40.5870508  50.3978547 106.7811564  39.2552866
  39.3900882 110.3272850  26.9347075  39.5389002 111.0108315  26.2813747
  40.1967326 110.3077941  27.4496530  47.7968386 103.6315233  40.9614292
  48.6978249 103.4921698  40.6698290  47.8716360 103.7969688  41.9012470
  52.0082820 110.0681246  39.8897007  51.7167629 110.4311227  40.7260468
  51.3954952 109.3548255  39.7110339  53.2078503 107.6334126  32.4099577
  54.0425394 108.0723930  32.5737138  53.3437631 107.1572779  31.5907823
  50.2570008 105.1913861  38.3577065  50.7324130 105.3841507  37.5495917
  49.3335574 105.2473047  38.1120449  37.1453515 106.3538028  27.9408143
  36.8999557 105.4500358  28.1388354  37.3149430 106.3555179  26.9987621
  36.4149163 102.0866386  25.4394305  35.7218408 102.1610741  24.7834341
  36.1700915 101.3226729  25.9615822  42.8896288 112.8220981  24.4058822
  42.3170255 113.4411168  23.9529294  43.4629081 113.3720343  24.9398744
  48.9571677 102.0679621  36.5905371  49.9089100 102.1677719  36.6117595
  48.7875128 101.2757890  37.1003455  46.1093547 113.1058131  25.5367404
  47.0424221 113.0403693  25.7400280  46.0216760 113.9414398  25.0781937
  48.7381564 112.4224001  22.4971352  48.6595196 112.0883865  23.3907110
  49.5591231 112.9145769  22.4962824  51.4359755 105.2885741  35.7047670
  51.4036075 104.3501741  35.8907354  52.0460379 105.3669777  34.9713495
  43.2743086 104.1581794  21.7474874  44.2202191 104.0288002  21.8163292
  42.8957331 103.4196456  22.2244303  51.5854244 102.0796784  35.7505954
  51.0693292 101.2955241  35.5635882  52.4694192 101.7515501  35.9152473
  49.2464971  95.8237800  31.7101766  49.0489792  95.5152888  32.5945098
  49.8564676  96.5499439  31.8399696  57.2536305 106.3501748  34.8453707
  57.9839694 106.0887036  35.4061411  56.6443251 105.6130469  34.8855775
  55.3351602 104.4909610  35.4428158  54.6084766 104.3565575  34.8344650
  54.9198889 104.7986439  36.2484876  43.1581779 108.2099540  43.2075531
  44.0784788 108.3878139  43.4015578  43.1231362 107.2655585  43.0555231
  41.4586003 102.0831770  21.6829760  40.5517459 101.7864883  21.7592473
  41.7361984 101.7861588  20.8164046  32.3763944 103.4038133  32.1328806
  32.0566728 102.5503442  31.8403180  31.8297372 103.6186712  32.8886773
  36.1543851 106.1200574  35.8498313  36.3729861 107.0517682  35.8686346
  36.5669625 105.7608549  36.6353116  43.0748069  96.6268660  27.8374001
  42.2648797  96.2815745  28.2129247  43.7632486  96.3176204  28.4261613
  41.0271717 101.6933780  45.2401062  40.9268443 102.6428137  45.1713153
  40.8093259 101.3652019  44.3677132  40.2284788  98.9418705  21.8241739
  41.0903952  99.2673604  22.0837556  40.4135132  98.1550201  21.3114805
  32.2452204 107.0241045  34.1021928  31.5515675 106.6094998  33.5891882
  32.9925195 107.0661581  33.5055347  48.3817424  97.8147232  28.9676962
  47.8016093  98.4732036  28.5855014  48.1153357  96.9924576  28.5564379
  46.8320991  97.2152289  31.1698282  47.3320769  97.3268824  30.3612601
  47.4756599  96.9113342  31.8099091  40.8902987 105.1230919  44.0566123
  40.4070068 105.9231279  44.2630012  40.9763926 105.1338864  43.1033567
  34.1588946 106.9559299  31.9787943  34.1359634 107.0546986  31.0269826
  34.4689583 107.8024450  32.3005109  36.8176324 109.0135454  36.0934557
  37.7719578 108.9819396  36.0264489  36.6188848 108.5526078  36.9084783
  37.4075706 107.5836570  38.6605355  38.2268595 108.0780648  38.6840192
  37.6812514 106.6668538  38.6322922  47.1642302  99.9747322  28.0233310
  46.2768157 100.2596973  27.8053505  47.5796291  99.8141086  27.1760587
  50.5156839  99.9993843  31.7387649  51.2917229 100.4890296  32.0112266
  49.7904973 100.4251897  32.1959519  52.9529397 100.7121462  32.7961590
  53.5473888 100.4717198  32.0854898  53.0255981  99.9928593  33.4235126
  46.3085516 109.7391997  22.1181330  47.0121366 109.9441999  22.7338986
  45.5848165 110.3068759  22.3830414  47.1383326 105.4901858  28.2383600
  47.0818528 105.9470409  27.3991233  47.6911669 104.7292543  28.0606443
  50.9488132 101.2791590  29.0633720  50.6925066 100.8788226  29.8941927
  50.3241000 101.9935384  28.9383859  55.2600470 104.0187663  31.5705011
  54.7000028 104.0880852  32.3436573  54.6543973 103.8428648  30.8504507
  48.2172213 110.1774526  24.1679790  49.0517817 109.7455724  23.9857265
  48.0556556 110.0056540  25.0956685  47.8718105 106.6806639  25.5336129
  47.8166909 106.5150911  24.5924574  47.2464161 107.3882672  25.6898319
  32.6610620 101.9174704  39.3597552  33.3069484 101.4073658  39.8484777
  32.4527772 102.6543385  39.9340977  45.1864013 108.9855551  44.8589692
  46.0555172 109.1596203  44.4976327  44.7070764 109.8049968  44.7365422
  41.1814231  96.1814748  25.1121448  41.1692901  97.1256588  25.2689719
  42.0737653  95.9984894  24.8180909  41.1103795 114.8583639  33.1989205
  40.1599426 114.8585500  33.0853577  41.4136281 114.1116373  32.6825239
  37.0008111  99.0642321  43.4572566  37.8639573  98.7079126  43.6675890
  36.4273522  98.7256216  44.1447970  56.3997757 118.4195631  31.3388175
  57.1860846 118.0015054  30.9878592  56.6636461 119.3241723  31.5069823
  61.8006184 118.3570864  32.2421153  62.5331356 117.7870081  32.4758983
  61.0445540 117.9692465  32.6827659  59.3231604 112.0692438  36.7015762
  58.9914929 112.9387849  36.4776977  58.7277218 111.7528722  37.3809792
  53.0587791 115.8088005  24.4345844  53.2262193 116.6768242  24.8016315
  52.8684960 115.9715287  23.5107134  59.2160268 116.7887524  33.7809112
  58.3077145 116.7202933  33.4867873  59.1647863 117.2659469  34.6090938
  53.0377012 118.2645663  25.4192511  52.9176637 118.7102714  26.2577992
  52.3429600 118.6130981  24.8606049  53.2901133 118.2077170  41.7244009
  52.5134467 118.7671090  41.7146874  53.9291696 118.6933953  42.2458880
  61.0821914 114.9903963  35.5586986  60.4396294 115.2836496  34.9126781
  60.5776843 114.8756883  36.3640183  58.7362078 118.7367136  26.2472845
  59.6479934 118.9694523  26.0720543  58.2271725 119.3204180  25.6847924
  53.3733915 118.0964371  37.2567695  54.2195111 118.5203784  37.4002344
  53.3132553 117.4397995  37.9506258  56.5233361 115.7568739  38.9148868
  56.2794293 116.5110800  38.3783144  56.7993291 116.1354087  39.7496116
  56.0798052 114.9125172  34.4962706  55.2182532 115.2106426  34.7879444
  56.1060487 115.1295571  33.5643739  67.6823645 121.5218055  32.1133463
  66.9287353 120.9525453  31.9577467  67.8171186 121.4880720  33.0604098
  49.5589612 112.4723037  44.4502537  49.1656558 111.9189236  45.1250182
  50.3755753 112.7833616  44.8409055  52.4757573 113.8880917  42.0422794
  53.2167287 114.4888070  41.9627256  52.7075496 113.1458554  41.4840837
  56.4214736 109.9162019  36.3187076  56.0779006 110.8063661  36.2426186
  56.7893699 109.7263677  35.4556661  56.3865019 119.9070631  24.8259511
  55.8711642 120.6775235  25.0647898  56.1142327 119.2335767  25.4492572
  53.9712130 114.7520331  29.8844749  53.1153726 114.3627182  29.7050388
  54.3839082 114.8312292  29.0244535  55.5011277 112.2866675  34.2836309
  54.9976072 112.2496810  33.4704114  55.7941883 113.1959417  34.3432966
  51.7454162 112.3705404  33.2902491  52.6107159 112.1748213  32.9308380
  51.8131671 112.1415756  34.2171847  61.3599293 122.6602985  26.7612684
  60.5828736 122.3214145  26.3167846  62.0390774 122.6655608  26.0867649
  56.1751322 117.7797723  26.6519292  55.8701458 118.0943872  27.5029435
  57.1281764 117.8579143  26.6946625  49.3516481 114.6007612  30.6618857
  49.9260233 114.3782794  29.9292050  49.9387464 114.6696307  31.4147459
  58.4096059 120.4881339  31.4683234  58.9227940 121.1211331  31.9704944
  59.0597283 119.8882535  31.1026594  49.6786069 116.6312073  24.6814743
  48.8423381 116.9686760  25.0024017  49.5390838 116.4961053  23.7441880
  51.6539149 111.4748861  29.3893927  51.0003562 111.1597878  28.7650542
  51.6119623 110.8524602  30.1153750  54.8876890 117.9630795  33.7141575
  53.9699451 118.1845742  33.5563263  55.3037033 118.0377105  32.8553282
  55.6711937 119.3622210  28.8444255  56.4183756 119.8743608  28.5351377
  55.9403527 119.0406263  29.7048648  58.1190774 116.3979327  30.8263044
  57.3813531 115.8856713  31.1573287  58.3717548 115.9579708  30.0146321
  58.2202402 109.1755579  31.4204813  58.5261279 108.3152942  31.1330728
  58.9455007 109.7673199  31.2203807  50.4315841 118.0886431  29.6871383
  49.6183707 118.3880602  30.0936575  50.9274836 117.6942120  30.4045866
  56.0290053 118.5528256  38.5186277  56.3839441 118.7799729  39.3780743
  56.6762184 118.8846633  37.8963532  61.7587790 121.6746692  29.2235606
  61.6205689 121.8648288  28.2956795  61.4024009 122.4366075  29.6803657
  49.9229916 115.6604787  35.3032618  50.5629296 115.5193546  34.6055582
  49.0907447 115.3739300  34.9271220  46.9258533 115.6305112  30.0805605
  47.1865350 116.5450445  29.9714766  47.7475705 115.1629555  30.2302218
  48.3983458 117.0442869  37.2504430  49.0706511 116.8360231  36.6017078
  47.5713244 116.8464955  36.8109662  54.3009030 113.6704810  39.2670090
  53.6536945 114.3694760  39.1734567  55.0710045 114.1040954  39.6346339
  50.1422190 117.0170649  39.3186186  49.6059547 116.5661388  39.9707782
  49.5538898 117.1516558  38.5756650  49.5524449 116.4759301  21.8812650
  48.6753915 116.3548102  21.5174896  50.0282202 115.6845379  21.6291538
  45.8761311 116.1526657  36.4039180  45.7919500 115.5452327  35.6689590
  45.0544018 116.6435675  36.4048677  56.0485025 114.6380221  31.7709375
  56.5453725 113.8850183  31.4510446  55.2772006 114.6744537  31.2052585
  63.9014782 120.3420586  33.4127667  63.8904659 121.2245301  33.0421600
  63.0332162 119.9892137  33.2182204  52.6319994 116.7797604  31.4981060
  52.2617781 116.2268644  32.1861966  53.1279086 116.1755737  30.9456060
  60.5187357 119.2369227  29.8797833  60.9847809 120.0697219  29.8058136
  60.9694858 118.7714209  30.5843091  58.4904020 111.6049814  33.9188734
  57.5767100 111.8354041  34.0870941  58.9197121 111.6888258  34.7702767
  58.2610478 119.7939706  36.4188628  57.6081928 120.0415613  35.7641081
  58.6390858 118.9803844  36.0851106  48.0285327 114.1901594  37.7434166
  48.0926654 115.0516425  37.3311564  47.9652448 113.5775596  37.0106525
  47.5037600 116.2624727  41.3907200  48.1309639 115.8801804  42.0044725
  46.6465519 116.0438929  41.7562893  47.8097390 116.1457153  33.3053104
  47.0883975 116.7593120  33.1660577  48.5990645 116.6814917  33.2269750
  50.6123703 113.4811579  39.5793756  51.1358105 113.7273876  40.3420065
  50.3936036 114.3131614  39.1596893  46.0090984 115.7515254  27.4464880
  45.6803690 114.8712633  27.2639986  46.3630355 115.6962922  28.3341270
  49.1232807 116.0388223  27.8140358  49.4628880 116.5674145  27.0918966
  49.5704928 116.3768630  28.5898925  51.8176248 114.4225274  37.2643426
  51.4773069 113.6233087  37.6664106  51.1115254 114.7226985  36.6920259
  52.4692720 111.5074587  35.7170749  53.2918789 111.0335065  35.5949639
  52.7130784 112.2865070  36.2169435  51.1100955 114.5362845  26.0133651
  51.8309317 114.9144098  25.5097368  50.4866259 115.2551722  26.1168629
  55.2532077 115.2407994  26.9491983  55.4695692 116.1232632  26.6480811
  54.7726145 114.8494207  26.2197625  51.8527682 115.1896255  33.5743617
  51.8389250 114.2937348  33.2375915  52.5700110 115.1966919  34.2081903
  53.7053812 115.6233595  35.6196745  53.4471590 116.5450666  35.6181075
  53.1738853 115.2264030  36.3097209  51.2564578 114.0710635  28.8431187
  51.3780489 113.1427282  29.0422075  50.9666620 114.0849321  27.9309503
  54.1255768 111.7565546  31.9797907  54.1477465 111.8204879  31.0249887
  54.5423827 110.9170055  32.1738413  64.5039392 121.4920805  30.0177130
  64.9470538 120.7428131  29.6196253  63.6265903 121.4830942  29.6350862
  50.7405657 115.5842633  43.0521120  50.7893813 116.4604756  42.6698890
  51.2828171 115.0420026  42.4792763  58.6362140 118.9607150  40.9614292
  59.5372003 118.8213615  40.6698290  58.7110115 119.1261605  41.9012470
  52.9704946 116.3374005  39.8067479  52.1008255 116.6307571  39.5350067
  53.2064426 116.9214450  40.5274742  64.0472257 122.9626044  32.4099577
  64.8819148 123.4015848  32.5737138  64.1831386 122.4864697  31.5907823
  61.0963763 120.5205779  38.3577065  61.5717885 120.7133425  37.5495917
  60.1729328 120.5764964  38.1120449  55.6743979 112.5553622  37.3232899
  56.1925923 113.2914649  36.9979388  55.3199112 112.8617615  38.1579658
  47.2542917 117.4158303  25.4394305  46.5612162 117.4902658  24.7834341
  47.0094669 116.6518647  25.9615822  55.9256574 108.9753905  32.8433796
  56.2058327 108.3077094  33.4694222  56.7107181 109.1683000  32.3308459
  59.7965432 117.3971539  36.5905371  60.7482855 117.4969636  36.6117595
  59.6268882 116.6049807  37.1003455  57.8179811 114.4827122  36.7764772
  57.2229744 114.7632135  36.0811260  57.5329508 114.9721023  37.5481513
  62.2753510 120.6177658  35.7047670  62.2429830 119.6793659  35.8907354
  62.8854133 120.6961695  34.9713495  54.1136841 119.4873711  21.7474874
  55.0595945 119.3579919  21.8163292  53.7351086 118.7488373  22.2244303
  62.4247998 117.4088702  35.7505954  61.9087047 116.6247158  35.5635882
  63.3087947 117.0807418  35.9152473  60.0858725 111.1529717  31.7101766
  59.8883546 110.8444806  32.5945098  60.6958431 111.8791356  31.8399696
  68.0930060 121.6793665  34.8453707  68.8233448 121.4178953  35.4061411
  67.4837005 120.9422387  34.8855775  66.1745357 119.8201528  35.4428158
  65.4478520 119.6857493  34.8344650  65.7592644 120.1278356  36.2484876
  52.2979758 117.4123688  21.6829760  51.3911213 117.1156800  21.7592473
  52.5755739 117.1153506  20.8164046  53.9141823 111.9560577  27.8374001
  53.1042552 111.6107662  28.2129247  54.6026240 111.6468121  28.4261613
  55.8432372 111.0338624  29.4598298  56.3963410 111.4534078  30.1188321
  56.0802458 110.1074372  29.5021254  51.8665471 117.0225698  45.2401062
  51.7662198 117.9720055  45.1713153  51.6487013 116.6943937  44.3677132
  51.0678542 114.2710623  21.8241739  51.9297706 114.5965521  22.0837556
  51.2528887 113.4842119  21.3114805  59.2211179 113.1439149  28.9676962
  58.6409848 113.8023953  28.5855014  58.9547112 112.3216494  28.5564379
  57.6714745 112.5444207  31.1698282  58.1714524 112.6560742  30.3612601
  58.3150353 112.2405260  31.8099091  58.0036057 115.3039240  28.0233310
  57.1161912 115.5888890  27.8053505  58.4190046 115.1433003  27.1760587
  61.3550593 115.3285761  31.7387649  62.1310983 115.8182213  32.0112266
  60.6298727 115.7543815  32.1959519  63.7923152 116.0413380  32.7961590
  64.3867642 115.8009116  32.0854898  63.8649735 115.3220511  33.4235126
  57.9777081 120.8193776  28.2383600  57.9212282 121.2762327  27.3991233
  58.5305423 120.0584460  28.0606443  61.7881887 116.6083508  29.0633720
  61.5318821 116.2080143  29.8941927  61.1634755 117.3227302  28.9383859
  66.0994224 119.3479581  31.5705011  65.5393782 119.4172770  32.3436573
  65.4937728 119.1720565  30.8504507  52.0207985 111.5106666  25.1121448
  52.0086655 112.4548506  25.2689719  52.9131407 111.3276811  24.8180909
  55.8360105 108.1049443  29.3667385  55.0692501 107.5507929  29.5124067
  56.2470810 108.1771311  30.2281536  47.8401866 114.3934238  43.4572566
  48.7033327 114.0371043  43.6675890  47.2667277 114.0548133  44.1447970
  69.0596156 124.5047496  31.4204813  69.3655033 123.6444860  31.1330728
  69.7848761 125.0965117  31.2203807  66.7650328 124.3045822  32.8433796
  67.0452082 123.6369011  33.4694222  67.5500935 124.4974918  32.3308459
  66.6753859 123.4341360  29.3667385  65.9086255 122.8799847  29.5124067
  67.0864564 123.5063229  30.2281536   3.7062937  27.0290236  29.7206242
   4.2502841  27.6420195  29.2261197   3.1249782  27.5869815  30.2373255
   7.0291732  26.4886290  29.0567564   6.2387275  26.4710429  28.5172063
   6.7925086  27.0274584  29.8116600   1.8288996  24.6750003  31.5834999
   2.6980156  24.8490655  31.2221634   1.3495747  25.4944420  31.4610728
  13.4881472  36.3838629  20.9880274  14.1259882  36.2645376  20.2843614
  13.3702315  37.3319473  21.0468226  10.7790961  37.4900909  26.8828004
  10.7679602  37.0953707  26.0108507  10.9411600  36.7566981  27.4761775
   7.4998222  40.2738021  25.8307188   7.2088088  41.1783651  25.7153854
   8.1355206  40.3154548  26.5451257   8.4254429  37.6514869  22.4208547
   9.0218001  37.4270892  21.7065510   8.4829400  36.9099615  23.0233995
  18.4431167  34.0465316  18.9666460  19.1756339  33.4764533  19.2004290
  17.6870523  33.6586916  19.4072966  15.9656588  27.7586890  23.4261069
  15.6339912  28.6282301  23.2022284  15.3702201  27.4423174  24.1055099
  12.4588107  39.9599436  22.8256981  12.1588830  40.8624475  22.7172789
  12.1139167  39.6931619  23.6778134   7.4408887  46.7243756  15.7927949
   7.3632917  47.6751582  15.8716430   6.8370531  46.3789629  16.4502875
   9.9326117  33.8971622  28.4489316   9.1559451  34.4565542  28.4392181
  10.5716680  34.3828405  28.9704186  17.7246897  30.6798415  22.2832293
  17.0821278  30.9730948  21.6372087  17.2201826  30.5651335  23.0885489
   8.1872489  36.7057075  28.0107283   8.9287173  37.2442119  27.7342107
   7.4809474  37.3323364  28.1678835  13.6627829  38.8486216  26.6079445
  14.0711185  38.4068626  25.8634077  12.9405090  38.2738843  26.8613637
  10.0158899  33.7858823  23.9813001  10.8620094  34.2098236  24.1247650
   9.9557536  33.1292447  24.6751565  13.9856643  39.4087406  20.3631733
  13.3565506  39.5733121  19.6607801  13.5982305  39.8229016  21.1342697
  17.8645875  40.3441844  17.7176097  17.1796913  40.7240746  17.1673130
  17.9489725  40.9537171  18.4508045  13.1658344  31.4463191  25.6394175
  12.9219276  32.2005251  25.1028451  13.4418275  31.8248538  26.4741422
  15.1196807  37.9901803  24.3171441  15.3313702  38.6333563  23.6405822
  15.0726555  37.1564120  23.8493371   6.9233853  33.8596723  28.8122593
   6.2932513  34.5413004  29.0457990   6.8169941  33.7479805  27.8675731
  16.2342635  40.8673759  22.4893798  17.0560078  40.4653946  22.2076480
  16.2305038  40.7641993  23.4409914   9.9999238  40.4157802  24.6454509
  10.0643671  40.8778209  25.4812680   9.2910162  39.7855167  24.7736818
  24.3248628  37.2112507  18.8378769  23.5712336  36.6419905  18.6822774
  24.4596169  37.1775172  19.7849404   6.2014596  28.1617489  31.1747844
   5.8081541  27.6083688  31.8495488   7.0180736  28.4728068  31.5654362
   9.1182556  29.5775368  28.7668101   9.8592270  30.1782522  28.6872563
   9.3500479  28.8353006  28.2086143   4.2623895  34.7631736  27.0446330
   4.1477410  33.8616993  27.3453429   3.4068412  35.0095432  26.6931147
  11.3415732  42.7049476  28.6433831  10.8979586  41.9185855  28.3254735
  12.0032946  42.8928626  27.9777722   6.1002853  44.2345278  23.1694509
   6.6510279  44.1062341  22.3971503   5.2614329  44.5340167  22.8189402
  13.4396970  42.9852276  26.6715232  13.4215446  43.8061157  26.1795501
  14.3616890  42.8606351  26.8965373   9.8970024  40.4996405  27.5138741
  10.4298361  39.7384694  27.2838049   9.3684106  40.2070057  28.2562895
  16.2415583  37.8231418  20.1424599  15.5839258  38.5130680  20.2304728
  17.0455982  38.2127850  20.4858585  15.8182838  41.1581792  16.3207683
  15.3645165  40.3172702  16.3772874  15.1876805  41.7943191  16.6582463
  14.2615777  42.9958289  17.2557501  14.5538752  43.5563346  16.5369867
  14.7714398  43.2886850  18.0110661   9.2249403  43.7738640  18.3450955
   9.1825581  43.9999487  17.4159487  10.1412102  43.5402015  18.4936756
  12.6715036  34.2422708  25.2431584  13.0264424  34.4694181  26.1026050
  13.3187168  34.5741085  24.6208839  18.4282153  39.4317671  20.9592184
  18.8618660  39.3392960  21.8075238  19.1413734  39.4075171  20.3212200
  12.1610048  43.0319765  22.4925285  12.2147070  43.6010701  23.2603001
  11.2924829  43.2021650  22.1279322  19.2897703  39.4741371  23.4925070
  19.4833593  40.3787182  23.7384345  19.1898321  39.0148790  24.3263655
  10.9434013  29.3599262  25.9915397  10.2961928  30.0589212  25.8979874
  11.7135029  29.7935406  26.3591645  14.3512811  39.6248114  29.0665950
  14.1998318  39.3958666  28.1496034  14.3417491  40.5818716  29.0797295
  11.1198148  37.1980027  24.0512217  12.0490208  37.3491186  23.8781184
  10.6989178  37.2864048  23.1960863   9.9186479  41.2230691  21.8210754
   9.7797565  40.8549476  22.6936693   9.1301076  41.7378331  21.6494712
  11.4691695  40.6012294  19.2099592  11.1341527  40.5613064  20.1057242
  10.9695640  39.9357010  18.7370002   5.4435939  36.0079924  24.7352173
   5.3055736  35.2760163  25.3363712   6.3540862  35.9188824  24.4536361
   8.0718239  35.7199883  24.2235853   8.7817858  35.0793076  24.1822471
   8.0287547  35.9712778  25.1462034  16.0605018  42.6567237  27.1442432
  16.0017564  41.9726457  26.4773015  16.4624536  43.3986227  26.6923058
   6.7847173  32.7065101  26.0431493   6.2484530  32.2555840  26.6953089
   6.1963882  32.8411010  25.3001957   5.0795717  49.4729151  19.9376151
   5.3192315  50.1047675  20.6155170   4.2364913  49.1217191  20.2241510
  16.0622425  40.6206821  25.3756412  15.1749204  40.2832742  25.4982811
  16.6320976  39.8889852  25.6125177   9.5923579  45.2808273  22.3417655
   9.5193750  46.0863244  22.8536960   9.1500972  45.4800239  21.5165677
  20.5439766  36.0315038  20.1372974  20.5329642  36.9139753  19.7666907
  19.6757145  35.6786589  19.9427511  12.0522262  45.1795107  24.4975814
  12.7650234  45.8142572  24.4251715  11.5612291  45.2758973  23.6815816
   7.1034176  42.9289550  25.3181385   7.8043635  43.5626033  25.4710779
   6.6329291  43.2704282  24.5577024  14.9035462  35.4834158  23.1433935
  14.2506912  35.7310065  22.4886388  15.2815841  34.6698296  22.8096412
  11.8642635  45.5193851  17.2462105  12.0465030  44.7015507  17.7089858
  12.6875621  45.7361543  16.8086995  10.9523035  36.2253969  29.6299972
  10.2763672  36.1248098  30.3002347  11.7750668  36.0693183  30.0935969
   2.7001894  42.4625905  22.2512487   3.2855330  41.7169593  22.3840391
   2.5026732  42.7729862  23.1349151   9.6945817  47.5320896  23.8657588
  10.2464125  47.6952518  24.6306673  10.0352011  48.1225334  23.1937613
   4.1462583  31.9519179  28.1152507   4.7734622  31.5696256  28.7290031
   3.2890502  31.7333381  28.4808199  14.5456692  42.3582154  29.7206242
  15.0896596  42.9712112  29.2261197  13.9643537  42.9161732  30.2373255
  12.8314205  45.4802872  20.8521270  12.7065344  44.6792612  20.3432216
  13.4893296  45.9749065  20.3635240  14.8949113  43.2811892  22.4800820
  13.9479449  43.1617243  22.4079147  15.2431886  42.3934390  22.5627082
   7.2548686  29.1706031  26.3039062   7.7783088  29.4168327  27.0665371
   7.0361020  30.0026066  25.8842200  11.8995546  43.0764608  18.6805172
  11.7520509  42.1481316  18.8612743  12.7249040  43.0984699  18.1962248
  15.5029668  43.8993167  19.7670045  16.4276216  43.6936028  19.6294496
  15.3344972  43.6509568  20.6759387  15.2924984  44.4178834  15.1232137
  15.4661862  43.8525257  14.3705989  15.7853876  45.2179729  14.9411627
  21.1464376  37.1815257  16.7422436  21.5895522  36.4322583  16.3441560
  20.2690886  37.1725394  16.3596168   1.8967966  35.5563400  26.0825852
   1.1549702  35.7046035  26.6690483   1.5760710  35.8171665  25.2192602
   9.8411629  45.0979378  25.8806242  10.1498755  44.8528525  26.7528942
  10.6387111  45.3026016  25.3925113   9.8632241  47.2517288  18.1111619
   9.4237231  46.7593666  18.8044476  10.6140358  46.7090255  17.8703694
   7.3106113  42.7955297  20.1833921   6.6886122  42.1326002  19.8836148
   7.9810980  42.8216429  19.5007568   7.3830640  31.2737085  29.7766427
   7.4318796  32.1499208  29.3944196   7.9253155  30.7314478  29.2038070
  17.8685486  41.8178208  29.0567564  17.0781030  41.8002347  28.5172063
  17.6318841  42.3566502  29.8116600  17.9883361  38.6670674  26.3700292
  18.0381366  38.5020682  27.3115815  17.8797285  37.7997933  25.9798173
  15.2787124  34.6501602  27.6859599  16.1796986  34.5108067  27.3943597
  15.3535098  34.8156057  28.6257776   9.6129929  32.0268457  26.5312785
   8.7433238  32.3202023  26.2595374   9.8489409  32.6108902  27.2520049
  19.4901558  41.0867616  26.6142314  19.1986366  41.4497596  27.4505775
  18.8773689  40.3734624  26.4355646  20.6897240  38.6520496  19.1344884
  21.5244132  39.0910300  19.2982444  20.8256369  38.1759149  18.3153130
  17.7388746  36.2100230  25.0822372  18.2142868  36.4027877  24.2741223
  16.8154312  36.2659416  24.8365755  16.4390415  33.0865991  23.3150677
  17.3907838  33.1864088  23.3362901  16.2693866  32.2944259  23.8248762
  14.4604795  30.1721574  23.5010078  13.8654727  30.4526587  22.8056567
  14.1754491  30.6615475  24.2726819  18.9178493  36.3072110  22.4292977
  18.8854813  35.3688111  22.6152661  19.5279117  36.3856147  21.6958802
  19.0672982  33.0983154  22.4751260  18.5512030  32.3141610  22.2881189
  19.9512930  32.7701870  22.6397780  24.7355043  37.3688117  21.5699014
  25.4658431  37.1073405  22.1306717  24.1261988  36.6316839  21.6101082
  22.8170340  35.5095980  22.1673465  22.0903504  35.3751945  21.5589957
  22.4017627  35.8172808  22.9730183  10.6400516  39.2285909  29.9320838
  11.5603526  39.4064508  30.1260885  10.6050099  38.2841955  29.7800537
   8.5090454  32.7120150  31.9646368   8.4087181  33.6614507  31.8958459
   8.2911996  32.3838389  31.0922438   8.3721724  36.1417289  30.7811430
   7.8888806  36.9417649  30.9875319   8.4582663  36.1525234  29.8278874
   4.2995062  40.0321823  22.8179864   5.2538315  40.0005766  22.7509795
   4.1007585  39.5712447  23.6330089   4.8894444  38.6022939  25.3850661
   5.7087333  39.0967018  25.4085499   5.1631252  37.6854908  25.3568229
   2.6545291  45.5741443  19.8350061   2.5199759  44.8141844  19.2688059
   2.2377353  46.2982343  19.3678850  22.7419208  35.0374033  18.2950318
  22.1818766  35.1067222  19.0681880  22.1362711  34.8615017  17.5749814
   5.8114417  46.4710760  20.0468504   5.6946801  47.4156192  19.9447194
   4.9906863  46.1684321  20.4354303  12.6682750  40.0041921  31.5834999
  13.5373910  40.1782573  31.2221634  12.1889502  40.8236338  31.4610728
   6.8368931  47.1239022  23.2624433   7.7396177  47.1562632  23.5790927
   6.6106301  46.1939473  23.2770768   8.5922533  45.8770008  19.9234511
   7.6418164  45.8771870  19.8098883   8.8955019  45.1302743  19.4070546
   4.4826849  30.0828690  30.1817873   5.3458311  29.7265495  30.3921197
   3.9092260  29.7442585  30.8693277  24.3275226  51.7130547  20.9880274
  24.9653636  51.5937294  20.2843614  24.2096069  52.6611391  21.0468226
  21.1364932  51.6657975  20.9241798  20.7983444  51.5499039  20.0362333
  22.0054701  51.2649140  20.9042804  16.9951748  53.5193451  16.9138689
  16.4316613  53.4283388  16.1454977  16.8804143  52.6993356  17.3941182
  21.6184715  52.8192827  26.8828004  21.6073356  52.4245625  26.0108507
  21.7805355  52.0858899  27.4761775  14.5416180  55.0144643  19.7522910
  15.3337472  54.6735467  19.3369209  14.7812830  55.1239618  20.6725063
  22.5751307  57.1864419  12.2253154  21.9239287  57.7718499  11.8387168
  23.3695670  57.7170614  12.2848192  16.5006934  54.2753556  12.6240288
  17.2737810  53.7282543  12.4853164  16.8532333  55.1397805  12.8354750
  18.3391977  55.6029938  25.8307188  18.0481843  56.5075569  25.7153854
  18.9748961  55.6446466  26.5451257  19.2648183  52.9806787  22.4208547
  19.8611756  52.7562809  21.7065510  19.3223155  52.2391532  23.0233995
  18.8373212  50.4346222  10.2558738  19.0898732  49.9127743   9.4942201
  17.8997771  50.2712368  10.3585422  23.8816495  49.4382001  18.0633482
  24.6679584  49.0201424  17.7123899  24.1455199  50.3428093  18.2315130
  24.0526572  54.8754851  12.7622138  23.4172405  54.9489477  13.4743043
  23.7223978  55.4648450  12.0841218  29.2824922  49.3757234  18.9666460
  30.0150094  48.8056451  19.2004290  28.5264277  48.9878834  19.4072966
  18.5569501  52.3374328  12.4583113  18.4405759  51.6619232  13.1264198
  18.6671760  51.8506702  11.6415266  20.9001041  51.7984475  16.1629803
  20.5359249  51.2715096  16.8742724  21.7568157  51.4082944  15.9896288
  26.8050342  43.0878808  23.4261069  26.4733667  43.9574219  23.2022284
  26.2095955  42.7715092  24.1055099  23.2981862  55.2891354  22.8256981
  22.9982585  56.1916393  22.7172789  22.9532921  55.0223537  23.6778134
  16.7494343  51.7405151  18.8593686  15.8244840  51.6081365  19.0671378
  16.9978756  52.5199370  19.3563628  26.6979005  47.8073894  20.5054419
  25.7895883  47.7389302  20.2113180  26.6466601  48.2845839  21.3336244
  20.5195749  49.2832032  12.1437818  20.3995375  49.7289083  12.9823298
  19.8248338  49.6317350  11.5851356  14.1103154  51.3838424  19.6937475
  14.2395535  51.6372903  20.6076887  13.4300605  51.9766132  19.3742130
  18.2802641  62.0535674  15.7927949  18.2026671  63.0043499  15.8716430
  17.6764285  61.7081547  16.4502875  20.7719871  49.2263540  28.4489316
  19.9953205  49.7857460  28.4392181  21.4110434  49.7120323  28.9704186
  28.5640652  46.0090332  22.2832293  27.9215032  46.3022866  21.6372087
  28.0595580  45.8943253  23.0885489  26.2180815  49.7553506  12.9718152
  27.1298672  49.9880892  12.7965849  25.7090463  50.3390550  12.4093231
  19.0266244  52.0348993  28.0107283  19.7680928  52.5734037  27.7342107
  18.3203229  52.6615282  28.1678835  24.5021583  54.1778133  26.6079445
  24.9104939  53.7360544  25.8634077  23.7798845  53.6030761  26.8613637
  20.8552653  49.1150740  23.9813001  21.7013848  49.5390154  24.1247650
  20.7951291  48.4584365  24.6751565  24.8250398  54.7379324  20.3631733
  24.1959260  54.9025038  19.6607801  24.4376060  55.1520934  21.1342697
  28.7039630  55.6733762  17.7176097  28.0190668  56.0532663  17.1673130
  28.7883479  56.2829089  18.4508045  24.0052099  46.7755109  25.6394175
  23.7613030  47.5297169  25.1028451  24.2812029  47.1540456  26.4741422
  25.9590561  53.3193721  24.3171441  26.1707457  53.9625481  23.6405822
  25.9120310  52.4856037  23.8493371  23.5616790  45.9311542  21.2208013
  22.7001269  46.2292795  21.5124750  23.5879225  46.1481940  20.2889045
  20.3778360  54.4753732  17.6281819  20.8416705  54.7541435  16.8386441
  20.1135158  53.5737177  17.4454909  17.2702441  54.0225214  20.5661582
  17.8403798  54.4512482  19.9279066  17.8610553  53.7407798  21.2645767
  19.3147246  50.5976885  14.4371384  20.0171289  51.0497928  14.9045310
  18.9827874  49.9560703  15.0651277  17.7627607  49.1888641  28.8122593
  17.1326268  49.8704922  29.0457990  17.6563695  49.0771723  27.8675731
  13.0572580  48.8560437  19.7388517  12.2671634  49.1117966  19.2628628
  13.5483827  49.6708775  19.8440558  27.0736389  56.1965676  22.4893798
  27.8953833  55.7945864  22.2076480  27.0698792  56.0933911  23.4409914
  15.0087325  49.2205016  16.6971994  14.2118488  49.3323711  17.2155490
  14.7812917  49.5591669  15.8312884  20.8392993  55.7449720  24.6454509
  20.9037425  56.2070127  25.4812680  20.1303917  55.1147085  24.7736818
  11.3410283  49.1090928  22.1703508  11.5918321  49.9937938  22.4361084
  11.8769831  48.9295529  21.3978600  35.1642382  52.5404425  18.8378769
  34.4106091  51.9711823  18.6822774  35.2989924  52.5067089  19.7849404
  20.5541010  57.4117827  14.5133489  20.4186685  58.2569363  14.9418337
  21.0950823  57.6137105  13.7499423  17.0408350  43.4909407  31.1747844
  16.6475296  42.9375606  31.8495488  17.8574490  43.8019985  31.5654362
  14.0070408  54.9293265  15.0861414  14.5194928  55.7236515  15.2366979
  14.6593121  54.2319556  15.0195015  15.8165292  58.0459021  17.1684167
  15.9931921  58.9676986  16.9805151  16.6122126  57.7317441  17.5978547
  19.9576311  44.9067286  28.7668101  20.6986024  45.5074439  28.6872563
  20.1894234  44.1644924  28.2086143  15.1017649  50.0923653  27.0446330
  14.9871164  49.1908911  27.3453429  14.2462167  50.3387350  26.6931147
  22.1809487  58.0341394  28.6433831  21.7373341  57.2477772  28.3254735
  22.8426700  58.2220544  27.9777722  16.9396608  59.5637195  23.1694509
  17.4904033  59.4354259  22.3971503  16.1008084  59.8632084  22.8189402
  24.2790725  58.3144194  26.6715232  24.2609200  59.1353075  26.1795501
  25.2010645  58.1898269  26.8965373  20.7363779  55.8288323  27.5138741
  21.2692116  55.0676611  27.2838049  20.2077860  55.5361975  28.2562895
  23.9033474  40.9348389  23.0432382  23.5597743  41.8250031  22.9671493
  24.2712437  40.7450047  22.1801967  11.9719325  53.2581919  15.8620984
  12.8094547  53.6678928  15.6454692  12.1497592  52.3181362  15.8321178
  23.8683757  50.9257000  11.5504817  23.3530380  51.6961605  11.7893205
  23.5961065  50.2522136  12.1737879  21.4530868  45.7706701  16.6090056
  20.5972464  45.3813551  16.4295695  21.8657819  45.8498662  15.7489841
  22.9830014  43.3053044  21.0081616  22.4794810  43.2683179  20.1949421
  23.2760621  44.2145787  21.0678272  19.2272900  43.3891774  20.0147797
  20.0925897  43.1934583  19.6553687  19.2950409  43.1602126  20.9417154
  28.8418031  53.6789355  13.4857991  28.0647474  53.3400514  13.0413153
  29.5209512  53.6841978  12.8112956  23.6570060  48.7984092  13.3764599
  23.3520195  49.1130241  14.2274742  24.6100502  48.8765512  13.4191932
  22.1016492  54.9574316  15.0257553  21.5737853  54.2227075  14.7130790
  21.6003994  55.7348992  14.7797521  27.0809338  53.1523336  20.1424599
  26.4233012  53.8422597  20.2304728  27.8849737  53.5419768  20.4858585
  16.8335219  45.6193982  17.3864164  17.4078971  45.3969163  16.6537357
  17.4206202  45.6882676  18.1392765  25.8914796  51.5067709  18.1928541
  26.4046678  52.1397701  18.6950250  26.5416020  50.9068904  17.8271901
  19.1357887  42.4935231  16.1139234  18.4822299  42.1784248  15.4895848
  19.0938361  41.8710971  16.8399056  20.2469092  52.7754526   8.0292526
  19.3396154  52.5443779   8.2283675  20.7440124  51.9792145   8.2166507
  23.1537171  61.4852033  10.9489212  22.4798869  61.7883730  11.5574170
  23.5402993  62.2881113  10.5994669  22.3695627  48.9817164  20.4386881
  21.4518189  49.2032111  20.2808569  22.7855771  49.0563475  19.5798589
  23.1530675  50.3808580  15.5689561  23.9002494  50.8929977  15.2596683
  23.4222265  50.0592633  16.4293955  21.4257325  52.8767121  12.5516516
  20.5168545  52.5926153  12.6488985  21.4552409  53.2966199  11.6919823
  26.6576593  56.4873710  16.3207683  26.2038920  55.6464620  16.3772874
  26.0270559  57.1235109  16.6582463  25.6009512  47.4165696  17.5508351
  24.8632269  46.9043082  17.8818593  25.8536286  46.9766078  16.7391628
  25.1009532  58.3250207  17.2557501  25.3932506  58.8855264  16.5369867
  25.6108153  58.6178768  18.0110661  25.7021140  40.1941948  18.1450120
  26.0080016  39.3339312  17.8576035  26.4273744  40.7859568  17.9449114
  11.9945496  50.5972635  16.5331718  11.7969895  50.0041995  15.8082784
  11.4392160  50.2924845  17.2507657  19.9742219  50.4895741  18.6526311
  20.0290829  49.5369578  18.5768788  19.1633421  50.6455180  19.1367609
  21.1233413  54.4175864   9.8904594  20.6852843  53.7011723   9.4310232
  21.8643854  54.6451979   9.3289686  17.9134579  49.1072801  16.4116690
  17.1002445  49.4066972  16.8181882  18.4093573  48.7128490  17.1291172
  20.0643157  59.1030558  18.3450955  20.0219336  59.3291404  17.4159487
  20.9805856  58.8693933  18.4936756  23.5108791  49.5714625  25.2431584
  23.8658179  49.7986099  26.1026050  24.1580922  49.9033002  24.6208839
  29.2406528  52.6933061  15.9480913  29.1024426  52.8834657  15.0202102
  28.8842747  53.4552444  16.4048964  17.4048654  46.6791157  22.0277925
  18.0448033  46.5379916  21.3300888  16.5726185  46.3925670  21.6516527
  29.2675907  54.7609588  20.9592184  29.7012414  54.6684877  21.8075238
  29.9807488  54.7367089  20.3212200  18.1808958  55.9793587  18.1412917
  18.9749556  55.4843907  17.9395492  17.4700650  55.4511450  17.7780623
  23.0003802  58.3611682  22.4925285  23.0540825  58.9302619  23.2603001
  22.1318584  58.5313568  22.1279322  14.4891721  50.1236669  14.2172670
  13.5589309  50.0621124  14.4342632  14.5849193  49.6012621  13.4209311
  14.4077270  46.6491482  16.8050912  14.6684088  47.5636815  16.6960072
  15.2294443  46.1815924  16.9547525  15.8802196  48.0629239  23.9749736
  16.5525249  47.8546601  23.3262385  15.0531982  47.8651325  23.5354969
  30.1291457  54.8033289  23.4925070  30.3227347  55.7079100  23.7384345
  30.0292075  54.3440708  24.3263655  21.7827768  44.6891180  25.9915397
  21.1355683  45.3881129  25.8979874  22.5528783  45.1227324  26.3591645
  25.1906566  54.9540032  29.0665950  25.0392072  54.7250583  28.1496034
  25.1811245  55.9110633  29.0797295  21.9591902  52.5271945  24.0512217
  22.8883962  52.6783104  23.8781184  21.5382932  52.6155965  23.1960863
  20.7580234  56.5522609  21.8210754  20.6191320  56.1841393  22.6936693
  19.9694830  57.0670248  21.6494712  21.3528386  61.6531705  13.1636291
  21.5280142  61.1819749  13.9781914  20.6661174  62.2797472  13.3917552
  22.3085449  55.9304212  19.2099592  21.9735282  55.8904982  20.1057242
  21.8089395  55.2648928  18.7370002  16.2829693  51.3371842  24.7352173
  16.1449491  50.6052080  25.3363712  17.1934616  51.2480742  24.4536361
  25.2444641  53.2760246   9.4836652  24.6273811  52.5507074   9.3869705
  24.7761129  54.0369606   9.1403726  18.9111994  51.0491801  24.2235853
  19.6211612  50.4084993  24.1822471  18.8681302  51.3004696  25.1462034
  26.8998772  57.9859154  27.1442432  26.8411319  57.3018374  26.4773015
  27.3018291  58.7278144  26.6923058  17.6240928  48.0357019  26.0431493
  17.0878285  47.5847757  26.6953089  17.0357636  48.1702928  25.3001957
  15.9189471  64.8021068  19.9376151  16.1586069  65.4339592  20.6155170
  15.0758668  64.4509108  20.2241510  26.9016180  55.9498738  25.3756412
  26.0142958  55.6124660  25.4982811  27.4714731  55.2181769  25.6125177
   8.5545327  52.2822830  18.6999463   9.2416367  51.9684560  18.1120479
   8.3993455  53.1864195  18.4266715  13.3580049  47.1713027  23.1284487
  13.2738238  46.5638696  22.3934897  12.5362755  47.6622045  23.1293983
  20.4317333  60.6100191  22.3417655  20.3587505  61.4155162  22.8536960
  19.9894726  60.8092156  21.5165677  20.2207113  59.8471961  15.8520477
  19.4374635  60.3893641  15.9458701  20.9199858  60.3645940  16.2514718
  23.5303763  45.6566590  18.4954682  24.0272462  44.9036552  18.1755752
  22.7590744  45.6930907  17.9297891  31.3833520  51.3606956  20.1372974
  31.3723396  52.2431671  19.7666907  30.5150900  51.0078506  19.9427511
  22.8916017  60.5087025  24.4975814  23.6043989  61.1434489  24.4251715
  22.4006045  60.6050891  23.6815816  24.6133543  54.4138277  16.0693105
  23.6789822  54.5339740  15.8997810  24.7910212  53.5110744  15.8053115
  20.1138732  47.7983973  18.2226367  19.7436519  47.2455013  18.9107272
  20.6097824  47.1942107  17.6701367  28.0006095  50.2555597  16.6043140
  28.4666547  51.0883588  16.5303442  28.4513595  49.7900578  17.3088398
  17.9427930  58.2581468  25.3181385  18.6437390  58.8917951  25.4710779
  17.4723045  58.5996200  24.5577024  26.0682326  56.5999418  13.6029292
  26.3442170  56.4856012  14.5123166  25.1986825  56.2016903  13.5641465
  25.9722758  42.6236184  20.6434041  25.0585837  42.8540410  20.8116248
  26.4015859  42.7074628  21.4948073  25.7429216  50.8126076  23.1433935
  25.0900666  51.0601983  22.4886388  26.1209596  49.9990214  22.8096412
  22.7036390  60.8485769  17.2462105  22.8858784  60.0307425  17.7089858
  23.5269376  61.0653461  16.8086995  23.0378555  59.7753954  14.5077154
  23.5666322  59.2646408  13.8947316  23.3006775  59.4596484  15.3722687
  21.7916789  51.5545887  29.6299972  21.1157426  51.4540016  30.3002347
  22.6144423  51.3985100  30.0935969  13.5395648  57.7917823  22.2512487
  14.1249085  57.0461511  22.3840391  13.3420487  58.1021780  23.1349151
  16.3934303  60.8269071  17.2674930  15.7244679  61.3115198  16.7838970
  16.2547173  61.0738291  18.1818308   8.1313303  50.3623423  20.9716930
   8.1697402  49.8287014  21.7654049   7.6253596  49.8358629  20.3527908
  20.5339572  62.8612814  23.8657588  21.0857880  63.0244436  24.6306673
  20.8745765  63.4517252  23.1937613  15.5104065  45.2087964  24.4679473
  15.5745392  46.0702795  24.0556870  15.4471185  44.5961966  23.7351831
  14.9856338  47.2811096  28.1152507  15.6128377  46.8988174  28.7290031
  14.1284257  47.0625298  28.4808199  25.3850446  57.6874072  29.7206242
  25.9290350  58.3004030  29.2261197  24.8037291  58.2453650  30.2373255
  11.7621880  49.0887526  14.0470862  12.0575322  48.1798204  13.9937916
  10.8609916  49.0675265  13.7251864  23.6707959  60.8094790  20.8521270
  23.5459099  60.0084529  20.3432216  24.3287050  61.3040983  20.3635240
  15.2916127  47.1643522  20.0298410  14.5702713  47.7779490  19.8905884
  16.0809383  47.7001287  19.9515056  25.7342868  58.6103810  22.4800820
  24.7873203  58.4909161  22.4079147  26.0825641  57.7226308  22.5627082
  18.0942441  44.4997949  26.3039062  18.6176843  44.7460245  27.0665371
  17.8754774  45.3317983  25.8842200  13.4909722  46.7701623  14.1710187
  13.1622428  45.8899002  13.9885293  13.8449093  46.7149292  15.0586576
  22.7389301  58.4056526  18.6805172  22.5914263  57.4773233  18.8612743
  23.5642794  58.4276617  18.1962248  16.6051545  47.0574593  14.5385665
  16.9447618  47.5860514  13.8164273  17.0523666  47.3954999  15.3144231
  26.3423423  59.2285085  19.7670045  27.2669970  59.0227946  19.6294496
  26.1738726  58.9801486  20.6759387  19.2994986  45.4411644  23.9888733
  18.9591806  44.6419457  24.3909413  18.5933992  45.7413355  23.4165566
  19.9511458  42.5260956  22.4416056  20.7737527  42.0521434  22.3194946
  20.1949521  43.3051440  22.9414742  18.5919692  45.5549215  12.7378957
  19.3128055  45.9330467  12.2342674  17.9684996  46.2738091  12.8413935
  22.7350815  46.2594364  13.6737290  22.9514430  47.1419001  13.3726118
  22.2544882  45.8680577  12.9442932  17.4750037  49.2180077  20.2508034
  17.3294617  49.5320380  21.1432316  16.9975240  49.8364977  19.6978933
  19.3346419  46.2082625  20.2988924  19.3207988  45.3123718  19.9621222
  20.0518848  46.2153288  20.9327210  21.1872550  46.6419965  22.3442051
  20.9290328  47.5637036  22.3426382  20.6557591  46.2450399  23.0342515
  26.1318739  59.7470752  15.1232137  26.3055616  59.1817175  14.3705989
  26.6247630  60.5471647  14.9411627  11.9495699  51.7585421  23.1895696
  11.4049167  52.5345229  23.3215970  12.8275049  52.1056226  23.0314817
  18.7383315  45.0897005  15.5676494  18.8599227  44.1613651  15.7667382
  18.4485358  45.1035691  14.6554809  21.6074506  42.7751915  18.7043214
  21.6296203  42.8391249  17.7495193  22.0242565  41.9356424  18.8983720
  31.9858130  52.5107175  16.7422436  32.4289276  51.7614500  16.3441560
  31.1084640  52.5017311  16.3596168  27.1193911  59.0637516  12.2229035
  27.8144816  59.6844209  12.4416350  27.4617062  58.2132868  12.4981413
  12.7361721  50.8855317  26.0825852  11.9943457  51.0337953  26.6690483
  12.4154465  51.1463583  25.2192602  29.0185335  56.5137222  13.7516366
  29.5436659  56.8524495  13.0265686  28.9307687  55.5784237  13.5679500
  20.6805383  60.4271296  25.8806242  20.9892510  60.1820442  26.7528942
  21.4780865  60.6317934  25.3925113  20.7025995  62.5809205  18.1111619
  20.2630986  62.0885584  18.8044476  21.4534112  62.0382173  17.8703694
  13.1818334  58.7720746  18.1136247  14.0076354  58.4724518  17.7334891
  12.8312386  58.0028369  18.5626036  18.1499867  58.1247214  20.1833921
  17.5279877  57.4617919  19.8836148  18.8204734  58.1508346  19.5007568
  11.3826939  56.6907073  19.0725181  10.5458848  56.2629247  18.8909182
  11.3550585  56.8839516  20.0095972  18.2224395  46.6029002  29.7766427
  18.2712550  47.4791125  29.3944196  18.7646909  46.0606395  29.2038070
  28.7079241  57.1470126  29.0567564  27.9174784  57.1294265  28.5172063
  28.4712595  57.6858419  29.8116600  28.8277116  53.9962592  26.3700292
  28.8775121  53.8312599  27.3115815  28.7191039  53.1289851  25.9798173
  17.7113374  56.6751138  13.6592381  17.8601495  57.3586602  13.0059054
  18.5179818  56.6556228  14.1741837  26.1180878  49.9793520  27.6859599
  27.0190741  49.8399985  27.3943597  26.1928853  50.1447975  28.6257776
  20.4523683  47.3560375  26.5312785  19.5826993  47.6493941  26.2595374
  20.6883164  47.9400820  27.2520049  30.3295313  56.4159534  26.6142314
  30.0380121  56.7789514  27.4505775  29.7167444  55.7026542  26.4355646
  31.5290995  53.9812413  19.1344884  32.3637886  54.4202217  19.2982444
  31.6650124  53.5051067  18.3153130  28.5782501  51.5392148  25.0822372
  29.0536622  51.7319794  24.2741223  27.6548066  51.5951334  24.8365755
  15.4666007  52.7016315  14.6653450  15.2212049  51.7978645  14.8633660
  15.6361922  52.7033466  13.7232928  23.1562717  43.5739992  24.0478206
  23.6744661  44.3101019  23.7224694  22.8017850  43.8803985  24.8824965
  23.4075311  39.9940274  19.5679102  23.6877065  39.3263463  20.1939529
  24.1925918  40.1869370  19.0553766  21.2108780  59.1699268  11.1304129
  20.6382747  59.7889455  10.6774600  21.7841574  59.7198630  11.6644051
  27.2784170  48.4157908  23.3150677  28.2301593  48.5156006  23.3362901
  27.1087620  47.6236177  23.8248762  25.2998549  45.5013491  23.5010078
  24.7048481  45.7818504  22.8056567  25.0148246  45.9907392  24.2726819
  24.4306040  59.4536418  12.2612711  25.3636713  59.3881980  12.4645586
  24.3429253  60.2892685  11.8027244  27.0594056  58.7702289   9.2216658
  26.9807688  58.4362152  10.1152416  27.8803723  59.2624057   9.2208131
  29.7572248  51.6364028  22.4292977  29.7248568  50.6980029  22.6152661
  30.3672871  51.7148065  21.6958802  21.5955578  50.5060081   8.4720181
  22.5414683  50.3766289   8.5408599  21.2169823  49.7674743   8.9489609
  29.9066736  48.4275071  22.4751260  29.3905785  47.6433528  22.2881189
  30.7906685  48.0993788  22.6397780  27.5677463  42.1716087  18.4347073
  27.3702284  41.8631175  19.3190405  28.1777169  42.8977726  18.5645003
  35.5748797  52.6980035  21.5699014  36.3052186  52.4365323  22.1306717
  34.9655743  51.9608757  21.6101082  33.6564095  50.8387897  22.1673465
  32.9297258  50.7043862  21.5589957  33.2411381  51.1464726  22.9730183
  21.4794271  54.5577827  29.9320838  22.3997280  54.7356426  30.1260885
  21.4443854  53.6133872  29.7800537  10.6976436  49.7516421  18.8574113
  10.3779220  48.8981729  18.5648487  10.1509864  49.9664999  19.6132080
  14.4756343  52.4678862  22.5743619  14.6942353  53.3995970  22.5931653
  14.8882117  52.1086836  23.3598423  21.3960561  42.9746947  14.5619308
  20.5861290  42.6294032  14.9374554  22.0844978  42.6654491  15.1506919
  23.3251110  42.0524994  16.1843604  23.8782148  42.4720447  16.8433627
  23.5621196  41.1260742  16.2266560  19.3484209  48.0412067  31.9646368
  19.2480936  48.9906424  31.8958459  19.1305751  47.7130306  31.0922438
  10.5664696  53.3719332  20.8267234   9.8728167  52.9573285  20.3137189
  11.3137687  53.4139869  20.2300653  26.7029917  44.1625519  15.6922268
  26.1228586  44.8210323  15.3100321  26.4365849  43.3402864  15.2809686
  25.1533483  43.5630577  17.8943589  25.6533261  43.6747111  17.0857908
  25.7969091  43.2591630  18.5344397  19.2115479  51.4709206  30.7811430
  18.7282561  52.2709566  30.9875319  19.2976418  51.4817151  29.8278874
  12.4801438  53.3037586  18.7033249  12.4572127  53.4025273  17.7515132
  12.7902075  54.1502737  19.0250415  15.1388816  55.3613741  22.8179864
  16.0932070  55.3297683  22.7509795  14.9401340  54.9004365  23.6330089
  15.7288198  53.9314857  25.3850661  16.5481087  54.4258936  25.4085499
  16.0025006  53.0146825  25.3568229  25.4854795  46.3225609  14.7478617
  24.5980650  46.6075260  14.5298812  25.9008784  46.1619373  13.9005894
  28.8369331  46.3472130  18.4632956  29.6129721  46.8368583  18.7357573
  28.1117465  46.7730185  18.9204826  31.2741889  47.0599750  19.5206897
  31.8686380  46.8195486  18.8100205  31.3468473  46.3406880  20.1480433
  13.4939045  60.9033361  19.8350061  13.3593513  60.1433761  19.2688059
  13.0771107  61.6274260  19.3678850  24.6298008  56.0870284   8.8426637
  25.3333858  56.2920287   9.4584292  23.9060657  56.6547046   9.1075720
  25.4595818  51.8380145  14.9628907  25.4031020  52.2948697  14.1236539
  26.0124161  51.0770830  14.7851750  29.2700624  47.6269877  15.7879026
  29.0137559  47.2266513  16.6187234  28.6453492  48.3413671  15.6629166
  33.5812962  50.3665950  18.2950318  33.0212520  50.4359140  19.0681880
  32.9756466  50.1906935  17.5749814  16.6508171  61.8002678  20.0468504
  16.5340555  62.7448110  19.9447194  15.8300617  61.4976239  20.4354303
  26.5384706  56.5252813  10.8925097  27.3730309  56.0934012  10.7102572
  26.3769048  56.3534827  11.8201991  26.1930598  53.0284927  12.2581436
  26.1379402  52.8629198  11.3169880  25.5676653  53.7360959  12.4143626
  10.9823113  48.2652991  26.0842858  11.6281976  47.7551945  26.5730083
  10.7740264  49.0021673  26.6586284  23.5076505  55.3333838  31.5834999
  24.3767665  55.5074491  31.2221634  23.0283256  56.1528255  31.4610728
  17.6762685  62.4530939  23.2624433  18.5789932  62.4854550  23.5790927
  17.4500055  61.5231390  23.2770768  19.4316287  61.2061926  19.9234511
  18.4811918  61.2063788  19.8098883  19.7348773  60.4594661  19.4070546
  23.3178843  39.1235812  16.0912691  22.5511238  38.5694299  16.2369374
  23.7289548  39.1957681  16.9526843  15.3220604  45.4120608  30.1817873
  16.1852065  45.0557413  30.3921197  14.7486014  45.0734503  30.8693277
  35.1668981  67.0422464  20.9880274  35.8047391  66.9229212  20.2843614
  35.0489824  67.9903308  21.0468226  31.9758687  66.9949892  20.9241798
  31.6377198  66.8790957  20.0362333  32.8448455  66.5941058  20.9042804
  27.8345503  68.8485369  16.9138689  27.2710368  68.7575306  16.1454977
  27.7197898  68.0285273  17.3941182  32.4578470  68.1484744  26.8828004
  32.4467111  67.7537542  26.0108507  32.6199109  67.4150817  27.4761775
  25.3809935  70.3436560  19.7522910  26.1731226  70.0027385  19.3369209
  25.6206585  70.4531536  20.6725063  33.4145061  72.5156337  12.2253154
  32.7633041  73.1010417  11.8387168  34.2089424  73.0462531  12.2848192
  27.3400688  69.6045474  12.6240288  28.1131564  69.0574461  12.4853164
  27.6926087  70.4689723  12.8354750  29.1785731  70.9321856  25.8307188
  28.8875597  71.8367487  25.7153854  29.8142715  70.9738384  26.5451257
  30.1041938  68.3098705  22.4208547  30.7005510  68.0854727  21.7065510
  30.1616909  67.5683450  23.0233995  29.6766966  65.7638140  10.2558738
  29.9292487  65.2419661   9.4942201  28.7391525  65.6004285  10.3585422
  34.7210249  64.7673918  18.0633482  35.5073338  64.3493341  17.7123899
  34.9848953  65.6720010  18.2315130  34.8920326  70.2046769  12.7622138
  34.2566159  70.2781395  13.4743043  34.5617733  70.7940367  12.0841218
  40.1218676  64.7049151  18.9666460  40.8543848  64.1348368  19.2004290
  39.3658032  64.3170752  19.4072966  29.3963255  67.6666246  12.4583113
  29.2799513  66.9911149  13.1264198  29.5065515  67.1798620  11.6415266
  31.7394796  67.1276393  16.1629803  31.3753003  66.6007014  16.8742724
  32.5961912  66.7374862  15.9896288  37.6444097  58.4170726  23.4261069
  37.3127421  59.2866136  23.2022284  37.0489710  58.1007010  24.1055099
  31.3800283  62.1566293  11.1591151  31.5474685  63.0246529  11.5261622
  31.1897452  62.3193574  10.2352440  34.1375616  70.6183272  22.8256981
  33.8376339  71.5208310  22.7172789  33.7926676  70.3515455  23.6778134
  27.5888098  67.0697068  18.8593686  26.6638594  66.9373282  19.0671378
  27.8372511  67.8491288  19.3563628  37.5372760  63.1365812  20.5054419
  36.6289637  63.0681220  20.2113180  37.4860356  63.6137757  21.3336244
  31.3589504  64.6123950  12.1437818  31.2389129  65.0581001  12.9823298
  30.6642092  64.9609268  11.5851356  24.9496909  66.7130342  19.6937475
  25.0789290  66.9664821  20.6076887  24.2694360  67.3058050  19.3742130
  29.1196396  77.3827592  15.7927949  29.0420426  78.3335417  15.8716430
  28.5158040  77.0373464  16.4502875  31.6113626  64.5555457  28.4489316
  30.8346960  65.1149377  28.4392181  32.2504189  65.0412240  28.9704186
  39.4034406  61.3382250  22.2832293  38.7608787  61.6314783  21.6372087
  38.8989335  61.2235170  23.0885489  37.0574570  65.0845423  12.9718152
  37.9692426  65.3172810  12.7965849  36.5484217  65.6682467  12.4093231
  29.8659998  67.3640911  28.0107283  30.6074682  67.9025955  27.7342107
  29.1596983  67.9907199  28.1678835  31.6946408  64.4442658  23.9813001
  32.5407603  64.8682071  24.1247650  31.6345045  63.7876282  24.6751565
  35.6644152  70.0671242  20.3631733  35.0353015  70.2316956  19.6607801
  35.2769814  70.4812851  21.1342697  34.8445853  62.1047026  25.6394175
  34.6006785  62.8589087  25.1028451  35.1205784  62.4832374  26.4741422
  34.4010545  61.2603459  21.2208013  33.5395024  61.5584713  21.5124750
  34.4272979  61.4773858  20.2889045  31.2172114  69.8045650  17.6281819
  31.6810460  70.0833353  16.8386441  30.9528912  68.9029094  17.4454909
  28.1096195  69.3517131  20.5661582  28.6797552  69.7804400  19.9279066
  28.7004307  69.0699716  21.2645767  30.1541000  65.9268802  14.4371384
  30.8565044  66.3789846  14.9045310  29.8221629  65.2852621  15.0651277
  28.6021362  64.5180559  28.8122593  27.9720022  65.1996840  29.0457990
  28.4957450  64.4063640  27.8675731  23.8966334  64.1852355  19.7388517
  23.1065388  64.4409883  19.2628628  24.3877582  65.0000693  19.8440558
  25.8481080  64.5496934  16.6971994  25.0512243  64.6615628  17.2155490
  25.6206672  64.8883586  15.8312884  31.6786747  71.0741637  24.6454509
  31.7431180  71.5362045  25.4812680  30.9697671  70.4439002  24.7736818
  22.1804037  64.4382845  22.1703508  22.4312076  65.3229855  22.4361084
  22.7163586  64.2587447  21.3978600  31.3934765  72.7409745  14.5133489
  31.2580440  73.5861281  14.9418337  31.9344577  72.9429022  13.7499423
  27.8802104  58.8201325  31.1747844  27.4869050  58.2667523  31.8495488
  28.6968245  59.1311903  31.5654362  24.8464162  70.2585183  15.0861414
  25.3588683  71.0528433  15.2366979  25.4986875  69.5611473  15.0195015
  26.6559047  73.3750939  17.1684167  26.8325675  74.2968904  16.9805151
  27.4515880  73.0609358  17.5978547  30.7970065  60.2359204  28.7668101
  31.5379779  60.8366357  28.6872563  31.0287988  59.4936842  28.2086143
  25.9411403  65.4215571  27.0446330  25.8264919  64.5200828  27.3453429
  25.0855921  65.6679268  26.6931147  27.7790362  74.8929113  23.1694509
  28.3297788  74.7646176  22.3971503  26.9401838  75.1924002  22.8189402
  31.5757533  71.1580241  27.5138741  32.1085870  70.3968529  27.2838049
  31.0471615  70.8653893  28.2562895  34.7427228  56.2640307  23.0432382
  34.3991498  57.1541948  22.9671493  35.1106191  56.0741964  22.1801967
  22.8113079  68.5873837  15.8620984  23.6488301  68.9970846  15.6454692
  22.9891347  67.6473279  15.8321178  34.7077511  66.2548918  11.5504817
  34.1924135  67.0253522  11.7893205  34.4354820  65.5814054  12.1737879
  32.2924622  61.0998619  16.6090056  31.4366219  60.7105469  16.4295695
  32.7051574  61.1790579  15.7489841  33.8223769  58.6344962  21.0081616
  33.3188564  58.5975097  20.1949421  34.1154376  59.5437705  21.0678272
  30.0666655  58.7183692  20.0147797  30.9319651  58.5226500  19.6553687
  30.1344164  58.4894043  20.9417154  39.6811785  69.0081272  13.4857991
  38.9041228  68.6692432  13.0413153  40.3603266  69.0133896  12.8112956
  34.4963814  64.1276010  13.3764599  34.1913950  64.4422159  14.2274742
  35.4494256  64.2057430  13.4191932  32.9410246  70.2866233  15.0257553
  32.4131608  69.5518993  14.7130790  32.4397749  71.0640910  14.7797521
  37.9203092  68.4815254  20.1424599  37.2626767  69.1714515  20.2304728
  38.7243491  68.8711686  20.4858585  27.6728974  60.9485899  17.3864164
  28.2472726  60.7261081  16.6537357  28.2599956  61.0174594  18.1392765
  36.7308551  66.8359626  18.1928541  37.2440433  67.4689618  18.6950250
  37.3809775  66.2360822  17.8271901  27.9998561  62.9790361  11.4060049
  27.1635873  63.3165047  11.7269324  27.8603331  62.8439340  10.4687186
  29.9751641  57.8227148  16.1139234  29.3216054  57.5076166  15.4895848
  29.9332116  57.2002889  16.8399056  31.0862846  68.1046443   8.0292526
  30.1789908  67.8735697   8.2283675  31.5833878  67.3084063   8.2166507
  33.9930925  76.8143951  10.9489212  33.3192624  77.1175647  11.5574170
  34.3796747  77.6173031  10.5994669  33.2089382  64.3109082  20.4386881
  32.2911943  64.5324029  20.2808569  33.6249525  64.3855392  19.5798589
  33.9924430  65.7100498  15.5689561  34.7396249  66.2221895  15.2596683
  34.2616019  65.3884550  16.4293955  32.2651080  68.2059038  12.5516516
  31.3562299  67.9218071  12.6488985  32.2946164  68.6258117  11.6919823
  36.4403267  62.7457614  17.5508351  35.7026024  62.2335000  17.8818593
  36.6930040  62.3057995  16.7391628  36.5414894  55.5233866  18.1450120
  36.8473771  54.6631229  17.8576035  37.2667499  56.1151486  17.9449114
  22.8339250  65.9264552  16.5331718  22.6363650  65.3333913  15.8082784
  22.2785914  65.6216763  17.2507657  30.8135974  65.8187659  18.6526311
  30.8684584  64.8661495  18.5768788  30.0027176  65.9747098  19.1367609
  31.9627168  69.7467782   9.8904594  31.5246598  69.0303641   9.4310232
  32.7037608  69.9743897   9.3289686  28.7528334  64.4364719  16.4116690
  27.9396199  64.7358889  16.8181882  29.2487328  64.0420407  17.1291172
  30.9036912  74.4322476  18.3450955  30.8613090  74.6583322  17.4159487
  31.8199610  74.1985850  18.4936756  28.2442408  62.0083074  22.0277925
  28.8841788  61.8671833  21.3300888  27.4119939  61.7217588  21.6516527
  29.0202712  71.3085505  18.1412917  29.8143311  70.8135825  17.9395492
  28.3094405  70.7803368  17.7780623  33.8397557  73.6903600  22.4925285
  33.8934579  74.2594536  23.2603001  32.9712338  73.8605485  22.1279322
  25.3285476  65.4528586  14.2172670  24.3983064  65.3913042  14.4342632
  25.4242948  64.9304539  13.4209311  25.2471025  61.9783399  16.8050912
  25.5077842  62.8928732  16.6960072  26.0688197  61.5107842  16.9547525
  26.7195950  63.3921156  23.9749736  27.3919004  63.1838519  23.3262385
  25.8925737  63.1943242  23.5354969  32.6221522  60.0183097  25.9915397
  31.9749437  60.7173047  25.8979874  33.3922538  60.4519241  26.3591645
  32.7985657  67.8563862  24.0512217  33.7277717  68.0075022  23.8781184
  32.3776687  67.9447883  23.1960863  31.5973988  71.8814527  21.8210754
  31.4585074  71.5133311  22.6936693  30.8088585  72.3962166  21.6494712
  32.1922140  76.9823623  13.1636291  32.3673896  76.5111666  13.9781914
  31.5054928  77.6089389  13.3917552  33.1479204  71.2596129  19.2099592
  32.8129036  71.2196899  20.1057242  32.6483149  70.5940845  18.7370002
  27.1223448  66.6663759  24.7352173  26.9843245  65.9343998  25.3363712
  28.0328371  66.5772659  24.4536361  36.0838395  68.6052164   9.4836652
  35.4667566  67.8798992   9.3869705  35.6154884  69.3661524   9.1403726
  29.7505748  66.3783719  24.2235853  30.4605367  65.7376911  24.1822471
  29.7075056  66.6296614  25.1462034  28.4634682  63.3648937  26.0431493
  27.9272039  62.9139675  26.6953089  27.8751391  63.4994845  25.3001957
  26.7583226  80.1312986  19.9376151  26.9979824  80.7631510  20.6155170
  25.9152422  79.7801026  20.2241510  27.8736941  62.8237588   8.6057956
  26.9966407  62.7026389   8.2420203  28.3494694  62.0323666   8.3536845
  19.3939081  67.6114748  18.6999463  20.0810121  67.2976478  18.1120479
  19.2387210  68.5156112  18.4266715  24.1973803  62.5004944  23.1284487
  24.1131992  61.8930614  22.3934897  23.3756510  62.9913963  23.1293983
  31.2711088  75.9392108  22.3417655  31.1981259  76.7447080  22.8536960
  30.8288481  76.1384074  21.5165677  31.0600867  75.1763878  15.8520477
  30.2768389  75.7185559  15.9458701  31.7593612  75.6937858  16.2514718
  34.3697517  60.9858508  18.4954682  34.8666217  60.2328470  18.1755752
  33.5984499  61.0222824  17.9297891  35.4527298  69.7430195  16.0693105
  34.5183577  69.8631657  15.8997810  35.6303966  68.8402662  15.8053115
  30.9532486  63.1275891  18.2226367  30.5830274  62.5746931  18.9107272
  31.4491578  62.5234024  17.6701367  38.8399849  65.5847514  16.6043140
  39.3060301  66.4175506  16.5303442  39.2907350  65.1192496  17.3088398
  28.7821685  73.5873386  25.3181385  29.4831144  74.2209869  25.4710779
  28.3116800  73.9288117  24.5577024  36.9076080  71.9291336  13.6029292
  37.1835924  71.8147930  14.5123166  36.0380579  71.5308820  13.5641465
  36.8116512  57.9528101  20.6434041  35.8979592  58.1832328  20.8116248
  37.2409614  58.0366545  21.4948073  33.5430144  76.1777686  17.2462105
  33.7252539  75.3599342  17.7089858  34.3663130  76.3945379  16.8086995
  33.8772310  75.1045872  14.5077154  34.4060076  74.5938326  13.8947316
  34.1400529  74.7888402  15.3722687  24.3789403  73.1209741  22.2512487
  24.9642839  72.3753429  22.3840391  24.1814241  73.4313698  23.1349151
  27.2328058  76.1560988  17.2674930  26.5638433  76.6407116  16.7838970
  27.0940928  76.4030209  18.1818308  18.9707057  65.6915341  20.9716930
  19.0091157  65.1578932  21.7654049  18.4647350  65.1650547  20.3527908
  26.3497820  60.5379882  24.4679473  26.4139146  61.3994712  24.0556870
  26.2864940  59.9253883  23.7351831  25.8250092  62.6103014  28.1152507
  26.4522131  62.2280091  28.7290031  24.9678011  62.3917216  28.4808199
  22.6015635  64.4179443  14.0470862  22.8969076  63.5090122  13.9937916
  21.7003671  64.3967183  13.7251864  26.1309882  62.4935440  20.0298410
  25.4096468  63.1071407  19.8905884  26.9203138  63.0293205  19.9515056
  28.9336195  59.8289866  26.3039062  29.4570597  60.0752163  27.0665371
  28.7148529  60.6609901  25.8842200  24.3303477  62.0993541  14.1710187
  24.0016183  61.2190920  13.9885293  24.6842847  62.0441210  15.0586576
  33.5783055  73.7348444  18.6805172  33.4308018  72.8065151  18.8612743
  34.4036549  73.7568534  18.1962248  27.4445300  62.3866511  14.5385665
  27.7841372  62.9152432  13.8164273  27.8917420  62.7246917  15.3144231
  30.1388741  60.7703561  23.9888733  29.7985561  59.9711374  24.3909413
  29.4327747  61.0705272  23.4165566  30.7905212  57.8552874  22.4416056
  31.6131282  57.3813352  22.3194946  31.0343276  58.6343358  22.9414742
  29.4313447  60.8841132  12.7378957  30.1521809  61.2622385  12.2342674
  28.8078751  61.6030009  12.8413935  33.5744570  61.5886281  13.6737290
  33.7908184  62.4710919  13.3726118  33.0938637  61.1972495  12.9442932
  28.3143791  64.5471994  20.2508034  28.1688372  64.8612298  21.1432316
  27.8368995  65.1656895  19.6978933  30.1740174  61.5374542  20.2988924
  30.1601743  60.6415636  19.9621222  30.8912602  61.5445206  20.9327210
  32.0266305  61.9711883  22.3442051  31.7684083  62.8928953  22.3426382
  31.4951345  61.5742317  23.0342515  22.7889453  67.0877339  23.1895696
  22.2442921  67.8637147  23.3215970  23.6668803  67.4348143  23.0314817
  29.5777070  60.4188923  15.5676494  29.6992981  59.4905569  15.7667382
  29.2879112  60.4327609  14.6554809  32.4468260  58.1043833  18.7043214
  32.4689957  58.1683166  17.7495193  32.8636319  57.2648342  18.8983720
  37.9587666  74.3929434  12.2229035  38.6538571  75.0136127  12.4416350
  38.3010816  73.5424785  12.4981413  23.5755475  66.2147235  26.0825852
  22.8337211  66.3629870  26.6690483  23.2548219  66.4755501  25.2192602
  31.5419750  77.9101123  18.1111619  31.1024740  77.4177502  18.8044476
  32.2927867  77.3674091  17.8703694  24.0212089  74.1012664  18.1136247
  24.8470109  73.8016436  17.7334891  23.6706141  73.3320286  18.5626036
  28.9893622  73.4539132  20.1833921  28.3673631  72.7909837  19.8836148
  29.6598489  73.4800264  19.5007568  22.2220694  72.0198990  19.0725181
  21.3852602  71.5921165  18.8909182  22.1944339  72.2131434  20.0095972
  29.0618149  61.9320920  29.7766427  29.1106305  62.8083043  29.3944196
  29.6040664  61.3898313  29.2038070  28.5507129  72.0043055  13.6592381
  28.6995249  72.6878520  13.0059054  29.3573572  71.9848145  14.1741837
  31.2917438  62.6852292  26.5312785  30.4220747  62.9785859  26.2595374
  31.5276918  63.2692737  27.2520049  26.3059762  68.0308233  14.6653450
  26.0605804  67.1270563  14.8633660  26.4755676  68.0325383  13.7232928
  33.9956472  58.9031909  24.0478206  34.5138416  59.6392936  23.7224694
  33.6411605  59.2095903  24.8824965  25.5755409  63.7636591  12.1639612
  24.8824654  63.8380946  11.5079647  25.3307161  62.9996934  12.6861128
  34.2469066  55.3232192  19.5679102  34.5270820  54.6555381  20.1939529
  35.0319673  55.5161288  19.0553766  32.0502534  74.4991186  11.1304129
  31.4776501  75.1181373  10.6774600  32.6235328  75.0490548  11.6644051
  38.1177924  63.7449826  23.3150677  39.0695347  63.8447924  23.3362901
  37.9481375  62.9528094  23.8248762  36.1392304  60.8305409  23.5010078
  35.5442236  61.1110422  22.8056567  35.8542000  61.3199310  24.2726819
  35.2699794  74.7828336  12.2612711  36.2030467  74.7173898  12.4645586
  35.1823007  75.6184603  11.8027244  37.8987811  74.0994206   9.2216658
  37.8201442  73.7654070  10.1152416  38.7197478  74.5915974   9.2208131
  32.4349333  65.8351999   8.4720181  33.3808438  65.7058207   8.5408599
  32.0563578  65.0966661   8.9489609  40.7460491  63.7566989  22.4751260
  40.2299539  62.9725446  22.2881189  41.6300439  63.4285706  22.6397780
  38.4071217  57.5008005  18.4347073  38.2096039  57.1923093  19.3190405
  39.0170923  58.2269644  18.5645003  30.6192250  63.7601975   8.4075066
  29.7123705  63.4635088   8.4837780  30.8968231  63.4631793   7.5409353
  21.5370190  65.0808338  18.8574113  21.2172975  64.2273647  18.5648487
  20.9903619  65.2956917  19.6132080  25.3150098  67.7970779  22.5743619
  25.5336108  68.7287887  22.5931653  25.7275872  67.4378754  23.3598423
  32.2354316  58.3038865  14.5619308  31.4255044  57.9585950  14.9374554
  32.9238733  57.9946408  15.1506919  34.1644864  57.3816912  16.1843604
  34.7175903  57.8012365  16.8433627  34.4014950  56.4552660  16.2266560
  30.1877963  63.3703985  31.9646368  30.0874690  64.3198342  31.8958459
  29.9699505  63.0422224  31.0922438  29.3891035  60.6188910   8.5487045
  30.2510199  60.9443809   8.8082863  29.5741379  59.8320406   8.0360111
  21.4058450  68.7011250  20.8267234  20.7121922  68.2865203  20.3137189
  22.1531441  68.7431786  20.2300653  37.5423671  59.4917437  15.6922268
  36.9622340  60.1502241  15.3100321  37.2759604  58.6694781  15.2809686
  35.9927238  58.8922494  17.8943589  36.4927016  59.0039029  17.0857908
  36.6362845  58.5883547  18.5344397  30.0509233  66.8001124  30.7811430
  29.5676315  67.6001484  30.9875319  30.1370172  66.8109069  29.8278874
  23.3195193  68.6329504  18.7033249  23.2965881  68.7317191  17.7515132
  23.6295829  69.4794654  19.0250415  25.9782571  70.6905659  22.8179864
  26.9325824  70.6589601  22.7509795  25.7795094  70.2296282  23.6330089
  26.5681953  69.2606775  25.3850661  27.3874842  69.7550853  25.4085499
  26.8418761  68.3438743  25.3568229  36.3248549  61.6517527  14.7478617
  35.4374404  61.9367178  14.5298812  36.7402538  61.4911290  13.9005894
  39.6763085  61.6764048  18.4632956  40.4523475  62.1660500  18.7357573
  38.9511219  62.1022102  18.9204826  42.1135644  62.3891667  19.5206897
  42.7080135  62.1487403  18.8100205  42.1862228  61.6698798  20.1480433
  24.3332800  76.2325278  19.8350061  24.1987268  75.4725679  19.2688059
  23.9164862  76.9566178  19.3678850  35.4691763  71.4162202   8.8426637
  36.1727613  71.6212204   9.4584292  34.7454411  71.9838964   9.1075720
  36.2989573  67.1672063  14.9628907  36.2424774  67.6240614  14.1236539
  36.8517915  66.4062748  14.7851750  40.1094379  62.9561795  15.7879026
  39.8531313  62.5558431  16.6187234  39.4847247  63.6705589  15.6629166
  27.4901925  77.1294595  20.0468504  27.3734310  78.0740028  19.9447194
  26.6694372  76.8268157  20.4354303  37.3778460  71.8544731  10.8925097
  38.2124064  71.4225929  10.7102572  37.2162803  71.6826745  11.8201991
  37.0324352  68.3576844  12.2581436  36.9773156  68.1921116  11.3169880
  36.4070407  69.0652877  12.4143626  21.8216867  63.5944909  26.0842858
  22.4675731  63.0843863  26.5730083  21.6134018  64.3313590  26.6586284
  30.3420478  57.8584953  11.8366754  30.3299148  58.8026793  11.9935025
  31.2343900  57.6755099  11.5426216  28.5156440  77.7822857  23.2624433
  29.4183686  77.8146467  23.5790927  28.2893810  76.8523308  23.2770768
  30.2710042  76.5353844  19.9234511  29.3205673  76.5355705  19.8098883
  30.5742528  75.7886578  19.4070546  34.1572597  54.4527730  16.0912691
  33.3904993  53.8986217  16.2369374  34.5683302  54.5249599  16.9526843
  26.1614358  60.7412526  30.1817873  27.0245820  60.3849331  30.3921197
  25.5879769  60.4026421  30.8693277  38.6739257  84.1777287  16.9138689
  38.1104122  84.0867223  16.1454977  38.5591652  83.3577191  17.3941182
  44.2538816  87.8448254  12.2253154  43.6026796  88.4302335  11.8387168
  45.0483179  88.3754449  12.2848192  38.1794443  84.9337391  12.6240288
  38.9525319  84.3866378  12.4853164  38.5319842  85.7981641  12.8354750
  40.5160721  81.0930058  10.2558738  40.7686241  80.5711579   9.4942201
  39.5785280  80.9296203  10.3585422  45.7314081  85.5338686  12.7622138
  45.0959914  85.6073313  13.4743043  45.4011487  86.1232285  12.0841218
  40.2357010  82.9958163  12.4583113  40.1193268  82.3203067  13.1264198
  40.3459269  82.5090537  11.6415266  42.2194037  77.4858210  11.1591151
  42.3868440  78.3538447  11.5261622  42.0291207  77.6485492  10.2352440
  39.9590150  92.7119510  15.7927949  39.8814180  93.6627335  15.8716430
  39.3551794  92.3665382  16.4502875  47.8968324  80.4137341  12.9718152
  48.8086181  80.6464728  12.7965849  47.3877972  80.9974385  12.4093231
  42.2328519  88.0701662  14.5133489  42.0974194  88.9153198  14.9418337
  42.7738332  88.2720940  13.7499423  35.6857917  85.5877101  15.0861414
  36.1982437  86.3820351  15.2366979  36.3380630  84.8903391  15.0195015
  37.4952801  88.7042857  17.1684167  37.6719430  89.6260821  16.9805151
  38.2909635  88.3901276  17.5978547  33.6506834  83.9165755  15.8620984
  34.4882056  84.3262763  15.6454692  33.8285101  82.9765197  15.8321178
  45.5471266  81.5840835  11.5504817  45.0317889  82.3545440  11.7893205
  45.2748574  80.9105972  12.1737879  43.7804001  85.6158151  15.0257553
  43.2525362  84.8810910  14.7130790  43.2791503  86.3932827  14.7797521
  38.8392315  78.3082278  11.4060049  38.0029628  78.6456965  11.7269324
  38.6997085  78.1731258  10.4687186  41.9256601  83.4338361   8.0292526
  41.0183663  83.2027615   8.2283675  42.4227633  82.6375980   8.2166507
  44.8324680  92.1435868  10.9489212  44.1586378  92.4467565  11.5574170
  45.2190502  92.9464949  10.5994669  43.1044834  83.5350956  12.5516516
  42.1956054  83.2509989  12.6488985  43.1339918  83.9550035  11.6919823
  33.6733005  81.2556470  16.5331718  33.4757404  80.6625831  15.8082784
  33.1179669  80.9508680  17.2507657  42.8020922  85.0759700   9.8904594
  42.3640352  84.3595559   9.4310232  43.5431363  85.3035815   9.3289686
  36.1679230  80.7820504  14.2172670  35.2376818  80.7204960  14.4342632
  36.2636702  80.2596457  13.4209311  43.0315895  92.3115541  13.1636291
  43.2067651  91.8403584  13.9781914  42.3448683  92.9381307  13.3917552
  46.9232150  83.9344081   9.4836652  46.3061320  83.2090909   9.3869705
  46.4548638  84.6953442   9.1403726  37.5976980  95.4604904  19.9376151
  37.8373578  96.0923428  20.6155170  36.7546177  95.1092944  20.2241510
  38.7130696  78.1529506   8.6057956  37.8360162  78.0318306   8.2420203
  39.1888449  77.3615584   8.3536845  30.2332836  82.9406665  18.6999463
  30.9203876  82.6268395  18.1120479  30.0780964  83.8448030  18.4266715
  41.8994622  90.5055796  15.8520477  41.1162144  91.0477476  15.9458701
  42.5987367  91.0229776  16.2514718  49.6793604  80.9139432  16.6043140
  50.1454056  81.7467424  16.5303442  50.1301104  80.4484414  17.3088398
  47.7469835  87.2583253  13.6029292  48.0229679  87.1439848  14.5123166
  46.8774334  86.8600738  13.5641465  44.3823899  91.5069604  17.2462105
  44.5646293  90.6891260  17.7089858  45.2056885  91.7237296  16.8086995
  44.7166064  90.4337789  14.5077154  45.2453831  89.9230244  13.8947316
  44.9794284  90.1180319  15.3722687  38.0721812  91.4852906  17.2674930
  37.4032188  91.9699034  16.7838970  37.9334682  91.7322126  18.1818308
  29.8100812  81.0207259  20.9716930  29.8484911  80.4870849  21.7654049
  29.3041105  80.4942464  20.3527908  33.4409389  79.7471361  14.0470862
  33.7362831  78.8382039  13.9937916  32.5397425  79.7259100  13.7251864
  35.1697231  77.4285459  14.1710187  34.8409937  76.5482837  13.9885293
  35.5236602  77.3733127  15.0586576  38.2839054  77.7158428  14.5385665
  38.6235127  78.2444350  13.8164273  38.7311175  78.0538834  15.3144231
  40.2707201  76.2133050  12.7378957  40.9915564  76.5914303  12.2342674
  39.6472505  76.9321927  12.8413935  47.8106248  90.4054587  15.1232137
  47.9843125  89.8401010  14.3705989  48.3035139  91.2055482  14.9411627
  48.7981420  89.7221352  12.2229035  49.4932325  90.3428045  12.4416350
  49.1404571  88.8716703  12.4981413  50.6972844  87.1721057  13.7516366
  51.2224168  87.5108330  13.0265686  50.6095196  86.2368073  13.5679500
  34.8605843  89.4304581  18.1136247  35.6863863  89.1308353  17.7334891
  34.5099895  88.6612204  18.5626036  33.0614448  87.3490908  19.0725181
  32.2246357  86.9213082  18.8909182  33.0338094  87.5423351  20.0095972
  39.3900883  87.3334973  13.6592381  39.5389004  88.0170437  13.0059054
  40.1967327  87.3140063  14.1741837  37.1453516  83.3600151  14.6653450
  36.8999558  82.4562481  14.8633660  37.3149431  83.3617301  13.7232928
  36.4149164  79.0928508  12.1639612  35.7218409  79.1672863  11.5079647
  36.1700916  78.3288852  12.6861128  42.8896289  89.8283104  11.1304129
  42.3170256  90.4473291  10.6774600  43.4629083  90.3782465  11.6644051
  46.1093549  90.1120254  12.2612711  47.0424222  90.0465815  12.4645586
  46.0216761  90.9476521  11.8027244  48.7381565  89.4286124   9.2216658
  48.6595197  89.0945988  10.1152416  49.5591232  89.9207892   9.2208131
  43.2743087  81.1643916   8.4720181  44.2202192  81.0350124   8.5408599
  42.8957332  80.4258578   8.9489609  41.4586005  79.0893893   8.4075066
  40.5517460  78.7927005   8.4837780  41.7361986  78.7923711   7.5409353
  40.2284789  75.9480828   8.5487045  41.0903953  76.2735726   8.8082863
  40.4135133  75.1612324   8.0360111  35.1726554  91.5617196  19.8350061
  35.0381022  90.8017597  19.2688059  34.7558616  92.2858096  19.3678850
  46.3085517  86.7454119   8.8426637  47.0121367  86.9504122   9.4584292
  45.5848166  87.3130881   9.1075720  47.1383327  82.4963981  14.9628907
  47.0818529  82.9532532  14.1236539  47.6911670  81.7354665  14.7851750
  38.3295680  92.4586513  20.0468504  38.2128064  93.4031945  19.9447194
  37.5088126  92.1560074  20.4354303  48.2172215  87.1836649  10.8925097
  49.0517818  86.7517847  10.7102572  48.0556557  87.0118662  11.8201991
  47.8718107  83.6868762  12.2581436  47.8166910  83.5213033  11.3169880
  47.2464162  84.3944795  12.4143626  56.8456490  97.7006300  20.9880274
  57.4834900  97.5813047  20.2843614  56.7277333  98.6487144  21.0468226
  53.6546196  97.6533728  20.9241798  53.3164707  97.5374793  20.0362333
  54.5235964  97.2524893  20.9042804  49.5133012  99.5069204  16.9138689
  48.9497877  99.4159141  16.1454977  49.3985407  98.6869109  17.3941182
  54.1365979  98.8068580  26.8828004  54.1254620  98.4121378  26.0108507
  54.2986618  98.0734652  27.4761775  47.0597444 101.0020396  19.7522910
  47.8518735 100.6611220  19.3369209  47.2994094 101.1115371  20.6725063
  55.0932570 103.1740172  12.2253154  54.4420550 103.7594252  11.8387168
  55.8876933 103.7046367  12.2848192  49.0188197 100.2629309  12.6240288
  49.7919073  99.7158296  12.4853164  49.3713596 101.1273558  12.8354750
  50.8573240 101.5905691  25.8307188  50.5663106 102.4951322  25.7153854
  51.4930224 101.6322219  26.5451257  51.7829447  98.9682540  22.4208547
  52.3793019  98.7438562  21.7065510  51.8404418  98.2267285  23.0233995
  51.3554475  96.4221975  10.2558738  51.6079996  95.9003496   9.4942201
  50.4179034  96.2588121  10.3585422  56.3997758  95.4257754  18.0633482
  57.1860847  95.0077177  17.7123899  56.6636462  96.3303846  18.2315130
  56.5707835 100.8630604  12.7622138  55.9353668 100.9365230  13.4743043
  56.2405242 101.4524203  12.0841218  61.8006185  95.3632987  18.9666460
  62.5331357  94.7932204  19.2004290  61.0445541  94.9754587  19.4072966
  51.0750764  98.3250081  12.4583113  50.9587022  97.6494985  13.1264198
  51.1853024  97.8382455  11.6415266  53.4182305  97.7860228  16.1629803
  53.0540512  97.2590849  16.8742724  54.2749421  97.3958697  15.9896288
  53.0587792  92.8150128  11.1591151  53.2262194  93.6830364  11.5261622
  52.8684961  92.9777410  10.2352440  55.8163125 101.2767107  22.8256981
  55.5163848 102.1792146  22.7172789  55.4714185 101.0099290  23.6778134
  49.2675607  97.7280904  18.8593686  48.3426103  97.5957118  19.0671378
  49.5160020  98.5075123  19.3563628  59.2160269  93.7949647  20.5054419
  58.3077146  93.7265055  20.2113180  59.1647865  94.2721592  21.3336244
  53.0377013  95.2707785  12.1437818  52.9176638  95.7164836  12.9823298
  52.3429601  95.6193103  11.5851356  46.6284418  97.3714177  19.6937475
  46.7576799  97.6248656  20.6076887  45.9481869  97.9641885  19.3742130
  50.7983905 108.0411427  15.7927949  50.7207935 108.9919252  15.8716430
  50.1945549 107.6957300  16.4502875  53.2901135  95.2139293  28.4489316
  52.5134469  95.7733213  28.4392181  53.9291698  95.6996076  28.9704186
  61.0821915  91.9966085  22.2832293  60.4396296  92.2898619  21.6372087
  60.5776844  91.8819006  23.0885489  58.7362079  95.7429259  12.9718152
  59.6479935  95.9756645  12.7965849  58.2271726  96.3266303  12.4093231
  51.5447507  98.0224746  28.0107283  52.2862191  98.5609790  27.7342107
  50.8384492  98.6491035  28.1678835  57.0202847 100.1653886  26.6079445
  57.4286203  99.7236297  25.8634077  56.2980108  99.5906514  26.8613637
  53.3733917  95.1026493  23.9813001  54.2195112  95.5265907  24.1247650
  53.3132554  94.4460118  24.6751565  57.3431661 100.7255077  20.3631733
  56.7140524 100.8900791  19.6607801  56.9557323 101.1396687  21.1342697
  61.2220893 101.6609515  17.7176097  60.5371931 102.0408416  17.1673130
  61.3064742 102.2704842  18.4508045  56.5233362  92.7630862  25.6394175
  56.2794294  93.5172922  25.1028451  56.7993293  93.1416209  26.4741422
  58.4771825  99.3069474  24.3171441  58.6888720  99.9501234  23.6405822
  58.4301573  98.4731791  23.8493371  52.8959623 100.4629485  17.6281819
  53.3597969 100.7417188  16.8386441  52.6316421  99.5612930  17.4454909
  49.7883704 100.0100967  20.5661582  50.3585061 100.4388235  19.9279066
  50.3791816  99.7283551  21.2645767  51.8328509  96.5852638  14.4371384
  52.5352553  97.0373681  14.9045310  51.5009138  95.9436456  15.0651277
  59.5917653 102.1841429  22.4893798  60.4135096 101.7821617  22.2076480
  59.5880056 102.0809664  23.4409914  47.5268589  95.2080769  16.6971994
  46.7299752  95.3199464  17.2155490  47.2994181  95.5467422  15.8312884
  53.3574256 101.7325473  24.6454509  53.4218689 102.1945880  25.4812680
  52.6485180 101.1022838  24.7736818  67.6823646  98.5280178  18.8378769
  66.9287354  97.9587576  18.6822774  67.8171187  98.4942842  19.7849404
  53.0722274 103.3993580  14.5133489  52.9367949 104.2445116  14.9418337
  53.6132086 103.6012858  13.7499423  46.5251671 100.9169018  15.0861414
  47.0376192 101.7112268  15.2366979  47.1774384 100.2195309  15.0195015
  48.3346556 104.0334774  17.1684167  48.5113184 104.9552739  16.9805151
  49.1303389 103.7193194  17.5978547  54.6990750 104.0217147  28.6433831
  54.2554604 103.2353525  28.3254735  55.3607964 104.2096297  27.9777722
  49.4577871 105.5512948  23.1694509  50.0085297 105.4230012  22.3971503
  48.6189347 105.8507837  22.8189402  56.7971988 104.3019947  26.6715232
  56.7790464 105.1228828  26.1795501  57.7191908 104.1774022  26.8965373
  53.2545042 101.8164076  27.5138741  53.7873379 101.0552364  27.2838049
  52.7259124 101.5237728  28.2562895  44.4900588  99.2457673  15.8620984
  45.3275810  99.6554681  15.6454692  44.6678856  98.3057115  15.8321178
  56.3865020  96.9132753  11.5504817  55.8711644  97.6837358  11.7893205
  56.1142329  96.2397889  12.1737879  61.3599294  99.6665108  13.4857991
  60.5828737  99.3276267  13.0413153  62.0390775  99.6717731  12.8112956
  56.1751323  94.7859845  13.3764599  55.8701459  95.1005994  14.2274742
  57.1281765  94.8641265  13.4191932  54.6197755 100.9450069  15.0257553
  54.0919117 100.2102828  14.7130790  54.1185258 101.7224745  14.7797521
  59.5990601  99.1399089  20.1424599  58.9414276  99.8298350  20.2304728
  60.4031000  99.5295521  20.4858585  58.4096060  97.4943462  18.1928541
  58.9227942  98.1273454  18.6950250  59.0597284  96.8944657  17.8271901
  49.6786070  93.6374196  11.4060049  48.8423382  93.9748882  11.7269324
  49.5390840  93.5023176  10.4687186  52.7650355  98.7630279   8.0292526
  51.8577417  98.5319532   8.2283675  53.2621387  97.9667898   8.2166507
  54.8876891  94.9692917  20.4386881  53.9699452  95.1907864  20.2808569
  55.3037034  95.0439228  19.5798589  55.6711939  96.3684333  15.5689561
  56.4183758  96.8805730  15.2596683  55.9403528  96.0468386  16.4293955
  53.9438589  98.8642874  12.5516516  53.0349808  98.5801907  12.6488985
  53.9733673  99.2841952  11.6919823  59.1757856 102.4749463  16.3207683
  58.7220183 101.6340373  16.3772874  58.5451823 103.1110862  16.6582463
  58.1190776  93.4041449  17.5508351  57.3813533  92.8918835  17.8818593
  58.3717549  92.9641831  16.7391628  57.6190795 104.3125960  17.2557501
  57.9113770 104.8731017  16.5369867  58.1289416 104.6054521  18.0110661
  44.5126759  96.5848388  16.5331718  44.3151159  95.9917749  15.8082784
  43.9573423  96.2800598  17.2507657  52.4923483  96.4771494  18.6526311
  52.5472093  95.5245331  18.5768788  51.6814685  96.6330933  19.1367609
  53.6414677 100.4051617   9.8904594  53.2034106  99.6887476   9.4310232
  54.3825117 100.6327732   9.3289686  50.4315843  95.0948554  16.4116690
  49.6183708  95.3942725  16.8181882  50.9274837  94.7004243  17.1291172
  52.5824421 105.0906311  18.3450955  52.5400599 105.3167157  17.4159487
  53.4987119 104.8569686  18.4936756  56.0290054  95.5590379  25.2431584
  56.3839442  95.7861852  26.1026050  56.6762186  95.8908755  24.6208839
  61.7587791  98.6808814  15.9480913  61.6205690  98.8710410  15.0202102
  61.4024010  99.4428197  16.4048964  61.7857171 100.7485341  20.9592184
  62.2193678 100.6560631  21.8075238  62.4988752 100.7242842  20.3212200
  50.6990221 101.9669340  18.1412917  51.4930820 101.4719660  17.9395492
  49.9881914 101.4387203  17.7780623  55.5185066 104.3487436  22.4925285
  55.5722088 104.9178372  23.2603001  54.6499847 104.5189321  22.1279322
  47.0072985  96.1112422  14.2172670  46.0770573  96.0496877  14.4342632
  47.1030457  95.5888374  13.4209311  62.6472721 100.7909042  23.4925070
  62.8408611 101.6954853  23.7384345  62.5473339 100.3316461  24.3263655
  57.7087829 100.9415785  29.0665950  57.5573336 100.7126337  28.1496034
  57.6992509 101.8986386  29.0797295  54.4773166  98.5147698  24.0512217
  55.4065226  98.6658857  23.8781184  54.0564196  98.6031718  23.1960863
  53.2761497 102.5398362  21.8210754  53.1372583 102.1717146  22.6936693
  52.4876094 103.0546001  21.6494712  53.8709649 107.6407458  13.1636291
  54.0461405 107.1695502  13.9781914  53.1842437 108.2673225  13.3917552
  54.8266713 101.9179965  19.2099592  54.4916545 101.8780735  20.1057242
  54.3270658 101.2524681  18.7370002  59.4180036 103.9734907  27.1442432
  59.3592582 103.2894127  26.4773015  59.8199554 104.7153897  26.6923058
  48.4370735 110.7896821  19.9376151  48.6767333 111.4215345  20.6155170
  47.5939931 110.4384861  20.2241510  49.5524450  93.4821423   8.6057956
  48.6753916  93.3610224   8.2420203  50.0282203  92.6907502   8.3536845
  59.4197443 101.9374491  25.3756412  58.5324222 101.6000413  25.4982811
  59.9895994 101.2057523  25.6125177  41.0726590  98.2698583  18.6999463
  41.7597630  97.9560313  18.1120479  40.9174719  99.1739948  18.4266715
  52.9498596 106.5975944  22.3417655  52.8768768 107.4030915  22.8536960
  52.5075990 106.7967909  21.5165677  52.7388376 105.8347714  15.8520477
  51.9555898 106.3769394  15.9458701  53.4381121 106.3521693  16.2514718
  63.9014784  97.3482709  20.1372974  63.8904660  98.2307424  19.7666907
  63.0332163  96.9954259  19.9427511  55.4097280 106.4962778  24.4975814
  56.1225252 107.1310242  24.4251715  54.9187309 106.5926644  23.6815816
  57.1314807 100.4014030  16.0693105  56.1971086 100.5215493  15.8997810
  57.3091475  99.4986497  15.8053115  60.5187358  96.2431350  16.6043140
  60.9847810  97.0759341  16.5303442  60.9694859  95.7776331  17.3088398
  50.4609194 104.2457221  25.3181385  51.1618653 104.8793704  25.4710779
  49.9904309 104.5871953  24.5577024  58.5863589 102.5875171  13.6029292
  58.8623433 102.4731766  14.5123166  57.7168088 102.1892656  13.5641465
  58.2610480  96.8001829  23.1433935  57.6081930  97.0477736  22.4886388
  58.6390859  95.9865967  22.8096412  55.2217653 106.8361522  17.2462105
  55.4040048 106.0183178  17.7089858  56.0450639 107.0529214  16.8086995
  55.5559819 105.7629707  14.5077154  56.0847585 105.2522161  13.8947316
  55.8188038 105.4472237  15.3722687  54.3098053  97.5421640  29.6299972
  53.6338690  97.4415769  30.3002347  55.1325686  97.3860853  30.0935969
  46.0576912 103.7793576  22.2512487  46.6430348 103.0337264  22.3840391
  45.8601750 104.0897533  23.1349151  48.9115567 106.8144824  17.2674930
  48.2425942 107.2990951  16.7838970  48.7728437 107.0614044  18.1818308
  40.6494566  96.3499176  20.9716930  40.6878666  95.8162767  21.7654049
  40.1434859  95.8234382  20.3527908  53.0520835 108.8488567  23.8657588
  53.6039143 109.0120189  24.6306673  53.3927029 109.4393005  23.1937613
  57.9031710 103.6749825  29.7206242  58.4471614 104.2879783  29.2261197
  57.3218555 104.2329403  30.2373255  44.2803144  95.0763279  14.0470862
  44.5756585  94.1673957  13.9937916  43.3791180  95.0551018  13.7251864
  56.1889223 106.7970543  20.8521270  56.0640362 105.9960282  20.3432216
  56.8468314 107.2916736  20.3635240  58.2524131 104.5979563  22.4800820
  57.3054467 104.4784914  22.4079147  58.6006904 103.7102061  22.5627082
  46.0090986  92.7577376  14.1710187  45.6803692  91.8774755  13.9885293
  46.3630356  92.7025045  15.0586576  55.2570564 104.3932279  18.6805172
  55.1095527 103.4648986  18.8612743  56.0824058 104.4152370  18.1962248
  49.1232809  93.0450346  14.5385665  49.4628881  93.5736267  13.8164273
  49.5704929  93.3830752  15.3144231  58.8604686 105.2160838  19.7670045
  59.7851234 105.0103699  19.6294496  58.6919990 104.9677239  20.6759387
  51.1100956  91.5424968  12.7378957  51.8309318  91.9206220  12.2342674
  50.4866260  92.2613844  12.8413935  55.2532079  92.2470117  13.6737290
  55.4695693  93.1294754  13.3726118  54.7726146  91.8556330  12.9442932
  58.6500002 105.7346505  15.1232137  58.8236880 105.1692928  14.3705989
  59.1428894 106.5347400  14.9411627  44.4676962  97.7461174  23.1895696
  43.9230430  98.5220982  23.3215970  45.3456312  98.0931979  23.0314817
  51.2564579  91.0772758  15.5676494  51.3780490  90.1489404  15.7667382
  50.9666621  91.0911444  14.6554809  64.5039394  98.4982928  16.7422436
  64.9470540  97.7490253  16.3441560  63.6265904  98.4893064  16.3596168
  53.1986647 106.4147049  25.8806242  53.5073773 106.1696195  26.7528942
  53.9962129 106.6193687  25.3925113  53.2207259 108.5684958  18.1111619
  52.7812249 108.0761337  18.8044476  53.9715376 108.0257926  17.8703694
  45.6999598 104.7596499  18.1136247  46.5257618 104.4600271  17.7334891
  45.3493650 103.9904122  18.5626036  50.6681131 104.1122967  20.1833921
  50.0461140 103.4493672  19.8836148  51.3385998 104.1384099  19.5007568
  43.9008203 102.6782826  19.0725181  43.0640111 102.2505000  18.8909182
  43.8731848 102.8715269  20.0095972  61.2260504 103.1345879  29.0567564
  60.4356048 103.1170018  28.5172063  60.9893859 103.6734172  29.8116600
  61.3458379  99.9838345  26.3700292  61.3956384  99.8188353  27.3115815
  61.2372302  99.1165604  25.9798173  50.2294638 102.6626891  13.6592381
  50.3782758 103.3462355  13.0059054  51.0361081 102.6431981  14.1741837
  58.6362142  95.9669273  27.6859599  59.5372004  95.8275738  27.3943597
  58.7110116  96.1323728  28.6257776  62.8476576 102.4035287  26.6142314
  62.5561384 102.7665267  27.4505775  62.2348707 101.6902295  26.4355646
  64.0472258  99.9688166  19.1344884  64.8819150 100.4077970  19.2982444
  64.1831387  99.4926820  18.3153130  61.0963764  97.5267901  25.0822372
  61.5717886  97.7195548  24.2741223  60.1729330  97.5827087  24.8365755
  47.9847271  98.6892068  14.6653450  47.7393313  97.7854398  14.8633660
  48.1543185  98.6909219  13.7232928  47.2542918  94.4220426  12.1639612
  46.5612163  94.4964781  11.5079647  47.0094670  93.6580770  12.6861128
  59.7965433  94.4033661  23.3150677  60.7482856  94.5031759  23.3362901
  59.6268884  93.6111930  23.8248762  62.2753511  97.6239781  22.4292977
  62.2429831  96.6855782  22.6152661  62.8854135  97.7023818  21.6958802
  54.1136842  96.4935834   8.4720181  55.0595947  96.3642042   8.5408599
  53.7351087  95.7550496   8.9489609  62.4247999  94.4150824  22.4751260
  61.9087048  93.6309281  22.2881189  63.3087948  94.0869541  22.6397780
  68.0930061  98.6855788  21.5699014  68.8233449  98.4241076  22.1306717
  67.4837006  97.9484510  21.6101082  66.1745358  96.8263650  22.1673465
  65.4478522  96.6919615  21.5589957  65.7592645  97.1340479  22.9730183
  53.9975534 100.5453580  29.9320838  54.9178544 100.7232179  30.1260885
  53.9625117  99.6009625  29.7800537  52.2979759  94.4185810   8.4075066
  51.3911214  94.1218923   8.4837780  52.5755740  94.1215628   7.5409353
  43.2157699  95.7392174  18.8574113  42.8960484  94.8857482  18.5648487
  42.6691128  95.9540752  19.6132080  51.0678544  91.2772746   8.5487045
  51.9297708  91.6027644   8.8082863  51.2528888  90.4904241   8.0360111
  43.0845959  99.3595085  20.8267234  42.3909431  98.9449038  20.3137189
  43.8318950  99.4015622  20.2300653  59.2211180  90.1501272  15.6922268
  58.6409849  90.8086076  15.3100321  58.9547113  89.3278617  15.2809686
  57.6714746  89.5506330  17.8943589  58.1714525  89.6622864  17.0857908
  58.3150354  89.2467383  18.5344397  51.7296742  97.4584959  30.7811430
  51.2463824  98.2585319  30.9875319  51.8157681  97.4692904  29.8278874
  44.9982702  99.2913339  18.7033249  44.9753390  99.3901026  17.7515132
  45.3083338 100.1378490  19.0250415  47.6570080 101.3489494  22.8179864
  48.6113333 101.3173436  22.7509795  47.4582603 100.8880118  23.6330089
  58.0036058  92.3101362  14.7478617  57.1161913  92.5951013  14.5298812
  58.4190047  92.1495126  13.9005894  61.3550594  92.3347883  18.4632956
  62.1310984  92.8244336  18.7357573  60.6298728  92.7605938  18.9204826
  63.7923153  93.0475503  19.5206897  64.3867644  92.8071239  18.8100205
  63.8649737  92.3282633  20.1480433  46.0120309 106.8909114  19.8350061
  45.8774777 106.1309514  19.2688059  45.5952371 107.6150013  19.3678850
  57.9777082  97.8255898  14.9628907  57.9212283  98.2824450  14.1236539
  58.5305424  97.0646583  14.7851750  61.7881888  93.6145630  15.7879026
  61.5318822  93.2142266  16.6187234  61.1634756  94.3289424  15.6629166
  66.0994226  96.3541703  18.2950318  65.5393784  96.4234893  19.0681880
  65.4937729  96.1782688  17.5749814  49.1689434 107.7878431  20.0468504
  49.0521819 108.7323863  19.9447194  48.3481881 107.4851992  20.4354303
  58.7111861  99.0160680  12.2581436  58.6560665  98.8504951  11.3169880
  58.0857916  99.7236712  12.4143626  56.0257768 101.3209591  31.5834999
  56.8948928 101.4950244  31.2221634  55.5464520 102.1404008  31.4610728
  52.0207987  88.5168789  11.8366754  52.0086656  89.4610629  11.9935025
  52.9131409  88.3338934  11.5426216  50.1943949 108.4406692  23.2624433
  51.0971195 108.4730303  23.5790927  49.9681319 107.5107143  23.2770768
  51.9497551 107.1937679  19.9234511  50.9993182 107.1939541  19.8098883
  52.2530037 106.4470414  19.4070546  64.4939950 112.9825645  20.9241798
  64.1558462 112.8666710  20.0362333  65.3629719 112.5816811  20.9042804
  64.9759733 114.1360497  26.8828004  64.9648374 113.7413295  26.0108507
  65.1380373 113.4026570  27.4761775  61.6966995 116.9197609  25.8307188
  61.4056860 117.8243240  25.7153854  62.3323979 116.9614137  26.5451257
  62.6223201 114.2974458  22.4208547  63.2186774 114.0730480  21.7065510
  62.6798173 113.5559203  23.0233995  70.1625360 104.4046479  23.4261069
  69.8308685 105.2741890  23.2022284  69.5670973 104.0882763  24.1055099
  60.1069361 113.0572821  18.8593686  59.1819858 112.9249035  19.0671378
  60.3553774 113.8367041  19.3563628  70.0554023 109.1241565  20.5054419
  69.1470901 109.0556973  20.2113180  70.0041619 109.6013510  21.3336244
  57.4678172 112.7006095  19.6937475  57.5970553 112.9540574  20.6076887
  56.7875623 113.2933803  19.3742130  64.1294889 110.5431210  28.4489316
  63.3528223 111.1025130  28.4392181  64.7685452 111.0287993  28.9704186
  71.9215670 107.3258003  22.2832293  71.2790050 107.6190536  21.6372087
  71.4170598 107.2110923  23.0885489  62.3841261 113.3516664  28.0107283
  63.1255946 113.8901708  27.7342107  61.6778247 113.9782952  28.1678835
  67.8596601 115.4945804  26.6079445  68.2679957 115.0528215  25.8634077
  67.1373863 114.9198432  26.8613637  64.2127671 110.4318411  23.9813001
  65.0588866 110.8557824  24.1247650  64.1526309 109.7752035  24.6751565
  67.3627116 108.0922779  25.6394175  67.1188048 108.8464840  25.1028451
  67.6387047 108.4708127  26.4741422  69.3165579 114.6361392  24.3171441
  69.5282475 115.2793152  23.6405822  69.2695328 113.8023708  23.8493371
  66.9191808 107.2479212  21.2208013  66.0576287 107.5460466  21.5124750
  66.9454243 107.4649611  20.2889045  61.1202625 110.5056312  28.8122593
  60.4901286 111.1872593  29.0457990  61.0138713 110.3939393  27.8675731
  56.4147598 110.1728108  19.7388517  55.6246652 110.4285636  19.2628628
  56.9058845 110.9876446  19.8440558  64.1968011 117.0617390  24.6454509
  64.2612443 117.5237798  25.4812680  63.4878935 116.4314755  24.7736818
  54.6985301 110.4258598  22.1703508  54.9493339 111.3105608  22.4361084
  55.2344849 110.2463200  21.3978600  60.3983368 104.8077078  31.1747844
  60.0050314 104.2543276  31.8495488  61.2149508 105.1187656  31.5654362
  63.3151329 106.2234957  28.7668101  64.0561042 106.8242110  28.6872563
  63.5469252 105.4812595  28.2086143  58.4592667 111.4091324  27.0446330
  58.3446182 110.5076581  27.3453429  57.6037185 111.6555021  26.6931147
  65.5384505 119.3509064  28.6433831  65.0948359 118.5645443  28.3254735
  66.2001718 119.5388215  27.9777722  67.6365743 119.6311864  26.6715232
  67.6184218 120.4520745  26.1795501  68.5585663 119.5065939  26.8965373
  64.0938797 117.1455994  27.5138741  64.6267134 116.3844282  27.2838049
  63.5652878 116.8529646  28.2562895  67.2608492 102.2516060  23.0432382
  66.9172761 103.1417701  22.9671493  67.6287454 102.0617717  22.1801967
  66.3405032 104.6220715  21.0081616  65.8369828 104.5850850  20.1949421
  66.6335639 105.5313458  21.0678272  62.5847918 104.7059445  20.0147797
  63.4500915 104.5102253  19.6553687  62.6525427 104.4769796  20.9417154
  60.1910237 106.9361653  17.3864164  60.7653989 106.7136834  16.6537357
  60.7781220 107.0050347  18.1392765  62.4932905 103.8102901  16.1139234
  61.8397317 103.4951919  15.4895848  62.4513379 103.1878642  16.8399056
  65.7270645 110.2984835  20.4386881  64.8093207 110.5199782  20.2808569
  66.1430789 110.3731145  19.5798589  69.0596158 101.5109619  18.1450120
  69.3655034 100.6506982  17.8576035  69.7848762 102.1027239  17.9449114
  55.3520514 111.9140305  16.5331718  55.1544913 111.3209666  15.8082784
  54.7967178 111.6092516  17.2507657  66.8683809 110.8882296  25.2431584
  67.2233197 111.1153769  26.1026050  67.5155940 111.2200673  24.6208839
  60.7623672 107.9958827  22.0277925  61.4023051 107.8547586  21.3300888
  59.9301203 107.7093341  21.6516527  57.7652288 107.9659152  16.8050912
  58.0259106 108.8804485  16.6960072  58.5869461 107.4983595  16.9547525
  59.2377214 109.3796909  23.9749736  59.9100267 109.1714272  23.3262385
  58.4107000 109.1818995  23.5354969  65.1402786 106.0058850  25.9915397
  64.4930701 106.7048800  25.8979874  65.9103801 106.4394994  26.3591645
  68.5481584 116.2707702  29.0665950  68.3967090 116.0418254  28.1496034
  68.5386263 117.2278304  29.0797295  65.3166920 113.8439615  24.0512217
  66.2458980 113.9950775  23.8781184  64.8957950 113.9323636  23.1960863
  59.6404711 112.6539512  24.7352173  59.5024509 111.9219751  25.3363712
  60.5509634 112.5648412  24.4536361  62.2687012 112.3659472  24.2235853
  62.9786630 111.7252664  24.1822471  62.2256320 112.6172367  25.1462034
  60.9815946 109.3524690  26.0431493  60.4453303 108.9015428  26.6953089
  60.3932654 109.4870598  25.3001957  70.2591198 117.2666409  25.3756412
  69.3717976 116.9292331  25.4982811  70.8289749 116.5349440  25.6125177
  51.9120345 113.5990501  18.6999463  52.5991385 113.2852231  18.1120479
  51.7568473 114.5031865  18.4266715  56.7155067 108.4880697  23.1284487
  56.6313256 107.8806367  22.3934897  55.8937773 108.9789716  23.1293983
  66.8878781 106.9734261  18.4954682  67.3847480 106.2204223  18.1755752
  66.1165762 107.0098577  17.9297891  63.4713749 109.1151644  18.2226367
  63.1011537 108.5622684  18.9107272  63.9672842 108.5109777  17.6701367
  61.3002948 119.5749139  25.3181385  62.0012408 120.2085622  25.4710779
  60.8298063 119.9163870  24.5577024  69.3297776 103.9403854  20.6434041
  68.4160855 104.1708081  20.8116248  69.7590877 104.0242298  21.4948073
  69.1004234 112.1293746  23.1433935  68.4475684 112.3769654  22.4886388
  69.4784614 111.3157884  22.8096412  65.1491807 112.8713557  29.6299972
  64.4732444 112.7707687  30.3002347  65.9719441 112.7152771  30.0935969
  56.8970666 119.1085494  22.2512487  57.4824103 118.3629182  22.3840391
  56.6995505 119.4189451  23.1349151  51.4888321 111.6791094  20.9716930
  51.5272420 111.1454685  21.7654049  50.9828614 111.1526300  20.3527908
  58.8679083 106.5255635  24.4679473  58.9320410 107.3870465  24.0556870
  58.8046203 105.9129636  23.7351831  58.3431356 108.5978767  28.1152507
  58.9703394 108.2155844  28.7290031  57.4859275 108.3792969  28.4808199
  68.7425464 119.0041742  29.7206242  69.2865368 119.6171701  29.2261197
  68.1612309 119.5621321  30.2373255  58.6491145 108.4811193  20.0298410
  57.9277731 109.0947161  19.8905884  59.4384401 109.0168958  19.9515056
  61.4517459 105.8165619  26.3039062  61.9751861 106.0627916  27.0665371
  61.2329792 106.6485654  25.8842200  62.6570004 106.7579314  23.9888733
  62.3166824 105.9587127  24.3909413  61.9509010 107.0581025  23.4165566
  63.3086476 103.8428627  22.4416056  64.1312545 103.3689105  22.3194946
  63.5524539 104.6219111  22.9414742  60.8325055 110.5347747  20.2508034
  60.6869635 110.8488051  21.1432316  60.3550258 111.1532648  19.6978933
  62.6921437 107.5250295  20.2988924  62.6783006 106.6291389  19.9621222
  63.4093866 107.5320959  20.9327210  64.5447568 107.9587636  22.3442051
  64.2865346 108.8804706  22.3426382  64.0132609 107.5618070  23.0342515
  55.3070717 113.0753092  23.1895696  54.7624185 113.8512900  23.3215970
  56.1850067 113.4223896  23.0314817  64.9649524 104.0919586  18.7043214
  64.9871221 104.1558919  17.7495193  65.3817583 103.2524095  18.8983720
  56.0936739 112.2022988  26.0825852  55.3518475 112.3505623  26.6690483
  55.7729483 112.4631254  25.2192602  61.5799413 107.9196673  29.7766427
  61.6287568 108.7958796  29.3944196  62.1221927 107.3774066  29.2038070
  72.0654259 118.4637796  29.0567564  71.2749802 118.4461935  28.5172063
  71.8287613 119.0026090  29.8116600  72.1852134 115.3130263  26.3700292
  72.2350139 115.1480270  27.3115815  72.0766057 114.4457522  25.9798173
  69.4755896 111.2961191  27.6859599  70.3765759 111.1567656  27.3943597
  69.5503871 111.4615646  28.6257776  63.8098701 108.6728046  26.5312785
  62.9402011 108.9661612  26.2595374  64.0458182 109.2568491  27.2520049
  71.9357519 112.8559819  25.0822372  72.4111640 113.0487465  24.2741223
  71.0123084 112.9119005  24.8365755  66.5137735 104.8907662  24.0478206
  67.0319679 105.6268689  23.7224694  66.1592868 105.1971656  24.8824965
  66.7650329 101.3107945  19.5679102  67.0452083 100.6431134  20.1939529
  67.5500936 101.5037041  19.0553766  70.6359188 109.7325579  23.3150677
  71.5876611 109.8323677  23.3362901  70.4662638 108.9403848  23.8248762
  68.6573567 106.8181162  23.5010078  68.0623499 107.0986175  22.8056567
  68.3723264 107.3075063  24.2726819  73.2641754 109.7442742  22.4751260
  72.7480803 108.9601199  22.2881189  74.1481703 109.4161459  22.6397780
  70.9252481 103.4883758  18.4347073  70.7277302 103.1798846  19.3190405
  71.5352186 104.2145397  18.5645003  64.8369289 115.8745498  29.9320838
  65.7572298 116.0524097  30.1260885  64.8018872 114.9301543  29.7800537
  54.0551454 111.0684091  18.8574113  53.7354238 110.2149400  18.5648487
  53.5084882 111.2832670  19.6132080  57.8331361 113.7846532  22.5743619
  58.0517371 114.7163640  22.5931653  58.2457135 113.4254507  23.3598423
  66.6826128 103.3692665  16.1843604  67.2357166 103.7888118  16.8433627
  66.9196214 102.4428413  16.2266560  62.7059227 109.3579738  31.9646368
  62.6055954 110.3074095  31.8958459  62.4880769 109.0297977  31.0922438
  53.9239714 114.6887003  20.8267234  53.2303185 114.2740956  20.3137189
  54.6712705 114.7307539  20.2300653  62.5690497 112.7876877  30.7811430
  62.0857579 113.5877237  30.9875319  62.6551436 112.7984822  29.8278874
  55.8376456 114.6205257  18.7033249  55.8147145 114.7192944  17.7515132
  56.1477093 115.4670407  19.0250415  58.4963834 116.6781412  22.8179864
  59.4507088 116.6465354  22.7509795  58.2976358 116.2172035  23.6330089
  59.0863216 115.2482528  25.3850661  59.9056105 115.7426606  25.4085499
  59.3600024 114.3314496  25.3568229  54.3398131 109.5820662  26.0842858
  54.9856994 109.0719616  26.5730083  54.1315282 110.3189343  26.6586284
  66.8651523 116.6501509  31.5834999  67.7342682 116.8242161  31.2221634
  66.3858274 117.4695926  31.4610728  66.6753861 100.4403483  16.0912691
  65.9086256  99.8861970  16.2369374  67.0864566 100.5125352  16.9526843
  58.6795622 106.7288279  30.1817873  59.5427083 106.3725084  30.3921197
  58.1061032 106.3902174  30.8693277  71.2377122 120.1368995  31.1747844
  70.8444068 119.5835194  31.8495488  72.0543263 120.4479574  31.5654362
  73.5452981 124.6871656  31.9646368  73.4449708 125.6366013  31.8958459
  73.3274523 124.3589895  31.0922438  69.5189376 122.0580196  30.1817873
  70.3820838 121.7017001  30.3921197  68.9454787 121.7194091  30.8693277
  25.3850448  34.6936194  16.4451549  25.9290352  35.3066152  15.9506504
  24.8037292  35.2515773  16.9618562  28.7079242  34.1532248  15.7812870
  27.9174786  34.1356387  15.2417370  28.4712596  34.6920542  16.5361907
  23.5076506  32.3395961  18.3080305  24.3767666  32.5136613  17.9466940
  23.0283258  33.1590378  18.1856035  35.1668982  44.0484587   7.7125580
  35.8047392  43.9291334   7.0088920  35.0489825  44.9965431   7.7713532
  32.4578471  45.1546867  13.6073310  32.4467112  44.7599665  12.7353814
  32.6199111  44.4212939  14.2007082  29.1785732  47.9383979  12.5552494
  28.8875598  48.8429609  12.4399161  29.8142717  47.9800506  13.2696564
  30.1041939  45.3160827   9.1453854  30.7005511  45.0916850   8.4310817
  30.1616911  44.5745573   9.7479302  40.1218678  41.7111274   5.6911767
  40.8543849  41.1410491   5.9249596  39.3658033  41.3232874   6.1318272
  37.6444098  35.4232848  10.1506375  37.3127423  36.2928259   9.9267590
  37.0489711  35.1069132  10.8300406  34.1375617  47.6245394   9.5502288
  33.8376340  48.5270433   9.4418095  33.7926677  47.3577577  10.4023441
  29.1196397  54.3889714   2.5173256  29.0420427  55.3397540   2.5961736
  28.5158041  54.0435587   3.1748182  31.6113627  41.5617580  15.1734623
  30.8346961  42.1211500  15.1637487  32.2504190  42.0474363  15.6949493
  39.4034408  38.3444373   9.0077599  38.7608788  38.6376906   8.3617394
  38.8989336  38.2297293   9.8130796  29.8659999  44.3703033  14.7352590
  30.6074684  44.9088077  14.4587413  29.1596985  44.9969322  14.8924141
  35.3415339  46.5132174  13.3324751  35.7498695  46.0714584  12.5879384
  34.6192600  45.9384801  13.5858944  31.6946409  41.4504780  10.7058308
  32.5407604  41.8744194  10.8492957  31.6345047  40.7938405  11.3996871
  35.6644154  47.0733364   7.0877040  35.0353016  47.2379078   6.3853108
  35.2769816  47.4874974   7.8588004  39.5433385  48.0087802   4.4421404
  38.8584424  48.3886704   3.8918437  39.6277235  48.6183129   5.1753352
  34.8445854  39.1109149  12.3639482  34.6006786  39.8651209  11.8273757
  35.1205785  39.4894496  13.1986729  36.7984317  45.6547761  11.0416747
  37.0101212  46.2979521  10.3651128  36.7514065  44.8210078  10.5738677
  28.6021363  41.5242681  15.5367900  27.9720024  42.2058962  15.7703296
  28.4957451  41.4125763  14.5921038  37.9130145  48.5319717   9.2139105
  38.7347589  48.1299904   8.9321786  37.9092548  48.4287951  10.1655220
  31.6786748  48.0803760  11.3699815  31.7431181  48.5424167  12.2057987
  30.9697672  47.4501125  11.4982125  46.0036138  44.8758465   5.5624076
  45.2499846  44.3065863   5.4068081  46.1383679  44.8421130   6.5094711
  27.8802106  35.8263447  17.8993151  27.4869051  35.2729646  18.5740795
  28.6968246  36.1374026  18.2899668  30.7970067  37.2421326  15.4913407
  31.5379780  37.8428479  15.4117870  31.0287990  36.4998964  14.9331450
  25.9411405  42.4277694  13.7691637  25.8264920  41.5262951  14.0698736
  25.0855922  42.6741390  13.4176453  33.0203242  50.3695434  15.3679138
  32.5767097  49.5831812  15.0500042  33.6820456  50.5574584  14.7023028
  27.7790364  51.8991236   9.8939816  28.3297789  51.7708299   9.1216810
  26.9401840  52.1986125   9.5434709  35.1184481  50.6498234  13.3960539
  35.1002956  51.4707115  12.9040808  36.0404401  50.5252309  13.6210680
  31.5757535  48.1642363  14.2384047  32.1085872  47.4030652  14.0083355
  31.0471616  47.8716015  14.9808202  37.9203093  45.4877376   6.8669906
  37.2626768  46.1776638   6.9550034  38.7243493  45.8773808   7.2103892
  37.4970348  48.8227750   3.0452990  37.0432676  47.9818660   3.1018180
  36.8664315  49.4589149   3.3827770  35.9403288  50.6604247   3.9802808
  36.2326262  51.2209304   3.2615174  36.4501908  50.9532808   4.7355967
  30.9036913  51.4384598   5.0696261  30.8613092  51.6645445   4.1404793
  31.8199612  51.2047973   5.2182062  34.3502547  41.9068666  11.9676890
  34.7051934  42.1340139  12.8271356  34.9974678  42.2387043  11.3454146
  40.1069663  47.0963629   7.6837491  40.5406170  47.0038918   8.5320545
  40.8201244  47.0721129   7.0457507  33.8397558  50.6965723   9.2170592
  33.8934580  51.2656659   9.9848307  32.9712339  50.8667608   8.8524629
  40.9685213  47.1387329  10.2170376  41.1621103  48.0433140  10.4629651
  40.8685831  46.6794748  11.0508961  32.6221524  37.0245220  12.7160704
  31.9749439  37.7235170  12.6225180  33.3922539  37.4581364  13.0836952
  36.0300321  47.2894072  15.7911257  35.8785828  47.0604624  14.8741341
  36.0205001  48.2464673  15.8042602  32.7985658  44.8625985  10.7757523
  33.7277718  45.0137144  10.6026491  32.3776688  44.9510006   9.9206170
  31.5973990  48.8876649   8.5456061  31.4585075  48.5195434   9.4181999
  30.8088586  49.4024289   8.3740019  33.1479205  48.2658252   5.9344899
  32.8129037  48.2259022   6.8302549  32.6483150  47.6002968   5.4615309
  27.1223449  43.6725882  11.4597480  26.9843247  42.9406121  12.0609019
  28.0328372  43.5834782  11.1781668  29.7505749  43.3845841  10.9481160
  30.4605368  42.7439033  10.9067778  29.7075058  43.6358736  11.8707340
  37.7392528  50.3213195  13.8687739  37.6805074  49.6372415  13.2018322
  38.1412046  51.0632185  13.4168365  28.4634683  40.3711059  12.7676799
  27.9272040  39.9201798  13.4198395  27.8751392  40.5056968  12.0247263
  26.7583227  57.1375108   6.6621458  26.9979825  57.7693633   7.3400476
  25.9152423  56.7863148   6.9486817  37.7409935  48.2852779  12.1001719
  36.8536714  47.9478700  12.2228117  38.3108486  47.5535810  12.3370484
  31.2711089  52.9454231   9.0662962  31.1981260  53.7509202   9.5782266
  30.8288482  53.1446197   8.2410983  42.2227276  43.6960996   6.8618280
  42.2117152  44.5785711   6.4912213  41.3544655  43.3432547   6.6672817
  33.7309772  52.8441065  11.2221120  34.4437744  53.4788530  11.1497022
  33.2399801  52.9404931  10.4061122  28.7821686  50.5935508  12.0426691
  29.4831145  51.2271991  12.1956085  28.3116801  50.9350240  11.2822330
  36.5822972  43.1480116   9.8679242  35.9294422  43.3956023   9.2131694
  36.9603352  42.3344254   9.5341719  33.5430146  53.1839809   3.9707412
  33.7252540  52.3661465   4.4335164  34.3663132  53.4007501   3.5332302
  32.6310545  43.8899927  16.3545279  31.9551182  43.7894056  17.0247654
  33.4538179  43.7339141  16.8181276  24.3789404  50.1271863   8.9757794
  24.9642841  49.3815551   9.1085698  24.1814242  50.4375820   9.8594458
  31.3733328  55.1966854  10.5902895  31.9251636  55.3598476  11.3551980
  31.7139521  55.7871292   9.9182920  25.8250093  39.6165137  14.8397814
  26.4522132  39.2342214  15.4535338  24.9678012  39.3979339  15.2053506
  36.2244202  50.0228112  16.4451549  36.7684106  50.6358070  15.9506504
  35.6431047  50.5807690  16.9618562  34.5101715  53.1448830   7.5766577
  34.3852854  52.3438570   7.0677522  35.1680806  53.6395023   7.0880547
  36.5736623  50.9457850   9.2046127  35.6266959  50.8263201   9.1324454
  36.9219396  50.0580348   9.2872388  28.9336197  36.8351989  13.0284369
  29.4570599  37.0814285  13.7910678  28.7148530  37.6672024  12.6087506
  33.5783057  50.7410566   5.4050479  33.4308019  49.8127274   5.5858049
  34.4036550  50.7630657   4.9207554  37.1817178  51.5639125   6.4915352
  38.1063726  51.3581986   6.3539803  37.0132482  51.3155526   7.4004693
  36.9712495  52.0824792   1.8477443  37.1449372  51.5171215   1.0951296
  37.4641386  52.8825687   1.6656933  42.8251886  44.8461215   3.4667743
  43.2683032  44.0968540   3.0686866  41.9478396  44.8371352   3.0841475
  23.5755476  43.2209358  12.8071159  22.8337212  43.3691993  13.3935789
  23.2548221  43.4817623  11.9437908  31.5199139  52.7625336  12.6051549
  31.8286265  52.5174483  13.4774249  32.3174621  52.9671974  12.1170419
  31.5419751  54.9163246   4.8356926  31.1024741  54.4239624   5.5289782
  32.2927868  54.3736213   4.5949001  28.9893623  50.4601255   6.9079227
  28.3673632  49.7971960   6.6081455  29.6598490  50.4862387   6.2252875
  29.0618151  38.9383043  16.5011733  29.1106306  39.8145165  16.1189503
  29.6040665  38.3960436  15.9283376  39.5472996  49.4824166  15.7812870
  38.7568540  49.4648305  15.2417370  39.3106351  50.0212460  16.5361907
  39.6670871  46.3316632  13.0945599  39.7168876  46.1666640  14.0361122
  39.5584795  45.4643891  12.7043480  36.9574634  42.3147560  14.4104906
  37.8584497  42.1754025  14.1188903  37.0322608  42.4802015  15.3503083
  31.2917439  39.6914415  13.2558092  30.4220749  39.9847981  12.9840680
  31.5276920  40.2754860  13.9765356  41.1689068  48.7513574  13.3387620
  40.8773877  49.1143554  14.1751081  40.5561200  48.0380582  13.1600952
  42.3684751  46.3166454   5.8590191  43.2031642  46.7556258   6.0227751
  42.5043879  45.8405107   5.0398436  39.4176257  43.8746188  11.8067678
  39.8930378  44.0673835  10.9986530  38.4941822  43.9305374  11.5611062
  38.1177926  40.7511949  10.0395984  39.0695348  40.8510046  10.0608208
  37.9481376  39.9590217  10.5494068  36.1392305  37.8367532  10.2255385
  35.5442237  38.1172544   9.5301874  35.8542002  38.3261433  10.9972126
  40.5966003  43.9718068   9.1538284  40.5642323  43.0334069   9.3397967
  41.2066627  44.0502105   8.4204109  40.7460492  40.7629112   9.1996567
  40.2299540  39.9787568   9.0126496  41.6300440  40.4347828   9.3643086
  46.4142553  45.0334075   8.2944320  47.1445942  44.7719363   8.8552024
  45.8049499  44.2962797   8.3346388  44.4957850  43.1741938   8.8918772
  43.7691014  43.0397903   8.2835263  44.0805137  43.4818766   9.6975490
  32.3188027  46.8931867  16.6566145  33.2391036  47.0710466  16.8506191
  32.2837610  45.9487913  16.5045844  30.1877965  40.3766108  18.6891675
  30.0874691  41.3260465  18.6203766  29.9699507  40.0484347  17.8167745
  30.0509235  43.8063247  17.5056736  29.5676316  44.6063607  17.7120625
  30.1370174  43.8171191  16.5524180  25.9782572  47.6967781   9.5425170
  26.9325826  47.6651724   9.4755102  25.7795096  47.2358405  10.3575396
  26.5681954  46.2668897  12.1095968  27.3874843  46.7612976  12.1330805
  26.8418762  45.3500865  12.0813535  24.3332801  53.2387401   6.5595368
  24.1987269  52.4787802   5.9933366  23.9164863  53.9628301   6.0924157
  44.4206718  42.7019991   5.0195624  43.8606276  42.7713180   5.7927187
  43.8150221  42.5260975   4.2995121  27.4901927  54.1356718   6.7713811
  27.3734311  55.0802150   6.6692501  26.6694373  53.8330279   7.1599610
  34.3470261  47.6687879  18.3080305  35.2161420  47.8428531  17.9466940
  33.8677012  48.4882296  18.1856035  28.5156441  54.7884980   9.9869739
  29.4183688  54.8208590  10.3036234  28.2893811  53.8585431  10.0016075
  30.2710043  53.5415966   6.6479818  29.3205674  53.5417828   6.5344190
  30.5742529  52.7948701   6.1315852  26.1614359  37.7474648  16.9063179
  27.0245821  37.3911453  17.1166504  25.5879770  37.4088543  17.5938583
  46.0062736  59.3776505   7.7125580  46.6441146  59.2583252   7.0088920
  45.8883579  60.3257349   7.7713532  42.8152443  59.3303933   7.6487105
  42.4770954  59.2144997   6.7607640  43.6842211  58.9295098   7.6288111
  38.6739258  61.1839409   3.6383996  38.1104123  61.0929346   2.8700284
  38.5591653  60.3639314   4.1186488  43.2972226  60.4838784  13.6073310
  43.2860866  60.0891583  12.7353814  43.4592865  59.7504857  14.2007082
  36.2203690  62.6790601   6.4768216  37.0124982  62.3381425   6.0614516
  36.4600340  62.7885576   7.3970370  44.2538817  64.8510377  -1.0501539
  43.6026797  65.4364457  -1.4367525  45.0483180  65.3816572  -0.9906502
  38.1794444  61.9399514  -0.6514405  38.9525320  61.3928501  -0.7901529
  38.5319843  62.8043763  -0.4399944  40.0179487  63.2675896  12.5552494
  39.7269353  64.1721527  12.4399161  40.6536471  63.3092424  13.2696564
  40.9435694  60.6452745   9.1453854  41.5399266  60.4208767   8.4310817
  41.0010665  59.9037490   9.7479302  40.5160722  58.0992180  -3.0195955
  40.7686243  57.5773701  -3.7812492  39.5785281  57.9358326  -2.9169271
  45.5604005  57.1027958   4.7878788  46.3467094  56.6847382   4.4369205
  45.8242709  58.0074051   4.9560437  45.7314082  62.5400809  -0.5132555
  45.0959915  62.6135435   0.1988350  45.4011489  63.1294408  -1.1913476
  50.9612432  57.0403192   5.6911767  51.6937604  56.4702408   5.9249596
  50.2051788  56.6524792   6.1318272  40.2357011  60.0020286  -0.8171580
  40.1193269  59.3265189  -0.1490496  40.3459271  59.5152660  -1.6339427
  42.5788552  59.4630433   2.8875109  42.2146759  58.9361054   3.5988031
  43.4355668  59.0728902   2.7141595  48.4837852  50.7524766  10.1506375
  48.1521177  51.6220177   9.9267590  47.8883466  50.4361050  10.8300406
  44.9769372  62.9537312   9.5502288  44.6770095  63.8562351   9.4418095
  44.6320431  62.6869495  10.4023441  38.4281853  59.4051109   5.5838992
  37.5032350  59.2727323   5.7916684  38.6766267  60.1845328   6.0808935
  48.3766516  55.4719852   7.2299725  47.4683393  55.4035260   6.9358486
  48.3254111  55.9491797   8.0581551  42.1983260  56.9477990  -1.1316875
  42.0782885  57.3935041  -0.2931395  41.5035848  57.2963308  -1.6903337
  35.7890664  59.0484382   6.4182782  35.9183046  59.3018861   7.3322193
  35.1088116  59.6412090   6.0987437  39.9590152  69.7181632   2.5173256
  39.8814181  70.6689457   2.5961736  39.3551795  69.3727505   3.1748182
  42.4507381  56.8909498  15.1734623  41.6740716  57.4503418  15.1637487
  43.0897945  57.3766281  15.6949493  50.2428162  53.6736290   9.0077599
  49.6002542  53.9668824   8.3617394  49.7383091  53.5589211   9.8130796
  47.8968326  57.4199464  -0.3036541  48.8086182  57.6526850  -0.4788844
  47.3877973  58.0036508  -0.8661463  40.7053754  59.6994951  14.7352590
  41.4468438  60.2379995  14.4587413  39.9990739  60.3261240  14.8924141
  46.1809093  61.8424091  13.3324751  46.5892449  61.4006502  12.5879384
  45.4586355  61.2676719  13.5858944  42.5340163  56.7796698  10.7058308
  43.3801359  57.2036112  10.8492957  42.4738801  56.1230322  11.3996871
  46.5037908  62.4025282   7.0877040  45.8746770  62.5670996   6.3853108
  46.1163570  62.8166892   7.8588004  50.3827140  63.3379720   4.4421404
  49.6978178  63.7178621   3.8918437  50.4670989  63.9475047   5.1753352
  45.6839609  54.4401067  12.3639482  45.4400541  55.1943127  11.8273757
  45.9599539  54.8186414  13.1986729  47.6378072  60.9839679  11.0416747
  47.8494967  61.6271439  10.3651128  47.5907820  60.1501995  10.5738677
  45.2404301  53.5957500   7.9453319  44.3788780  53.8938753   8.2370057
  45.2666735  53.8127898   7.0134352  42.0565870  62.1399690   4.3527125
  42.5204215  62.4187393   3.5631748  41.7922668  61.2383135   4.1700216
  38.9489951  61.6871172   7.2906888  39.5191308  62.1158440   6.6524373
  39.5398063  61.4053756   7.9891074  40.9934756  58.2622842   1.1616690
  41.6958799  58.7143886   1.6290617  40.6615384  57.6206661   1.7896583
  39.4415118  56.8534599  15.5367900  38.8113778  57.5350880  15.7703296
  39.3351205  56.7417681  14.5921038  34.7360090  56.5206395   6.4633824
  33.9459144  56.7763924   5.9873934  35.2271337  57.3354733   6.5685864
  48.7523899  63.8611634   9.2139105  49.5741343  63.4591822   8.9321786
  48.7486302  63.7579868  10.1655220  36.6874835  56.8850974   3.4217301
  35.8905999  56.9969669   3.9400796  36.4600428  57.2237627   2.5558191
  42.5180503  63.4095678  11.3699815  42.5824935  63.8716085  12.2057987
  41.8091427  62.7793043  11.4982125  33.0197793  56.7736886   8.8948815
  33.2705831  57.6583895   9.1606391  33.5557341  56.5941487   8.1223906
  56.8429893  60.2050383   5.5624076  56.0893601  59.6357781   5.4068081
  56.9777434  60.1713047   6.5094711  42.2328521  65.0763785   1.2378795
  42.0974195  65.9215321   1.6663643  42.7738333  65.2783063   0.4744729
  38.7195860  51.1555365  17.8993151  38.3262806  50.6021563  18.5740795
  39.5362001  51.4665943  18.2899668  35.6857918  62.5939223   1.8106721
  36.1982439  63.3882473   1.9612285  36.3380631  61.8965514   1.7440322
  37.4952803  65.7104979   3.8929474  37.6719431  66.6322944   3.7050458
  38.2909636  65.3963399   4.3223854  41.6363821  52.5713244  15.4913407
  42.3773535  53.1720397  15.4117870  41.8681744  51.8290882  14.9331450
  36.7805159  57.7569611  13.7691637  36.6658674  56.8554869  14.0698736
  35.9249677  58.0033308  13.4176453  43.8596997  65.6987352  15.3679138
  43.4160851  64.9123730  15.0500042  44.5214211  65.8866502  14.7023028
  38.6184118  67.2283153   9.8939816  39.1691543  67.1000217   9.1216810
  37.7795594  67.5278042   9.5434709  45.9578235  65.9790152  13.3960539
  45.9396710  66.7999033  12.9040808  46.8798155  65.8544227  13.6210680
  42.4151289  63.4934281  14.2384047  42.9479626  62.7322569  14.0083355
  41.8865370  63.2007933  14.9808202  45.5820984  48.5994347   9.7677689
  45.2385254  49.4895989   9.6916800  45.9499947  48.4096005   8.9047274
  33.6506835  60.9227877   2.5866291  34.4882057  61.3324886   2.3699999
  33.8285102  59.9827320   2.5566485  45.5471267  58.5902958  -1.7249876
  45.0317890  59.3607563  -1.4861489  45.2748575  57.9168094  -1.1016814
  43.1318378  53.4352659   3.3335362  42.2759974  53.0459509   3.1541001
  43.5445330  53.5144620   2.4735148  44.6617525  50.9699002   7.7326922
  44.1582320  50.9329137   6.9194727  44.9548131  51.8791745   7.7923579
  40.9060410  51.0537732   6.7393104  41.7713407  50.8580541   6.3798993
  40.9737919  50.8248084   7.6662461  50.5205541  61.3435313   0.2103298
  49.7434984  61.0046472  -0.2341540  51.1997022  61.3487936  -0.4641737
  45.3357570  56.4630050   0.1009905  45.0307706  56.7776199   0.9520048
  46.2888012  56.5411470   0.1437238  43.7804002  62.6220273   1.7502859
  43.2525363  61.8873033   1.4376097  43.2791505  63.3994950   1.5042828
  48.7596848  60.8169294   6.8669906  48.1020522  61.5068555   6.9550034
  49.5637247  61.2065726   7.2103892  38.5122730  53.2839940   4.1109471
  39.0866481  53.0615121   3.3782664  39.0993712  53.3528634   4.8638072
  47.5702307  59.1713667   4.9173847  48.0834188  59.8043658   5.4195557
  48.2203531  58.5714862   4.5517207  40.8145397  50.1581189   2.8384540
  40.1609810  49.8430206   2.2141155  40.7725871  49.5356929   3.5644363
  41.9256602  60.4400484  -5.2462168  41.0183664  60.2089737  -5.0471019
  42.4227634  59.6438103  -5.0588186  44.8324681  69.1497991  -2.3265482
  44.1586380  69.4529688  -1.7180524  45.2190503  69.9527071  -2.6760025
  44.0483138  56.6463122   7.1632188  43.1305699  56.8678069   7.0053876
  44.4643281  56.7209433   6.3043895  44.8318185  58.0454538   2.2934868
  45.5790004  58.5575935   1.9841990  45.1009775  57.7238591   3.1539262
  43.1044836  60.5413079  -0.7238178  42.1956055  60.2572111  -0.6265708
  43.1339919  60.9612157  -1.5834871  48.3364103  64.1519668   3.0452990
  47.8826430  63.3110578   3.1018180  47.7058070  64.7881066   3.3827770
  47.2797022  55.0811654   4.2753657  46.5419779  54.5689040   4.6063900
  47.5323796  54.6412036   3.4636934  46.7797042  65.9896165   3.9802808
  47.0720017  66.5501222   3.2615174  47.2895663  66.2824726   4.7355967
  47.3808650  47.8587906   4.8695427  47.6867527  46.9985270   4.5821342
  48.1061255  48.4505526   4.6694421  33.6733006  58.2618593   3.2577025
  33.4757406  57.6687953   2.5328091  33.1179670  57.9570803   3.9752963
  41.6529730  58.1541699   5.3771618  41.7078339  57.2015536   5.3014094
  40.8420932  58.3101138   5.8612916  42.8020923  62.0821822  -3.3850099
  42.3640353  61.3657681  -3.8444462  43.5431364  62.3097937  -3.9465008
  39.5922089  56.7718759   3.1361997  38.7789955  57.0712930   3.5427189
  40.0881084  56.3774448   3.8536479  41.7430667  66.7676516   5.0696261
  41.7006846  66.9937362   4.1404793  42.6593366  66.5339890   5.2182062
  45.1896301  57.2360583  11.9676890  45.5445689  57.4632057  12.8271356
  45.8368432  57.5678960  11.3454146  50.9194038  60.3579019   2.6726219
  50.7811937  60.5480615   1.7447409  50.5630257  61.1198402   3.1294271
  39.0836164  54.3437114   8.7523232  39.7235544  54.2025874   8.0546195
  38.2513695  54.0571628   8.3761834  50.9463418  62.4255546   7.6837491
  51.3799924  62.3330835   8.5320545  51.6594998  62.4013047   7.0457507
  39.8596468  63.6439545   4.8658224  40.6537067  63.1489865   4.6640799
  39.1488161  63.1157408   4.5025930  44.6791313  66.0257640   9.2170592
  44.7328335  66.5948577   9.9848307  43.8106094  66.1959525   8.8524629
  36.1679232  57.7882627   0.9417977  35.2376820  57.7267082   1.1587939
  36.2636704  57.2658579   0.1454618  36.0864781  54.3137439   3.5296218
  36.3471598  55.2282773   3.4205379  36.9081953  53.8461882   3.6792831
  37.5589706  55.7275197  10.6995043  38.2312759  55.5192559  10.0507692
  36.7319493  55.5297283  10.2600275  51.8078967  62.4679247  10.2170376
  52.0014857  63.3725057  10.4629651  51.7079585  62.0086666  11.0508961
  43.4615278  52.3537138  12.7160704  42.8143193  53.0527087  12.6225180
  44.2316293  52.7873281  13.0836952  46.8694076  62.6185990  15.7911257
  46.7179582  62.3896541  14.8741341  46.8598755  63.5756591  15.8042602
  43.6379412  60.1917902  10.7757523  44.5671472  60.3429062  10.6026491
  43.2170442  60.2801923   9.9206170  42.4367744  64.2168567   8.5456061
  42.2978830  63.8487351   9.4181999  41.6482340  64.7316206   8.3740019
  43.0315896  69.3177663  -0.1118402  43.2067652  68.8465707   0.7027220
  42.3448684  69.9443430   0.1162858  43.9872959  63.5950170   5.9344899
  43.6522792  63.5550940   6.8302549  43.4876905  62.9294886   5.4615309
  37.9617203  59.0017800  11.4597480  37.8237001  58.2698038  12.0609019
  38.8722127  58.9126700  11.1781668  46.9232151  60.9406204  -3.7918041
  46.3061322  60.2153032  -3.8884989  46.4548639  61.7015564  -4.1350967
  40.5899504  58.7137759  10.9481160  41.2999122  58.0730951  10.9067778
  40.5468812  58.9650654  11.8707340  48.5786283  65.6505112  13.8687739
  48.5198829  64.9664332  13.2018322  48.9805801  66.3924102  13.4168365
  39.3028438  55.7002977  12.7676799  38.7665795  55.2493715  13.4198395
  38.7145146  55.8348886  12.0247263  37.5976981  72.4667026   6.6621458
  37.8373580  73.0985550   7.3400476  36.7546178  72.1155066   6.9486817
  48.5803690  63.6144696  12.1001719  47.6930469  63.2770618  12.2228117
  49.1502241  62.8827727  12.3370484  30.2332837  59.9468788   5.4244770
  30.9203877  59.6330518   4.8365785  30.0780966  60.8510153   5.1512021
  35.0367559  54.8358985   9.8529794  34.9525748  54.2284654   9.1180204
  34.2150266  55.3268003   9.8539290  42.1104843  68.2746149   9.0662962
  42.0375015  69.0801120   9.5782266  41.6682236  68.4738114   8.2410983
  41.8994623  67.5117919   2.5765783  41.1162145  68.0539599   2.6704008
  42.5987368  68.0291898   2.9760024  45.2091273  53.3212548   5.2199989
  45.7059973  52.5682510   4.9001059  44.4378255  53.3576865   4.6543198
  53.0621030  59.0252914   6.8618280  53.0510907  59.9077629   6.4912213
  52.1938410  58.6724464   6.6672817  44.5703527  68.1732983  11.2221120
  45.2831499  68.8080447  11.1497022  44.0793555  68.2696849  10.4061122
  46.2921054  62.0784235   2.7938412  45.3577332  62.1985698   2.6243116
  46.4697722  61.1756702   2.5298422  41.7926242  55.4629931   4.9471673
  41.4224029  54.9100971   5.6352579  42.2885334  54.8588065   4.3946673
  49.6793605  57.9201555   3.3288446  50.1454057  58.7529546   3.2548749
  50.1301106  57.4546536   4.0333705  39.6215440  65.9227426  12.0426691
  40.3224900  66.5563909  12.1956085  39.1510555  66.2642158  11.2822330
  47.7469836  64.2645376   0.3274598  48.0229680  64.1501970   1.2368472
  46.8774335  63.8662861   0.2886771  47.6510268  50.2882142   7.3679348
  46.7373348  50.5186368   7.5361554  48.0803369  50.3720586   8.2193380
  47.4216726  58.4772034   9.8679242  46.7688177  58.7247941   9.2131694
  47.7997106  57.6636172   9.5341719  44.3823900  68.5131727   3.9707412
  44.5646295  67.6953383   4.4335164  45.2056886  68.7299419   3.5332302
  44.7166066  67.4399912   1.2322460  45.2453832  66.9292366   0.6192622
  44.9794285  67.1242442   2.0967993  43.4704299  59.2191845  16.3545279
  42.7944936  59.1185974  17.0247654  44.2931933  59.0631058  16.8181276
  35.2183158  65.4563781   8.9757794  35.8036595  64.7107469   9.1085698
  35.0207997  65.7667738   9.8594458  38.0721814  68.4915029   3.9920236
  37.4032189  68.9761156   3.5084276  37.9334683  68.7384249   4.9063615
  29.8100813  58.0269381   7.6962237  29.8484913  57.4932972   8.4899355
  29.3041106  57.5004587   7.0773214  42.2127082  70.5258772  10.5902895
  42.7645390  70.6890394  11.3551980  42.5533276  71.1163210   9.9182920
  37.1891575  52.8733922  11.1924779  37.2532902  53.7348753  10.7802177
  37.1258696  52.2607923  10.4597138  36.6643848  54.9457054  14.8397814
  37.2915887  54.5634132  15.4535338  35.8071767  54.7271256  15.2053506
  47.0637957  65.3520030  16.4451549  47.6077860  65.9649988  15.9506504
  46.4824801  65.9099608  16.9618562  33.4409391  56.7533483   0.7716168
  33.7362832  55.8444162   0.7183222  32.5397426  56.7321223   0.4497171
  45.3495469  68.4740748   7.5766577  45.2246609  67.6730487   7.0677522
  46.0074561  68.9686941   7.0880547  36.9703638  54.8289480   6.7543717
  36.2490223  55.4425448   6.6151190  37.7596893  55.3647245   6.6760363
  47.4130378  66.2749768   9.2046127  46.4660713  66.1555119   9.1324454
  47.7613151  65.3872266   9.2872388  39.7729951  52.1643907  13.0284369
  40.2964353  52.4106203  13.7910678  39.5542284  52.9963941  12.6087506
  35.1697232  54.4347581   0.8955494  34.8409938  53.5544960   0.7130600
  35.5236603  54.3795250   1.7831883  44.4176811  66.0702484   5.4050479
  44.2701774  65.1419191   5.5858049  45.2430305  66.0922575   4.9207554
  38.2839055  54.7220551   1.2630971  38.6235128  55.2506472   0.5409580
  38.7311176  55.0600957   2.0389538  48.0210933  66.8931043   6.4915352
  48.9457480  66.6873904   6.3539803  47.8526236  66.6447444   7.4004693
  40.9782496  53.1057602  10.7134039  40.6379317  52.3065415  11.1154719
  40.2721503  53.4059312  10.1410873  41.6298968  50.1906914   9.1661362
  42.4525037  49.7167392   9.0440253  41.8737032  50.9697398   9.6660049
  40.2707203  53.2195173  -0.5375736  40.9915565  53.5976425  -1.0412019
  39.6472507  53.9384049  -0.4340758  44.4138325  53.9240321   0.3982596
  44.6301940  54.8064959   0.0971425  43.9332393  53.5326535  -0.3311762
  39.1537547  56.8826035   6.9753341  39.0082128  57.1966338   7.8677622
  38.6762750  57.5010935   6.4224240  41.0133930  53.8728583   7.0234231
  40.9995498  52.9769676   6.6866528  41.7306358  53.8799246   7.6572517
  42.8660060  54.3065923   9.0687358  42.6077838  55.2282994   9.0671688
  42.3345101  53.9096357   9.7587822  47.8106249  67.4116710   1.8477443
  47.9843127  66.8463133   1.0951296  48.3035140  68.2117605   1.6656933
  33.6283209  59.4231379   9.9141002  33.0836677  60.1991187  10.0461276
  34.5062559  59.7702184   9.7560124  40.4170826  52.7542963   2.2921801
  40.5386737  51.8259609   2.4912688  40.1272868  52.7681649   1.3800116
  43.2862016  50.4397873   5.4288521  43.3083713  50.5037207   4.4740500
  43.7030075  49.6002382   5.6229027  53.6645640  60.1753133   3.4667743
  54.1076786  59.4260458   3.0686866  52.7872151  60.1663269   3.0841475
  48.7981422  66.7283474  -1.0525658  49.4932326  67.3490167  -0.8338344
  49.1404572  65.8778826  -0.7773280  34.4149231  58.5501275  12.8071159
  33.6730967  58.6983911  13.3935789  34.0941975  58.8109541  11.9437908
  50.6972845  64.1783180   0.4761672  51.2224169  64.5170453  -0.2489008
  50.6095197  63.2430195   0.2924807  42.3592894  68.0917254  12.6051549
  42.6680020  67.8466400  13.4774249  43.1568376  68.2963892  12.1170419
  42.3813506  70.2455163   4.8356926  41.9418496  69.7531542   5.5289782
  43.1321623  69.7028131   4.5949001  34.8605845  66.4366704   4.8381554
  35.6863864  66.1370476   4.4580197  34.5099897  65.6674327   5.2871342
  39.8287378  65.7893172   6.9079227  39.2067387  65.1263877   6.6081455
  40.4992245  65.8154304   6.2252875  33.0614450  64.3553031   5.7970487
  32.2246358  63.9275205   5.6154488  33.0338095  64.5485474   6.7341278
  39.9011905  54.2674960  16.5011733  39.9500061  55.1437083  16.1189503
  40.4434419  53.7252353  15.9283376  50.3866751  64.8116084  15.7812870
  49.5962295  64.7940222  15.2417370  50.1500105  65.3504377  16.5361907
  50.5064626  61.6608550  13.0945599  50.5562631  61.4958557  14.0361122
  50.3978549  60.7935809  12.7043480  39.3900885  64.3397096   0.3837688
  39.5389005  65.0232560  -0.2695639  40.1967328  64.3202186   0.8987144
  47.7968388  57.6439478  14.4104906  48.6978251  57.5045943  14.1188903
  47.8716363  57.8093933  15.3503083  42.1311194  55.0206333  13.2558092
  41.2614503  55.3139899  12.9840680  42.3670674  55.6046778  13.9765356
  52.0082823  64.0805491  13.3387620  51.7167631  64.4435472  14.1751081
  51.3954954  63.3672500  13.1600952  53.2078505  61.6458371   5.8590191
  54.0425396  62.0848175   6.0227751  53.3437634  61.1697024   5.0398436
  50.2570011  59.2038106  11.8067678  50.7324133  59.3965752  10.9986530
  49.3335576  59.2597292  11.5611062  37.1453518  60.3662273   1.3898757
  36.8999560  59.4624603   1.5878967  37.3149432  60.3679424   0.4478235
  44.8350227  51.2385950  10.7723512  45.3532171  51.9746977  10.4470001
  44.4805360  51.5449943  11.6070271  45.0862822  47.6586232   6.2924409
  45.3664575  46.9909421   6.9184835  45.8713429  47.8515328   5.7799073
  42.8896290  66.8345226  -2.1450565  42.3170257  67.4535413  -2.5980093
  43.4629084  67.3844588  -1.6110643  48.9571680  56.0803866  10.0395984
  49.9089103  56.1801964  10.0608208  48.7875130  55.2882135  10.5494068
  46.9786059  53.1659449  10.2255385  46.3835992  53.4464462   9.5301874
  46.6935756  53.6553350  10.9972126  46.1093550  67.1182376  -1.0141983
  47.0424223  67.0527938  -0.8109107  46.0216763  67.9538643  -1.4727450
  48.7381567  66.4348247  -4.0538035  48.6595198  66.1008110  -3.1602277
  49.5591233  66.9270014  -4.0546563  51.4359758  59.3009986   9.1538284
  51.4036078  58.3625987   9.3397967  52.0460381  59.3794023   8.4204109
  43.2743089  58.1706039  -4.8034512  44.2202193  58.0412247  -4.7346094
  42.8957334  57.4320701  -4.3265084  51.5854246  56.0921029   9.1996567
  51.0693295  55.3079486   9.0126496  52.4694195  55.7639746   9.3643086
  49.2464973  49.8362045   5.1592380  49.0489794  49.5277133   6.0435711
  49.8564679  50.5623684   5.2890309  57.2536308  60.3625993   8.2944320
  57.9839696  60.1011281   8.8552024  56.6443253  59.6254715   8.3346388
  55.3351605  58.5033855   8.8918772  54.6084768  58.3689820   8.2835263
  54.9198892  58.8110684   9.6975490  43.1581781  62.2223785  16.6566145
  44.0784791  62.4002384  16.8506191  43.1231364  61.2779830  16.5045844
  32.3763946  57.4162379   5.5819419  32.0566731  56.5627687   5.2893793
  31.8297374  57.6310957   6.3377387  36.1543854  60.1324820   9.2988926
  36.3729863  61.0641927   9.3176960  36.5669628  59.7732794  10.0843730
  43.0748072  50.6392905   1.2864614  42.2648800  50.2939990   1.6619860
  43.7632488  50.3300449   1.8752226  45.0038620  49.7170952   2.9088911
  45.5569658  50.1366405   3.5678934  45.2408706  48.7906700   2.9511867
  41.0271719  55.7058025  18.6891675  40.9268446  56.6552382  18.6203766
  40.8093261  55.3776264  17.8167745  32.2452206  61.0365290   7.5512541
  31.5515678  60.6219243   7.0382495  32.9925197  61.0785827   6.9545960
  48.3817427  51.8271477   2.4167575  47.8016096  52.4856281   2.0345628
  48.1153360  51.0048822   2.0054993  46.8320993  51.2276535   4.6188895
  47.3320772  51.3393069   3.8103214  47.4756601  50.9237587   5.2589704
  40.8902989  59.1355164  17.5056736  40.4070071  59.9355524  17.7120625
  40.9763928  59.1463109  16.5524180  34.1588949  60.9683544   5.4278556
  34.1359637  61.0671231   4.4760439  34.4689585  61.8148695   5.7495722
  36.8176327  63.0259699   9.5425170  37.7719580  62.9943641   9.4755102
  36.6188850  62.5650323  10.3575396  37.4075709  61.5960815  12.1095968
  38.2268598  62.0904894  12.1330805  37.6812516  60.6792783  12.0813535
  47.1642305  53.9871567   1.4723923  46.2768160  54.2721218   1.2544118
  47.5796294  53.8265331   0.6251200  50.5156841  54.0118088   5.1878263
  51.2917231  54.5014541   5.4602879  49.7904975  54.4376142   5.6450132
  52.9529400  54.7245708   6.2452203  53.5473890  54.4841443   5.5345511
  53.0255983  54.0052838   6.8725740  35.1726555  68.5679318   6.5595368
  35.0381023  67.8079719   5.9933366  34.7558618  69.2920218   6.0924157
  46.3085518  63.7516242  -4.4328057  47.0121368  63.9566244  -3.8170401
  45.5848167  64.3193004  -4.1678973  47.1383329  59.5026103   1.6874214
  47.0818530  59.9594655   0.8481846  47.6911671  58.7416788   1.5097056
  50.9488135  55.2915835   2.5124333  50.6925069  54.8912471   3.3432541
  50.3241003  56.0059629   2.3874472  55.2600472  58.0311908   5.0195624
  54.7000030  58.1005098   5.7927187  54.6543976  57.8552893   4.2995121
  38.3295681  69.4648635   6.7713811  38.2128065  70.4094068   6.6692501
  37.5088128  69.1622197   7.1599610  48.2172216  64.1898771  -2.3829597
  49.0517820  63.7579970  -2.5652122  48.0556559  64.0180785  -1.4552702
  47.8718108  60.6930885  -1.0173257  47.8166912  60.5275156  -1.9584813
  47.2464163  61.4006917  -0.8611068  32.6610623  55.9298949  12.8088165
  33.3069487  55.4197903  13.2975390  32.4527774  56.6667631  13.3831590
  45.1864015  62.9979796  18.3080305  46.0555175  63.1720449  17.9466940
  44.7070767  63.8174213  18.1856035  39.3550195  70.1176897   9.9869739
  40.2577442  70.1500508  10.3036234  39.1287565  69.1877348  10.0016075
  41.1103797  68.8707884   6.6479818  40.1599428  68.8709746   6.5344190
  41.4136284  68.1240618   6.1315852  44.9966353  46.7881770   2.8157998
  44.2298749  46.2340257   2.9614680  45.4077058  46.8603639   3.6772150
  37.0008114  53.0766566  16.9063179  37.8639576  52.7203371  17.1166504
  36.4273525  52.7380461  17.5938583  56.8456491  74.7068422   7.7125580
  57.4834901  74.5875170   7.0088920  56.7277334  75.6549266   7.7713532
  53.6546197  74.6595850   7.6487105  53.3164709  74.5436915   6.7607640
  54.5235965  74.2587015   7.6288111  49.5133013  76.5131327   3.6383996
  48.9497878  76.4221264   2.8700284  49.3985408  75.6931231   4.1186488
  54.1365980  75.8130702  13.6073310  54.1254621  75.4183500  12.7353814
  54.2986620  75.0796775  14.2007082  47.0597445  78.0082518   6.4768216
  47.8518737  77.6673343   6.0614516  47.2994095  78.1177493   7.3970370
  55.0932572  80.1802295  -1.0501539  54.4420551  80.7656375  -1.4367525
  55.8876934  80.7108489  -0.9906502  49.0188199  77.2691432  -0.6514405
  49.7919075  76.7220419  -0.7901529  49.3713598  78.1335681  -0.4399944
  50.8573241  78.5967814  12.5552494  50.5663107  79.5013445  12.4399161
  51.4930226  78.6384342  13.2696564  51.7829448  75.9744662   9.1453854
  52.3793020  75.7500685   8.4310817  51.8404420  75.2329408   9.7479302
  51.3554477  73.4284098  -3.0195955  51.6079997  72.9065619  -3.7812492
  50.4179036  73.2650243  -2.9169271  56.3997759  72.4319876   4.7878788
  57.1860849  72.0139299   4.4369205  56.6636464  73.3365968   4.9560437
  56.5707837  77.8692726  -0.5132555  55.9353670  77.9427353   0.1988350
  56.2405243  78.4586325  -1.1913476  61.8006186  72.3695109   5.6911767
  62.5331358  71.7994326   5.9249596  61.0445542  71.9816710   6.1318272
  51.0750765  75.3312204  -0.8171580  50.9587023  74.6557107  -0.1490496
  51.1853025  74.8444578  -1.6339427  53.4182306  74.7922351   2.8875109
  53.0540513  74.2652972   3.5988031  54.2749422  74.4020820   2.7141595
  59.3231607  66.0816683  10.1506375  58.9914932  66.9512094   9.9267590
  58.7277220  65.7652967  10.8300406  53.0587793  69.8212251  -2.1163542
  53.2262196  70.6892487  -1.7493071  52.8684962  69.9839532  -3.0402253
  55.8163126  78.2829229   9.5502288  55.5163849  79.1854268   9.4418095
  55.4714186  78.0161413  10.4023441  49.2675608  74.7343026   5.5838992
  48.3426104  74.6019240   5.7916684  49.5160021  75.5137246   6.0808935
  59.2160270  70.8011770   7.2299725  58.3077147  70.7327178   6.9358486
  59.1647866  71.2783715   8.0581551  53.0377014  72.2769908  -1.1316875
  52.9176639  72.7226959  -0.2931395  52.3429602  72.6255226  -1.6903337
  46.6284419  74.3776300   6.4182782  46.7576800  74.6310779   7.3322193
  45.9481870  74.9704008   6.0987437  50.7983906  85.0473550   2.5173256
  50.7207936  85.9981375   2.5961736  50.1945550  84.7019422   3.1748182
  53.2901136  72.2201415  15.1734623  52.5134470  72.7795335  15.1637487
  53.9291699  72.7058198  15.6949493  61.0821917  69.0028208   9.0077599
  60.4396297  69.2960741   8.3617394  60.5776845  68.8881128   9.8130796
  58.7362080  72.7491381  -0.3036541  59.6479936  72.9818768  -0.4788844
  58.2271727  73.3328425  -0.8661463  57.0202848  77.1716009  13.3324751
  57.4286204  76.7298420  12.5879384  56.2980109  76.5968637  13.5858944
  53.3733918  72.1088616  10.7058308  54.2195113  72.5328029  10.8492957
  53.3132556  71.4522240  11.3996871  57.3431663  77.7317200   7.0877040
  56.7140525  77.8962914   6.3853108  56.9557325  78.1458809   7.8588004
  61.2220894  78.6671638   4.4421404  60.5371933  79.0470539   3.8918437
  61.3064744  79.2766964   5.1753352  56.5233363  69.7692984  12.3639482
  56.2794295  70.5235045  11.8273757  56.7993294  70.1478332  13.1986729
  58.4771826  76.3131597  11.0416747  58.6888721  76.9563356  10.3651128
  58.4301574  75.4793913  10.5738677  56.0798055  68.9249417   7.9453319
  55.2182534  69.2230671   8.2370057  56.1060490  69.1419816   7.0134352
  52.8959624  77.4691608   4.3527125  53.3597970  77.7479311   3.5631748
  52.6316423  76.5675052   4.1700216  49.7883705  77.0163089   7.2906888
  50.3585063  77.4450358   6.6524373  50.3791817  76.7345674   7.9891074
  51.8328510  73.5914760   1.1616690  52.5352554  74.0435804   1.6290617
  51.5009139  72.9498579   1.7896583  50.2808872  72.1826517  15.5367900
  49.6507533  72.8642798  15.7703296  50.1744960  72.0709598  14.5921038
  45.5753844  71.8498313   6.4633824  44.7852898  72.1055841   5.9873934
  46.0665092  72.6646651   6.5685864  59.5917654  79.1903552   9.2139105
  60.4135098  78.7883739   8.9321786  59.5880057  79.0871786  10.1655220
  47.5268590  72.2142892   3.4217301  46.7299753  72.3261586   3.9400796
  47.2994182  72.5529544   2.5558191  53.3574257  78.7387595  11.3699815
  53.4218690  79.2008003  12.2057987  52.6485181  78.1084960  11.4982125
  43.8591547  72.1028803   8.8948815  44.1099586  72.9875813   9.1606391
  44.3951096  71.9233405   8.1223906  67.6823647  75.5342300   5.5624076
  66.9287355  74.9649699   5.4068081  67.8171188  75.5004965   6.5094711
  53.0722275  80.4055703   1.2378795  52.9367950  81.2507238   1.6663643
  53.6132088  80.6074980   0.4744729  46.5251672  77.9231141   1.8106721
  47.0376193  78.7174391   1.9612285  47.1774385  77.2257431   1.7440322
  48.3346557  81.0396897   3.8929474  48.5113186  81.9614862   3.7050458
  49.1303391  80.7255316   4.3223854  52.4757576  67.9005162  15.4913407
  53.2167289  68.5012315  15.4117870  52.7075499  67.1582799  14.9331450
  54.6990751  81.0279269  15.3679138  54.2554606  80.2415648  15.0500042
  55.3607965  81.2158420  14.7023028  49.4577873  82.5575071   9.8939816
  50.0085298  82.4292134   9.1216810  48.6189349  82.8569960   9.5434709
  56.7971990  81.3082069  13.3960539  56.7790465  82.1290950  12.9040808
  57.7191910  81.1836144  13.6210680  53.2545044  78.8226199  14.2384047
  53.7873380  78.0614487  14.0083355  52.7259125  78.5299850  14.9808202
  56.4214739  63.9286265   9.7677689  56.0779008  64.8187906   9.6916800
  56.7893701  63.7387922   8.9047274  44.4900589  76.2519795   2.5866291
  45.3275811  76.6616803   2.3699999  44.6678857  75.3119237   2.5566485
  56.3865021  73.9194876  -1.7249876  55.8711645  74.6899480  -1.4861489
  56.1142330  73.2460012  -1.1016814  53.9712132  68.7644577   3.3335362
  53.1153729  68.3751427   3.1541001  54.3839084  68.8436537   2.4735148
  55.5011279  66.2990920   7.7326922  54.9976075  66.2621055   6.9194727
  55.7941886  67.2083663   7.7923579  51.7454165  66.3829650   6.7393104
  52.6107162  66.1872458   6.3798993  51.8131674  66.1540001   7.6662461
  61.3599296  76.6727230   0.2103298  60.5828738  76.3338390  -0.2341540
  62.0390776  76.6779854  -0.4641737  56.1751325  71.7921968   0.1009905
  55.8701460  72.1068117   0.9520048  57.1281767  71.8703388   0.1437238
  54.6197756  77.9512191   1.7502859  54.0919118  77.2164951   1.4376097
  54.1185259  78.7286868   1.5042828  59.5990602  76.1461212   6.8669906
  58.9414277  76.8360473   6.9550034  60.4031002  76.5357644   7.2103892
  49.3516484  68.6131857   4.1109471  49.9260236  68.3907039   3.3782664
  49.9387466  68.6820552   4.8638072  58.4096061  74.5005584   4.9173847
  58.9227943  75.1335576   5.4195557  59.0597285  73.9006780   4.5517207
  49.6786071  70.6436318  -1.8694644  48.8423383  70.9811005  -1.5485369
  49.5390841  70.5085298  -2.8067507  51.6539152  65.4873106   2.8384540
  51.0003564  65.1722124   2.2141155  51.6119626  64.8648847   3.5644363
  52.7650357  75.7692401  -5.2462168  51.8577418  75.5381655  -5.0471019
  53.2621389  74.9730021  -5.0588186  54.8876892  71.9755040   7.1632188
  53.9699453  72.1969987   7.0053876  55.3037036  72.0501350   6.3043895
  55.6711940  73.3746456   2.2934868  56.4183759  73.8867853   1.9841990
  55.9403529  73.0530508   3.1539262  53.9438590  75.8704996  -0.7238178
  53.0349809  75.5864029  -0.6265708  53.9733674  76.2904075  -1.5834871
  59.1757857  79.4811586   3.0452990  58.7220185  78.6402496   3.1018180
  58.5451824  80.1172984   3.3827770  58.1190777  70.4103572   4.2753657
  57.3813534  69.8980958   4.6063900  58.3717551  69.9703953   3.4636934
  57.6190797  81.3188082   3.9802808  57.9113771  81.8793140   3.2615174
  58.1289417  81.6116643   4.7355967  58.2202404  63.1879824   4.8695427
  58.5261281  62.3277187   4.5821342  58.9455009  63.7797444   4.6694421
  44.5126760  73.5910510   3.2577025  44.3151160  72.9979871   2.5328091
  43.9573424  73.2862721   3.9752963  52.4923484  73.4833617   5.3771618
  52.5472094  72.5307453   5.3014094  51.6814686  73.6393056   5.8612916
  53.6414678  77.4113740  -3.3850099  53.2034108  76.6949599  -3.8444462
  54.3825119  77.6389855  -3.9465008  50.4315844  72.1010677   3.1361997
  49.6183710  72.4004847   3.5427189  50.9274838  71.7066365   3.8536479
  52.5824422  82.0968434   5.0696261  52.5400601  82.3229280   4.1404793
  53.4987121  81.8631808   5.2182062  56.0290056  72.5652501  11.9676890
  56.3839443  72.7923974  12.8271356  56.6762187  72.8970878  11.3454146
  61.7587793  75.6870937   2.6726219  61.6205691  75.8772533   1.7447409
  61.4024011  76.4490320   3.1294271  49.9229919  69.6729032   8.7523232
  50.5629298  69.5317791   8.0546195  49.0907449  69.3863546   8.3761834
  61.7857172  77.7547464   7.6837491  62.2193679  77.6622753   8.5320545
  62.4988753  77.7304964   7.0457507  50.6990223  78.9731463   4.8658224
  51.4930821  78.4781783   4.6640799  49.9881915  78.4449326   4.5025930
  55.5185067  81.3549558   9.2170592  55.5722089  81.9240494   9.9848307
  54.6499848  81.5251443   8.8524629  47.0072986  73.1174544   0.9417977
  46.0770574  73.0559000   1.1587939  47.1030458  72.5950497   0.1454618
  46.9258535  69.6429357   3.5296218  47.1865352  70.5574690   3.4205379
  47.7475707  69.1753800   3.6792831  48.3983460  71.0567114  10.6995043
  49.0706514  70.8484476  10.0507692  47.5713247  70.8589200  10.2600275
  62.6472722  77.7971165  10.2170376  62.8408612  78.7016975  10.4629651
  62.5473340  77.3378584  11.0508961  54.3009032  67.6829055  12.7160704
  53.6536948  68.3819005  12.6225180  55.0710048  68.1165199  13.0836952
  57.7087830  77.9477907  15.7911257  57.5573337  77.7188459  14.8741341
  57.6992510  78.9048509  15.8042602  54.4773167  75.5209820  10.7757523
  55.4065227  75.6720980  10.6026491  54.0564197  75.6093841   9.9206170
  53.2761499  79.5460485   8.5456061  53.1372584  79.1779269   9.4181999
  52.4876095  80.0608124   8.3740019  53.8709651  84.6469581  -0.1118402
  54.0461406  84.1757624   0.7027220  53.1842439  85.2735347   0.1162858
  54.8266714  78.9242087   5.9344899  54.4916546  78.8842857   6.8302549
  54.3270659  78.2586803   5.4615309  48.8010958  74.3309717  11.4597480
  48.6630756  73.5989956  12.0609019  49.7115881  74.2418617  11.1781668
  51.4293258  74.0429677  10.9481160  52.1392877  73.4022869  10.9067778
  51.3862567  74.2942571  11.8707340  59.4180037  80.9797030  13.8687739
  59.3592583  80.2956250  13.2018322  59.8199555  81.7216020  13.4168365
  50.1422192  71.0294895  12.7676799  49.6059549  70.5785633  13.4198395
  49.5538901  71.1640803  12.0247263  48.4370736  87.7958944   6.6621458
  48.6767334  88.4277468   7.3400476  47.5939932  87.4446984   6.9486817
  49.5524451  70.4883546  -4.6696737  48.6753918  70.3672347  -5.0334491
  50.0282204  69.6969624  -4.9217849  59.4197444  78.9436614  12.1001719
  58.5324223  78.6062536  12.2228117  59.9895995  78.2119645  12.3370484
  41.0726591  75.2760706   5.4244770  41.7597631  74.9622436   4.8365785
  40.9174720  76.1802070   5.1512021  45.8761314  70.1650902   9.8529794
  45.7919502  69.5576572   9.1180204  45.0544020  70.6559921   9.8539290
  52.9498598  83.6038066   9.0662962  52.8768769  84.4093038   9.5782266
  52.5075991  83.8030032   8.2410983  52.7388377  82.8409836   2.5765783
  51.9555899  83.3831516   2.6704008  53.4381123  83.3583816   2.9760024
  56.0485027  68.6504466   5.2199989  56.5453727  67.8974428   4.9001059
  55.2772009  68.6868782   4.6543198  63.9014785  74.3544831   6.8618280
  63.8904661  75.2369547   6.4912213  63.0332164  74.0016382   6.6672817
  55.4097281  83.5024900  11.2221120  56.1225253  84.1372365  11.1497022
  54.9187310  83.5988766  10.4061122  57.1314808  77.4076153   2.7938412
  56.1971087  77.5277615   2.6243116  57.3091477  76.5048620   2.5298422
  52.6319996  70.7921849   4.9471673  52.2617784  70.2392889   5.6352579
  53.1279089  70.1879982   4.3946673  60.5187360  73.2493472   3.3288446
  60.9847812  74.0821464   3.2548749  60.9694860  72.7838454   4.0333705
  50.4609195  81.2519344  12.0426691  51.1618654  81.8855827  12.1956085
  49.9904310  81.5934075  11.2822330  58.5863591  79.5937294   0.3274598
  58.8623435  79.4793888   1.2368472  57.7168089  79.1954778   0.2886771
  58.4904022  65.6174059   7.3679348  57.5767102  65.8478286   7.5361554
  58.9197124  65.7012503   8.2193380  58.2610481  73.8063951   9.8679242
  57.6081931  74.0539859   9.2131694  58.6390861  72.9928089   9.5341719
  55.2217655  83.8423644   3.9707412  55.4040049  83.0245300   4.4335164
  56.0450641  84.0591337   3.5332302  55.5559820  82.7691829   1.2322460
  56.0847587  82.2584284   0.6192622  55.8188040  82.4534360   2.0967993
  46.0576913  80.7855699   8.9757794  46.6430350  80.0399387   9.1085698
  45.8601751  81.0959655   9.8594458  48.9115568  83.8206946   3.9920236
  48.2425943  84.3053074   3.5084276  48.7728438  84.0676167   4.9063615
  40.6494568  73.3561299   7.6962237  40.6878667  72.8224890   8.4899355
  40.1434860  72.8296505   7.0773214  53.0520837  85.8550690  10.5902895
  53.6039145  86.0182311  11.3551980  53.3927030  86.4455128   9.9182920
  48.0285330  68.2025840  11.1924779  48.0926656  69.0640670  10.7802177
  47.9652450  67.5899841  10.4597138  57.9031711  80.6811947  16.4451549
  58.4471615  81.2941905  15.9506504  57.3218556  81.2391526  16.9618562
  44.2803145  72.0825401   0.7716168  44.5756586  71.1736080   0.7183222
  43.3791181  72.0613141   0.4497171  56.1889224  83.8032665   7.5766577
  56.0640363  83.0022405   7.0677522  56.8468315  84.2978859   7.0880547
  47.8097392  70.1581398   6.7543717  47.0883978  70.7717365   6.6151190
  48.5990648  70.6939163   6.6760363  58.2524132  81.6041685   9.2046127
  57.3054468  81.4847036   9.1324454  58.6006905  80.7164183   9.2872388
  50.6123706  67.4935824  13.0284369  51.1358108  67.7398121  13.7910678
  50.3936039  68.3255859  12.6087506  46.0090987  69.7639499   0.8955494
  45.6803693  68.8836878   0.7130600  46.3630357  69.7087168   1.7831883
  55.2570566  81.3994402   5.4050479  55.1095528  80.4711109   5.5858049
  56.0824059  81.4214492   4.9207554  49.1232810  70.0512469   1.2630971
  49.4628882  70.5798390   0.5409580  49.5704930  70.3892875   2.0389538
  58.8604687  82.2222960   6.4915352  59.7851235  82.0165822   6.3539803
  58.6919991  81.9739361   7.4004693  51.8176251  68.4349519  10.7134039
  51.4773071  67.6357332  11.1154719  51.1115257  68.7351230  10.1410873
  52.4692723  65.5198832   9.1661362  53.2918792  65.0459310   9.0440253
  52.7130786  66.2989316   9.6660049  51.1100957  68.5487090  -0.5375736
  51.8309320  68.9268343  -1.0412019  50.4866261  69.2675967  -0.4340758
  55.2532080  69.2532239   0.3982596  55.4695694  70.1356877   0.0971425
  54.7726147  68.8618453  -0.3311762  49.9931301  72.2117952   6.9753341
  49.8475882  72.5258255   7.8677622  49.5156505  72.8302853   6.4224240
  51.8527684  69.2020500   7.0234231  51.8389253  68.3061594   6.6866528
  52.5700112  69.2091164   7.6572517  53.7053815  69.6357841   9.0687358
  53.4471593  70.5574911   9.0671688  53.1738855  69.2388275   9.7587822
  58.6500004  82.7408628   1.8477443  58.8236881  82.1755050   1.0951296
  59.1428895  83.5409523   1.6656933  44.4676963  74.7523297   9.9141002
  43.9230432  75.5283105  10.0461276  45.3456313  75.0994101   9.7560124
  51.2564580  68.0834881   2.2921801  51.3780491  67.1551527   2.4912688
  50.9666623  68.0973567   1.3800116  54.1255771  65.7689791   5.4288521
  54.1477467  65.8329124   4.4740500  54.5423830  64.9294300   5.6229027
  64.5039395  75.5045051   3.4667743  64.9470541  74.7552376   3.0686866
  63.6265905  75.4955187   3.0841475  53.2207260  85.5747081   4.8356926
  52.7812250  85.0823460   5.5289782  53.9715377  85.0320049   4.5949001
  45.6999599  81.7658622   4.8381554  46.5257619  81.4662394   4.4580197
  45.3493651  80.9966244   5.2871342  50.6681132  81.1185090   6.9079227
  50.0461141  80.4555795   6.6081455  51.3385999  81.1446222   6.2252875
  43.9008204  79.6844948   5.7970487  43.0640112  79.2567123   5.6154488
  43.8731850  79.8777392   6.7341278  50.7405660  69.5966878  16.5011733
  50.7893815  70.4729001  16.1189503  51.2828174  69.0544271  15.9283376
  61.2260505  80.1408001  15.7812870  60.4356049  80.1232140  15.2417370
  60.9893860  80.6796295  16.5361907  61.3458380  76.9900468  13.0945599
  61.3956385  76.8250475  14.0361122  61.2372304  76.1227727  12.7043480
  50.2294639  79.6689013   0.3837688  50.3782759  80.3524478  -0.2695639
  51.0361083  79.6494103   0.8987144  58.6362143  72.9731396  14.4104906
  59.5372006  72.8337861  14.1188903  58.7110117  73.1385851  15.3503083
  52.9704948  70.3498250  13.2558092  52.1008258  70.6431816  12.9840680
  53.2064428  70.9338695  13.9765356  62.8476577  79.4097409  13.3387620
  62.5561386  79.7727390  14.1751081  62.2348709  78.6964417  13.1600952
  64.0472260  76.9750289   5.8590191  64.8819151  77.4140093   6.0227751
  64.1831388  76.4988942   5.0398436  61.0963765  74.5330024  11.8067678
  61.5717887  74.7257670  10.9986530  60.1729331  74.5889210  11.5611062
  47.9847272  75.6954191   1.3898757  47.7393314  74.7916521   1.5878967
  48.1543187  75.6971341   0.4478235  55.6743982  66.5677867  10.7723512
  56.1925926  67.3038894  10.4470001  55.3199115  66.8741861  11.6070271
  47.2542920  71.4282549  -1.1115082  46.5612165  71.5026904  -1.7675046
  47.0094672  70.6642892  -0.5893565  55.9256576  62.9878150   6.2924409
  56.2058330  62.3201339   6.9184835  56.7107183  63.1807246   5.7799073
  59.7965434  71.4095784  10.0395984  60.7482857  71.5093882  10.0608208
  59.6268885  70.6174052  10.5494068  57.8179814  68.4951367  10.2255385
  57.2229746  68.7756380   9.5301874  57.5329511  68.9845268  10.9972126
  62.2753512  74.6301904   9.1538284  62.2429832  73.6917904   9.3397967
  62.8854136  74.7085940   8.4204109  54.1136843  73.4997957  -4.8034512
  55.0595948  73.3704165  -4.7346094  53.7351088  72.7612618  -4.3265084
  62.4248001  71.4212947   9.1996567  61.9087049  70.6371404   9.0126496
  63.3087949  71.0931664   9.3643086  60.0858728  65.1653963   5.1592380
  59.8883549  64.8569051   6.0435711  60.6958433  65.8915601   5.2890309
  68.0930062  75.6917910   8.2944320  68.8233451  75.4303199   8.8552024
  67.4837008  74.9546632   8.3346388  66.1745359  73.8325773   8.8918772
  65.4478523  73.6981738   8.2835263  65.7592646  74.1402602   9.6975490
  52.2979760  71.4247933  -4.8679627  51.3911216  71.1281046  -4.7916913
  52.5755741  71.1277751  -5.7345341  43.2157701  72.7454296   5.5819419
  42.8960485  71.8919605   5.2893793  42.6691129  72.9602874   6.3377387
  46.9937608  75.4616737   9.2988926  47.2123618  76.3933845   9.3176960
  47.4063382  75.1024712  10.0843730  53.9141826  65.9684823   1.2864614
  53.1042554  65.6231908   1.6619860  54.6026243  65.6592366   1.8752226
  55.8432374  65.0462869   2.9088911  56.3963413  65.4658323   3.5678934
  56.0802461  64.1198618   2.9511867  51.8665474  71.0349943  18.6891675
  51.7662200  71.9844300  18.6203766  51.6487016  70.7068182  17.8167745
  51.0678545  68.2834868  -4.7267648  51.9297709  68.6089766  -4.4671831
  51.2528889  67.4966364  -5.2394582  43.0845961  76.3657208   7.5512541
  42.3909432  75.9511161   7.0382495  43.8318952  76.4077744   6.9545960
  59.2211181  67.1563395   2.4167575  58.6409850  67.8148199   2.0345628
  58.9547114  66.3340739   2.0054993  57.6714748  66.5568452   4.6188895
  58.1714526  66.6684987   3.8103214  58.3150356  66.2529505   5.2589704
  44.9982703  76.2975462   5.4278556  44.9753391  76.3963149   4.4760439
  45.3083340  77.1440612   5.7495722  47.6570081  78.3551617   9.5425170
  48.6113335  78.3235559   9.4755102  47.4582605  77.8942240  10.3575396
  48.2469463  76.9252733  12.1095968  49.0662352  77.4196811  12.1330805
  48.5206271  76.0084701  12.0813535  58.0036059  69.3163485   1.4723923
  57.1161914  69.6013136   1.2544118  58.4190048  69.1557248   0.6251200
  61.3550596  69.3410006   5.1878263  62.1310986  69.8306458   5.4602879
  60.6298730  69.7668060   5.6450132  63.7923154  70.0537625   6.2452203
  64.3867645  69.8133361   5.5345511  63.8649738  69.3344756   6.8725740
  46.0120310  83.8971236   6.5595368  45.8774778  83.1371637   5.9933366
  45.5952372  84.6212136   6.0924157  57.9777083  74.8318021   1.6874214
  57.9212285  75.2886572   0.8481846  58.5305426  74.0708706   1.5097056
  61.7881889  70.6207753   2.5124333  61.5318823  70.2204388   3.3432541
  61.1634757  71.3351547   2.3874472  66.0994227  73.3603826   5.0195624
  65.5393785  73.4297015   5.7927187  65.4937730  73.1844811   4.2995121
  49.1689436  84.7940553   6.7713811  49.0521820  85.7385986   6.6692501
  48.3481882  84.4914115   7.1599610  58.7111862  76.0222802  -1.0173257
  58.6560666  75.8567074  -1.9584813  58.0857918  76.7298835  -0.8611068
  52.0207988  65.5230911  -1.4387939  52.0086658  66.4672751  -1.2819668
  52.9131410  65.3401057  -1.7328478  50.1943950  85.4468815   9.9869739
  51.0971197  85.4792425  10.3036234  49.9681320  84.5169266  10.0016075
  51.9497552  84.1999802   6.6479818  50.9993183  84.2001663   6.5344190
  52.2530038  83.4532536   6.1315852  55.8360107  62.1173688   2.8157998
  55.0692503  61.5632175   2.9614680  56.2470812  62.1895557   3.6772150
  64.4939952  89.9887768   7.6487105  64.1558463  89.8728833   6.7607640
  65.3629720  89.5878933   7.6288111  64.9759735  91.1422620  13.6073310
  64.9648375  90.7475418  12.7353814  65.1380374  90.4088692  14.2007082
  61.6966996  93.9259732  12.5552494  61.4056862  94.8305362  12.4399161
  62.3323980  93.9676259  13.2696564  62.6223203  91.3036580   9.1453854
  63.2186775  91.0792603   8.4310817  62.6798174  90.5621326   9.7479302
  70.1625361  81.4108601  10.1506375  69.8308686  82.2804012   9.9267590
  69.5670975  81.0944885  10.8300406  60.1069362  90.0634944   5.5838992
  59.1819859  89.9311158   5.7916684  60.3553776  90.8429163   6.0808935
  70.0554025  86.1303687   7.2299725  69.1470902  86.0619096   6.9358486
  70.0041620  86.6075632   8.0581551  57.4678173  89.7068218   6.4182782
  57.5970555  89.9602696   7.3322193  56.7875625  90.2995926   6.0987437
  64.1294890  87.5493333  15.1734623  63.3528224  88.1087253  15.1637487
  64.7685453  88.0350116  15.6949493  71.9215671  84.3320126   9.0077599
  71.2790051  84.6252659   8.3617394  71.4170600  84.2173046   9.8130796
  62.3841263  90.3578786  14.7352590  63.1255947  90.8963830  14.4587413
  61.6778248  90.9845075  14.8924141  67.8596602  92.5007927  13.3324751
  68.2679958  92.0590337  12.5879384  67.1373864  91.9260554  13.5858944
  64.2127672  87.4380533  10.7058308  65.0588868  87.8619947  10.8492957
  64.1526310  86.7814158  11.3996871  67.3627118  85.0984902  12.3639482
  67.1188050  85.8526962  11.8273757  67.6387048  85.4770249  13.1986729
  69.3165581  91.6423514  11.0416747  69.5282476  92.2855274  10.3651128
  69.2695329  90.8085831  10.5738677  66.9191809  84.2541335   7.9453319
  66.0576289  84.5522588   8.2370057  66.9454244  84.4711734   7.0134352
  61.1202626  87.5118434  15.5367900  60.4901287  88.1934715  15.7703296
  61.0138714  87.4001516  14.5921038  56.4147599  87.1790230   6.4633824
  55.6246653  87.4347759   5.9873934  56.9058846  87.9938568   6.5685864
  64.1968012  94.0679513  11.3699815  64.2612444  94.5299920  12.2057987
  63.4878936  93.4376878  11.4982125  54.6985302  87.4320721   8.8948815
  54.9493340  88.3167731   9.1606391  55.2344850  87.2525322   8.1223906
  63.3151330  83.2297079  15.4913407  64.0561044  83.8304233  15.4117870
  63.5469253  82.4874717  14.9331450  58.4592668  88.4153447  13.7691637
  58.3446183  87.5138704  14.0698736  57.6037186  88.6617143  13.4176453
  65.5384506  96.3571187  15.3679138  65.0948360  95.5707566  15.0500042
  66.2001720  96.5450337  14.7023028  67.6365744  96.6373987  13.3960539
  67.6184219  97.4582868  12.9040808  68.5585664  96.5128062  13.6210680
  64.0938798  94.1518116  14.2384047  64.6267135  93.3906405  14.0083355
  63.5652879  93.8591768  14.9808202  67.2608493  79.2578182   9.7677689
  66.9172763  80.1479824   9.6916800  67.6287456  79.0679840   8.9047274
  66.3405034  81.6282837   7.7326922  65.8369829  81.5912973   6.9194727
  66.6335640  82.5375580   7.7923579  62.5847919  81.7121567   6.7393104
  63.4500916  81.5164376   6.3798993  62.6525428  81.4831919   7.6662461
  60.1910238  83.9423775   4.1109471  60.7653990  83.7198957   3.3782664
  60.7781221  84.0112470   4.8638072  62.4932906  80.8165024   2.8384540
  61.8397319  80.5014041   2.2141155  62.4513380  80.1940764   3.5644363
  65.7270647  87.3046958   7.1632188  64.8093208  87.5261905   7.0053876
  66.1430790  87.3793268   6.3043895  69.0596159  78.5171742   4.8695427
  69.3655036  77.6569105   4.5821342  69.7848764  79.1089362   4.6694421
  55.3520515  88.9202428   3.2577025  55.1544915  88.3271789   2.5328091
  54.7967179  88.6154638   3.9752963  66.8683810  87.8944419  11.9676890
  67.2233198  88.1215892  12.8271356  67.5155941  88.2262796  11.3454146
  60.7623673  85.0020950   8.7523232  61.4023053  84.8609709   8.0546195
  59.9301204  84.7155463   8.3761834  57.7652290  84.9721275   3.5296218
  58.0259107  85.8866608   3.4205379  58.5869462  84.5045717   3.6792831
  59.2377215  86.3859032  10.6995043  59.9100268  86.1776394  10.0507692
  58.4107001  86.1881118  10.2600275  65.1402787  83.0120973  12.7160704
  64.4930702  83.7110923  12.6225180  65.9103802  83.4457117  13.0836952
  68.5481585  93.2769825  15.7911257  68.3967091  93.0480377  14.8741341
  68.5386264  94.2340427  15.8042602  65.3166921  90.8501738  10.7757523
  66.2458981  91.0012897  10.6026491  64.8957951  90.9385759   9.9206170
  59.6404712  89.6601635  11.4597480  59.5024510  88.9281874  12.0609019
  60.5509636  89.5710535  11.1781668  62.2687013  89.3721594  10.9481160
  62.9786631  88.7314786  10.9067778  62.2256321  89.6234489  11.8707340
  60.9815947  86.3586812  12.7676799  60.4453304  85.9077551  13.4198395
  60.3932655  86.4932721  12.0247263  70.2591199  94.2728532  12.1001719
  69.3717978  93.9354453  12.2228117  70.8289750  93.5411563  12.3370484
  51.9120346  90.6052623   5.4244770  52.5991386  90.2914353   4.8365785
  51.7568475  91.5093988   5.1512021  56.7155068  85.4942820   9.8529794
  56.6313257  84.8868489   9.1180204  55.8937775  85.9851838   9.8539290
  66.8878782  83.9796383   5.2199989  67.3847482  83.2266346   4.9001059
  66.1165763  84.0160700   4.6543198  63.4713751  86.1213766   4.9471673
  63.1011538  85.5684807   5.6352579  63.9672843  85.5171900   4.3946673
  61.3002949  96.5811261  12.0426691  62.0012409  97.2147744  12.1956085
  60.8298064  96.9225993  11.2822330  69.3297777  80.9465977   7.3679348
  68.4160857  81.1770204   7.5361554  69.7590878  81.0304421   8.2193380
  69.1004235  89.1355869   9.8679242  68.4475685  89.3831776   9.2131694
  69.4784615  88.3220007   9.5341719  65.1491808  89.8775680  16.3545279
  64.4732445  89.7769809  17.0247654  65.9719442  89.7214894  16.8181276
  56.8970667  96.1147616   8.9757794  57.4824104  95.3691304   9.1085698
  56.6995506  96.4251573   9.8594458  51.4888322  88.6853217   7.6962237
  51.5272422  88.1516807   8.4899355  50.9828615  88.1588422   7.0773214
  58.8679084  83.5317757  11.1924779  58.9320411  84.3932588  10.7802177
  58.8046205  82.9191759  10.4597138  58.3431357  85.6040890  14.8397814
  58.9703396  85.2217967  15.4535338  57.4859276  85.3855092  15.2053506
  68.7425465  96.0103865  16.4451549  69.2865369  96.6233823  15.9506504
  68.1612310  96.5683443  16.9618562  58.6491147  85.4873315   6.7543717
  57.9277732  86.1009283   6.6151190  59.4384402  86.0231080   6.6760363
  61.4517460  82.8227742  13.0284369  61.9751862  83.0690038  13.7910678
  61.2329793  83.6547777  12.6087506  62.6570005  83.7641437  10.7134039
  62.3166826  82.9649250  11.1154719  61.9509012  84.0643148  10.1410873
  63.3086477  80.8490749   9.1661362  64.1312546  80.3751228   9.0440253
  63.5524541  81.6281233   9.6660049  60.8325056  87.5409870   6.9753341
  60.6869637  87.8550173   7.8677622  60.3550259  88.1594770   6.4224240
  62.6921439  84.5312418   7.0234231  62.6783007  83.6353511   6.6866528
  63.4093867  84.5383082   7.6572517  64.5447569  84.9649758   9.0687358
  64.2865347  85.8866829   9.0671688  64.0132610  84.5680193   9.7587822
  55.3070718  90.0815214   9.9141002  54.7624186  90.8575022  10.0461276
  56.1850068  90.4286019   9.7560124  64.9649525  81.0981709   5.4288521
  64.9871222  81.1621042   4.4740500  65.3817584  80.2586217   5.6229027
  56.0936740  89.2085111  12.8071159  55.3518476  89.3567746  13.3935789
  55.7729484  89.4693376  11.9437908  61.5799414  84.9258796  16.5011733
  61.6287570  85.8020919  16.1189503  62.1221928  84.3836189  15.9283376
  72.0654260  95.4699919  15.7812870  71.2749804  95.4524058  15.2417370
  71.8287614  96.0088213  16.5361907  72.1852135  92.3192385  13.0945599
  72.2350140  92.1542393  14.0361122  72.0766058  91.4519644  12.7043480
  69.4755897  88.3023313  14.4104906  70.3765760  88.1629778  14.1188903
  69.5503872  88.4677768  15.3503083  63.8098703  85.6790168  13.2558092
  62.9402012  85.9723734  12.9840680  64.0458183  86.2630613  13.9765356
  71.9357520  89.8621941  11.8067678  72.4111642  90.0549588  10.9986530
  71.0123085  89.9181127  11.5611062  66.5137736  81.8969785  10.7723512
  67.0319680  82.6330812  10.4470001  66.1592869  82.2033778  11.6070271
  66.7650331  78.3170068   6.2924409  67.0452084  77.6493257   6.9184835
  67.5500938  78.5099163   5.7799073  70.6359189  86.7387702  10.0395984
  71.5876612  86.8385799  10.0608208  70.4662639  85.9465970  10.5494068
  68.6573568  83.8243285  10.2255385  68.0623501  84.1048297   9.5301874
  68.3723265  84.3137186  10.9972126  73.2641755  86.7504865   9.1996567
  72.7480804  85.9663321   9.0126496  74.1481704  86.4223581   9.3643086
  70.9252482  80.4945880   5.1592380  70.7277303  80.1860968   6.0435711
  71.5352188  81.2207519   5.2890309  64.8369290  92.8807620  16.6566145
  65.7572300  93.0586219  16.8506191  64.8018873  91.9363666  16.5045844
  54.0551455  88.0746214   5.5819419  53.7354239  87.2211522   5.2893793
  53.5084883  88.2894792   6.3377387  57.8331363  90.7908655   9.2988926
  58.0517372  91.7225763   9.3176960  58.2457137  90.4316629  10.0843730
  66.6826129  80.3754787   2.9088911  67.2357167  80.7950241   3.5678934
  66.9196215  79.4490535   2.9511867  62.7059228  86.3641861  18.6891675
  62.6055955  87.3136218  18.6203766  62.4880770  86.0360100  17.8167745
  53.9239715  91.6949126   7.5512541  53.2303187  91.2803078   7.0382495
  54.6712706  91.7369662   6.9545960  62.5690498  89.7939000  17.5056736
  62.0857580  90.5939360  17.7120625  62.6551437  89.8046944  16.5524180
  55.8376458  91.6267379   5.4278556  55.8147146  91.7255067   4.4760439
  56.1477094  92.4732530   5.7495722  58.4963836  93.6843534   9.5425170
  59.4507089  93.6527477   9.4755102  58.2976359  93.2234158  10.3575396
  59.0863218  92.2544650  12.1095968  59.9056107  92.7488729  12.1330805
  59.3600025  91.3376619  12.0813535  66.8651524  93.6563632  18.3080305
  67.7342684  93.8304284  17.9466940  66.3858276  94.4758049  18.1856035
  66.6753862  77.4465605   2.8157998  65.9086258  76.8924092   2.9614680
  67.0864567  77.5187474   3.6772150  71.2377124  97.1431118  17.8993151
  70.8444069  96.5897317  18.5740795  72.0543264  97.4541696  18.2899668
  73.5452983 101.6933778  18.6891675  73.4449709 102.6428135  18.6203766
  73.3274525 101.3652017  17.8167745  69.5189377  99.0642319  16.9063179
  70.3820839  98.7079124  17.1166504  68.9454788  98.7256214  17.5938583
  47.0637958  42.3582152   3.1696856  47.6077862  42.9712110   2.6751811
  46.4824803  42.9161731   3.6863869  50.3866752  41.8178206   2.5058177
  49.5962296  41.8002345   1.9662676  50.1500107  42.3566500   3.2607214
  45.1864016  40.0041919   5.0325612  46.0555176  40.1782571   4.6712247
  44.7070768  40.8236336   4.9101341  56.8456492  51.7130545  -5.5629113
  57.4834902  51.5937292  -6.2665773  56.7277335  52.6611389  -5.5041161
  54.1365981  52.8192825   0.3318617  54.1254622  52.4245623  -0.5400879
  54.2986621  52.0858897   0.9252388  50.8573243  55.6029937  -0.7202199
  50.5663109  56.5075567  -0.8355533  51.4930227  55.6446464  -0.0058129
  51.7829449  52.9806785  -4.1300839  52.3793022  52.7562807  -4.8443876
  51.8404421  52.2391531  -3.5275391  61.8006188  49.3757232  -7.5842927
  62.5331360  48.8056449  -7.3505097  61.0445543  48.9878832  -7.1436421
  59.3231608  43.0878806  -3.1248318  58.9914933  43.9574217  -3.3487103
  58.7277221  42.7715090  -2.4454288  55.8163128  55.2891352  -3.7252405
  55.5163851  56.1916391  -3.8336598  55.4714187  55.0223535  -2.8731252
  50.7983907  62.0535672 -10.7581438  50.7207937  63.0043497 -10.6792957
  50.1945551  61.7081545 -10.1006511  53.2901137  49.2263538   1.8979929
  52.5134471  49.7857458   1.8882794  53.9291700  49.7120321   2.4194799
  61.0821918  46.0090331  -4.2677094  60.4396298  46.3022864  -4.9137299
  60.5776846  45.8943251  -3.4623897  51.5447510  52.0348991   1.4597896
  52.2862194  52.5734035   1.1832720  50.8384495  52.6615280   1.6169448
  57.0202849  54.1778132   0.0570058  57.4286205  53.7360542  -0.6875310
  56.2980111  53.6030759   0.3104251  53.3733919  49.1150738  -2.5696385
  54.2195114  49.5390152  -2.4261736  53.3132557  48.4584363  -1.8757822
  57.3431664  54.7379322  -6.1877653  56.7140526  54.9025036  -6.8901585
  56.9557326  55.1520932  -5.4166689  61.2220896  55.6733760  -8.8333290
  60.5371934  56.0532661  -9.3836256  61.3064745  56.2829087  -8.1001342
  56.5233365  46.7755107  -0.9115212  56.2794296  47.5297167  -1.4480936
  56.7993295  47.1540454  -0.0767965  58.4771827  53.3193719  -2.2337946
  58.6888723  53.9625479  -2.9103565  58.4301576  52.4856036  -2.7016016
  50.2808873  49.1888639   2.2613206  49.6507534  49.8704920   2.4948603
  50.1744961  49.0771721   1.3166345  59.5917655  56.1965675  -4.0615589
  60.4135099  55.7945862  -4.3432907  59.5880058  56.0933909  -3.1099473
  53.3574259  55.7449718  -1.9054878  53.4218691  56.2070125  -1.0696706
  52.6485183  55.1147083  -1.7772568  67.6823648  52.5404423  -7.7130617
  66.9287357  51.9711821  -7.8686613  67.8171190  52.5067088  -6.7659983
  49.5589616  43.4909405   4.6238457  49.1656562  42.9375604   5.2986102
  50.3755756  43.8019984   5.0144975  52.4757577  44.9067284   2.2158714
  53.2167290  45.5074437   2.1363176  52.7075500  44.1644922   1.6576756
  47.6198915  50.0923652   0.4936944  47.5052430  49.1908909   0.7944043
  46.7643433  50.3387348   0.1421760  54.6990753  58.0341392   2.0924444
  54.2554607  57.2477770   1.7745349  55.3607966  58.2220542   1.4268335
  49.4577874  59.5637193  -3.3814877  50.0085299  59.4354257  -4.1537883
  48.6189350  59.8632082  -3.7319984  56.7971991  58.3144192   0.1205845
  56.7790466  59.1353073  -0.3713885  57.7191911  58.1898267   0.3455987
  53.2545045  55.8288321   0.9629354  53.7873382  55.0676609   0.7328662
  52.7259126  55.5361973   1.7053508  59.5990604  53.1523334  -6.4084788
  58.9414278  53.8422596  -6.3204659  60.4031003  53.5419766  -6.0650801
  59.1757859  56.4873708 -10.2301703  58.7220186  55.6464618 -10.1736513
  58.5451825  57.1235107  -9.8926923  57.6190798  58.3250205  -9.2951885
  57.9113772  58.8855262 -10.0139520  58.1289418  58.6178766  -8.5398726
  52.5824423  59.1030556  -8.2058432  52.5400602  59.3291402  -9.1349900
  53.4987122  58.8693931  -8.0572631  56.0290057  49.5714624  -1.3077803
  56.3839445  49.7986097  -0.4483337  56.6762188  49.9033000  -1.9300548
  61.7857173  54.7609587  -5.5917202  62.2193680  54.6684876  -4.7434148
  62.4988754  54.7367087  -6.2297186  55.5185068  58.3611681  -4.0584102
  55.5722091  58.9302617  -3.2906386  54.6499850  58.5313566  -4.4230065
  62.6472723  54.8033287  -3.0584317  62.8408613  55.7079098  -2.8125042
  62.5473341  54.3440706  -2.2245732  54.3009034  44.6891178  -0.5593990
  53.6536949  45.3881127  -0.6529513  55.0710049  45.1227322  -0.1917741
  57.7087832  54.9540030   2.5156564  57.5573338  54.7250582   1.5986647
  57.6992511  55.9110631   2.5287909  54.4773168  52.5271943  -2.4997170
  55.4065228  52.6783102  -2.6728203  54.0564198  52.6155964  -3.3548523
  53.2761500  56.5522607  -4.7298632  53.1372586  56.1841392  -3.8572694
  52.4876096  57.0670247  -4.9014674  54.8266715  55.9304210  -7.3409795
  54.4916548  55.8904980  -6.4452145  54.3270661  55.2648926  -7.8139384
  48.8010959  51.3371840  -1.8157213  48.6630757  50.6052079  -1.2145674
  49.7115882  51.2480740  -2.0973026  51.4293260  51.0491799  -2.3273534
  52.1392878  50.4084991  -2.3686915  51.3862568  51.3004694  -1.4047353
  59.4180038  57.9859153   0.5933046  59.3592584  57.3018373  -0.0736371
  59.8199557  58.7278143   0.1413671  50.1422194  48.0357017  -0.5077894
  49.6059551  47.5847756   0.1443702  49.5538902  48.1702926  -1.2507430
  48.4370737  64.8021066  -6.6133236  48.6767335  65.4339591  -5.9354217
  47.5939934  64.4509106  -6.3267876  59.4197446  55.9498736  -1.1752975
  58.5324224  55.6124658  -1.0526576  59.9895997  55.2181768  -0.9384209
  52.9498599  60.6100189  -4.2091732  52.8768770  61.4155160  -3.6972427
  52.5075992  60.8092155  -5.0343710  63.9014786  51.3606954  -6.4136413
  63.8904662  52.2431669  -6.7842480  63.0332166  51.0078505  -6.6081876
  55.4097283  60.5087023  -2.0533573  56.1225255  61.1434488  -2.1257671
  54.9187311  60.6050889  -2.8693571  50.4609196  58.2581466  -1.2328002
  51.1618656  58.8917949  -1.0798608  49.9904311  58.5996198  -1.9932363
  58.2610482  50.8126074  -3.4075452  57.6081932  51.0601981  -4.0622999
  58.6390862  49.9990212  -3.7412974  55.2217656  60.8485767  -9.3047281
  55.4040050  60.0307423  -8.8419529  56.0450642  61.0653459  -9.7422391
  54.3098055  51.5545885   3.0790585  53.6338692  51.4540014   3.7492961
  55.1325689  51.3985099   3.5426583  46.0576914  57.7917821  -4.2996899
  46.6430351  57.0461509  -4.1668995  45.8601753  58.1021778  -3.4160236
  53.0520838  62.8612812  -2.6851799  53.6039146  63.0244434  -1.9202713
  53.3927031  63.4517250  -3.3571774  47.5037604  47.2811095   1.5643120
  48.1309642  46.8988172   2.1780645  46.6465523  47.0625297   1.9298813
  57.9031712  57.6874070   3.1696856  58.4471616  58.3004028   2.6751811
  57.3218557  58.2453648   3.6863869  56.1889225  60.8094788  -5.6988117
  56.0640365  60.0084528  -6.2077171  56.8468316  61.3040981  -6.1874147
  58.2524134  58.6103808  -4.0708566  57.3054469  58.4909159  -4.1430240
  58.6006907  57.7226306  -3.9882305  50.6123707  44.4997947  -0.2470325
  51.1358109  44.7460243   0.5155985  50.3936040  45.3317982  -0.6667187
  55.2570567  58.4056524  -7.8704214  55.1095529  57.4773232  -7.6896644
  56.0824060  58.4276615  -8.3547139  58.8604689  59.2285083  -6.7839341
  59.7851236  59.0227944  -6.9214890  58.6919992  58.9801484  -5.8750000
  58.6500005  59.7470750 -11.4277250  58.8236882  59.1817173 -12.1803398
  59.1428896  60.5471645 -11.6097760  64.5039396  52.5107173  -9.8086950
  64.9470542  51.7614498 -10.2067827  63.6265906  52.5017310 -10.1913218
  45.2542987  50.8855316  -0.4683534  44.5124723  51.0337951   0.1181096
  44.9335731  51.1463581  -1.3316785  53.1986649  60.4271294  -0.6703144
  53.5073776  60.1820441   0.2019555  53.9962131  60.6317932  -1.1584274
  53.2207261  62.5809204  -8.4397768  52.7812252  62.0885582  -7.7464911
  53.9715378  62.0382171  -8.6805693  50.6681133  58.1247213  -6.3675466
  50.0461143  57.4617918  -6.6673238  51.3386000  58.1508344  -7.0501818
  50.7405661  46.6029001   3.2257040  50.7893816  47.4791123   2.8434810
  51.2828175  46.0606394   2.6528683  61.2260507  57.1470124   2.5058177
  60.4356050  57.1294263   1.9662676  60.9893861  57.6858418   3.2607214
  61.3458382  53.9962590  -0.1809094  61.3956387  53.8312598   0.7606428
  61.2372305  53.1289849  -0.5711214  58.6362144  49.9793518   1.1350212
  59.5372007  49.8399983   0.8434210  58.7110119  50.1447973   2.0748390
  52.9704949  47.3560373  -0.0196601  52.1008259  47.6493939  -0.2914013
  53.2064430  47.9400818   0.7010662  62.8476578  56.4159532   0.0632927
  62.5561387  56.7789512   0.8996388  62.2348710  55.7026540  -0.1153741
  64.0472261  53.9812412  -7.4164503  64.8819152  54.4202216  -7.2526942
  64.1831390  53.5051065  -8.2356257  61.0963767  51.5392146  -1.4687015
  61.5717888  51.7319793  -2.2768164  60.1729332  51.5951332  -1.7143631
  59.7965436  48.4157906  -3.2358709  60.7482859  48.5156004  -3.2146485
  59.6268886  47.6236175  -2.7260625  57.8179815  45.5013490  -3.0499308
  57.2229747  45.7818502  -3.7452820  57.5329512  45.9907391  -2.2782567
  62.2753514  51.6364026  -4.1216410  62.2429834  50.6980027  -3.9356726
  62.8854137  51.7148063  -4.8550585  62.4248002  48.4275070  -4.0758126
  61.9087051  47.6433526  -4.2628198  63.3087951  48.0993786  -3.9111607
  68.0930063  52.6980033  -4.9810373  68.8233452  52.4365321  -4.4202670
  67.4837009  51.9608755  -4.9408305  66.1745360  50.8387896  -4.3835922
  65.4478524  50.7043861  -4.9919430  65.7592647  51.1464724  -3.5779204
  53.9975537  54.5577825   3.3811451  54.9178546  54.7356424   3.5751498
  53.9625120  53.6133871   3.2291151  51.8665475  48.0412066   5.4136981
  51.7662202  48.9906423   5.3449073  51.6487017  47.7130305   4.5413052
  51.7296745  51.4709205   4.2302043  51.2463827  52.2709565   4.4365932
  51.8157684  51.4817149   3.2769487  47.6570082  55.3613739  -3.7329523
  48.6113336  55.3297682  -3.7999592  47.4582606  54.9004363  -2.9179297
  48.2469464  53.9314855  -1.1658725  49.0662353  54.4258934  -1.1423888
  48.5206272  53.0146823  -1.1941158  46.0120311  60.9033359  -6.7159325
  45.8774779  60.1433760  -7.2821327  45.5952373  61.6274259  -7.1830536
  66.0994228  50.3665949  -8.2559069  65.5393786  50.4359138  -7.4827507
  65.4937732  50.1906933  -8.9759573  49.1689437  61.8002676  -6.5040883
  49.0521821  62.7448108  -6.6062192  48.3481883  61.4976237  -6.1155083
  56.0257771  55.3333837   5.0325612  56.8948931  55.5074489   4.6712247
  55.5464522  56.1528253   4.9101341  50.1943951  62.4530938  -3.2884954
  51.0971198  62.4854548  -2.9718459  49.9681321  61.5231389  -3.2738618
  51.9497553  61.2061924  -6.6274876  50.9993184  61.2063786  -6.7410503
  52.2530039  60.4594659  -7.1438841  47.8401870  45.4120606   3.6308486
  48.7033331  45.0557411   3.8411810  47.2667280  45.0734501   4.3183890
  64.4939953  66.9949891  -5.6267588  64.1558464  66.8790955  -6.5147054
  65.3629721  66.5941056  -5.6466582  64.9759736  68.1484742   0.3318617
  64.9648377  67.7537541  -0.5400879  65.1380375  67.4150815   0.9252388
  61.6966997  70.9321854  -0.7202199  61.4056863  71.8367485  -0.8355533
  62.3323981  70.9738382  -0.0058129  62.6223204  68.3098703  -4.1300839
  63.2186776  68.0854725  -4.8443876  62.6798175  67.5683448  -3.5275391
  70.1625363  58.4170724  -3.1248318  69.8308687  59.2866135  -3.3487103
  69.5670976  58.1007008  -2.4454288  60.1069364  67.0697067  -7.6915701
  59.1819860  66.9373281  -7.4838009  60.3553777  67.8491286  -7.1945758
  70.0554026  63.1365810  -6.0454968  69.1470903  63.0681218  -6.3396207
  70.0041622  63.6137755  -5.2173142  57.4678175  66.7130340  -6.8571912
  57.5970556  66.9664819  -5.9432500  56.7875626  67.3058048  -7.1767257
  64.1294892  64.5555456   1.8979929  63.3528226  65.1149376   1.8882794
  64.7685455  65.0412238   2.4194799  71.9215672  61.3382248  -4.2677094
  71.2790053  61.6314781  -4.9137299  71.4170601  61.2235169  -3.4623897
  62.3841264  67.3640909   1.4597896  63.1255948  67.9025953   1.1832720
  61.6778249  67.9907198   1.6169448  67.8596604  69.5070049   0.0570058
  68.2679960  69.0652460  -0.6875310  67.1373865  68.9322677   0.3104251
  64.2127674  64.4442656  -2.5696385  65.0588869  64.8682070  -2.4261736
  64.1526311  63.7876280  -1.8757822  67.3627119  62.1047024  -0.9115212
  67.1188051  62.8589085  -1.4480936  67.6387050  62.4832372  -0.0767965
  69.3165582  68.6485637  -2.2337946  69.5282477  69.2917397  -2.9103565
  69.2695330  67.8147953  -2.7016016  66.9191811  61.2603457  -5.3301374
  66.0576290  61.5584711  -5.0384636  66.9454245  61.4773856  -6.2620341
  61.1202628  64.5180557   2.2613206  60.4901288  65.1996838   2.4948603
  61.0138716  64.4063639   1.3166345  56.4147600  64.1852353  -6.8120870
  55.6246654  64.4409882  -7.2880759  56.9058848  65.0000691  -6.7068829
  64.1968013  71.0741636  -1.9054878  64.2612446  71.5362043  -1.0696706
  63.4878937  70.4439000  -1.7772568  54.6985303  64.4382844  -4.3805879
  54.9493342  65.3229853  -4.1148303  55.2344852  64.2587445  -5.1530787
  60.3983370  58.8201323   4.6238457  60.0050316  58.2667521   5.2986102
  61.2149511  59.1311901   5.0144975  63.3151331  60.2359202   2.2158714
  64.0561045  60.8366355   2.1363176  63.5469254  59.4936840   1.6576756
  58.4592669  65.4215569   0.4936944  58.3446185  64.5200826   0.7944043
  57.6037187  65.6679266   0.1421760  65.5384507  73.3633310   2.0924444
  65.0948361  72.5769688   1.7745349  66.2001721  73.5512460   1.4268335
  67.6365745  73.6436109   0.1205845  67.6184221  74.4644991  -0.3713885
  68.5585665  73.5190185   0.3455987  64.0938799  71.1580239   0.9629354
  64.6267136  70.3968527   0.7328662  63.5652881  70.8653891   1.7053508
  67.2608494  56.2640305  -3.5077004  66.9172764  57.1541947  -3.5837894
  67.6287457  56.0741963  -4.3707419  66.3405035  58.6344960  -5.5427771
  65.8369830  58.5975095  -6.3559966  66.6335642  59.5437703  -5.4831114
  62.5847921  58.7183690  -6.5361589  63.4500917  58.5226498  -6.8955700
  62.6525430  58.4894042  -5.6092233  60.1910240  60.9485898  -9.1645223
  60.7653992  60.7261079  -9.8972030  60.7781222  61.0174592  -8.4116621
  62.4932907  57.8227147 -10.4370153  61.8397320  57.5076164 -11.0613538
  62.4513382  57.2002887  -9.7110330  65.7270648  64.3109080  -6.1122506
  64.8093209  64.5324027  -6.2700817  66.1430791  64.3855391  -6.9710798
  69.0596160  55.5233864  -8.4059267  69.3655037  54.6631228  -8.6933352
  69.7848765  56.1151484  -8.6060273  55.3520516  65.9264551 -10.0177669
  55.1544916  65.3333911 -10.7426602  54.7967180  65.6216761  -9.3001730
  66.8683811  64.9006541  -1.3077803  67.2233199  65.1278015  -0.4483337
  67.5155943  65.2324918  -1.9300548  60.7623674  62.0083072  -4.5231462
  61.4023054  61.8671832  -5.2208499  59.9301205  61.7217586  -4.8992860
  57.7652291  61.9783397  -9.7458475  58.0259108  62.8928731  -9.8549315
  58.5869463  61.5107840  -9.5961862  59.2377216  63.3921155  -2.5759651
  59.9100270  63.1838517  -3.2247002  58.4107003  63.1943241  -3.0154418
  65.1402788  60.0183096  -0.5593990  64.4930703  60.7173045  -0.6529513
  65.9103804  60.4519239  -0.1917741  68.5481586  70.2831948   2.5156564
  68.3967093  70.0542499   1.5986647  68.5386266  71.2402549   2.5287909
  65.3166923  67.8563860  -2.4997170  66.2458983  68.0075020  -2.6728203
  64.8957953  67.9447881  -3.3548523  59.6404713  66.6663758  -1.8157213
  59.5024511  65.9343996  -1.2145674  60.5509637  66.5772658  -2.0973026
  62.2687014  66.3783717  -2.3273534  62.9786633  65.7376909  -2.3686915
  62.2256322  66.6296612  -1.4047353  60.9815948  63.3648935  -0.5077894
  60.4453305  62.9139673   0.1443702  60.3932657  63.4994844  -1.2507430
  70.2591200  71.2790654  -1.1752975  69.3717979  70.9416576  -1.0526576
  70.8289751  70.5473685  -0.9384209  51.9120347  67.6114746  -7.8509923
  52.5991387  67.2976476  -8.4388908  51.7568476  68.5156111  -8.1242672
  56.7155069  62.5004942  -3.4224900  56.6313258  61.8930612  -4.1574490
  55.8937776  62.9913961  -3.4215403  66.8878783  60.9858506  -8.0554705
  67.3847483  60.2328468  -8.3753634  66.1165765  61.0222823  -8.6211495
  63.4713752  63.1275889  -8.3283020  63.1011540  62.5746929  -7.6402114
  63.9672844  62.5234022  -8.8808020  61.3002951  73.5873384  -1.2328002
  62.0012410  74.2209867  -1.0798608  60.8298066  73.9288116  -1.9932363
  69.3297778  57.9528099  -5.9075346  68.4160858  58.1832326  -5.7393139
  69.7590879  58.0366544  -5.0561313  69.1004237  66.1417991  -3.4075452
  68.4475687  66.3893899  -4.0622999  69.4784616  65.3282130  -3.7412974
  65.1491810  66.8837803   3.0790585  64.4732447  66.7831932   3.7492961
  65.9719443  66.7277016   3.5426583  56.8970669  73.1209739  -4.2996899
  57.4824105  72.3753427  -4.1668995  56.6995507  73.4313696  -3.4160236
  51.4888323  65.6915339  -5.5792456  51.5272423  65.1578930  -4.7855338
  50.9828616  65.1650545  -6.1981479  58.8679086  60.5379880  -2.0829914
  58.9320412  61.3994711  -2.4952516  58.8046206  59.9253881  -2.8157555
  58.3431358  62.6103012   1.5643120  58.9703397  62.2280090   2.1780645
  57.4859277  62.3917214   1.9298813  68.7425467  73.0165987   3.1696856
  69.2865371  73.6295946   2.6751811  68.1612312  73.5745566   3.6863869
  58.6491148  62.4935438  -6.5210976  57.9277734  63.1071406  -6.6603503
  59.4384404  63.0293203  -6.5994330  61.4517461  59.8289864  -0.2470325
  61.9751863  60.0752161   0.5155985  61.2329795  60.6609899  -0.6667187
  62.6570007  60.7703560  -2.5620654  62.3166827  59.9711373  -2.1599974
  61.9509013  61.0705270  -3.1343821  63.3086478  57.8552872  -4.1093331
  64.1312548  57.3813350  -4.2314441  63.5524542  58.6343356  -3.6094645
  60.8325057  64.5471993  -6.3001352  60.6869638  64.8612296  -5.4077071
  60.3550261  65.1656893  -6.8530454  62.6921440  61.5374541  -6.2520463
  62.6783009  60.6415634  -6.5888165  63.4093868  61.5445204  -5.6182177
  64.5447571  61.9711881  -4.2067335  64.2865349  62.8928952  -4.2083005
  64.0132611  61.5742315  -3.5166871  55.3070719  67.0877337  -3.3613691
  54.7624187  67.8637145  -3.2293417  56.1850069  67.4348142  -3.5194570
  64.9649526  58.1043831  -7.8466173  64.9871223  58.1683164  -8.8014193
  65.3817585  57.2648340  -7.6525667  56.0936741  66.2147233  -0.4683534
  55.3518477  66.3629869   0.1181096  55.7729485  66.4755499  -1.3316785
  61.5799415  61.9320918   3.2257040  61.6287571  62.8083041   2.8434810
  62.1221930  61.3898311   2.6528683  72.0654261  72.4762042   2.5058177
  71.2749805  72.4586180   1.9662676  71.8287616  73.0150335   3.2607214
  72.1852136  69.3254508  -0.1809094  72.2350141  69.1604515   0.7606428
  72.0766060  68.4581767  -0.5711214  69.4755899  65.3085436   1.1350212
  70.3765761  65.1691901   0.8434210  69.5503873  65.4739891   2.0748390
  63.8098704  62.6852291  -0.0196601  62.9402013  62.9785857  -0.2914013
  64.0458184  63.2692736   0.7010662  71.9357521  66.8684064  -1.4687015
  72.4111643  67.0611710  -2.2768164  71.0123087  66.9243250  -1.7143631
  66.5137738  58.9031908  -2.5031181  67.0319682  59.6392935  -2.8284692
  66.1592870  59.2095901  -1.6684422  66.7650332  55.3232190  -6.9830284
  67.0452086  54.6555379  -6.3569858  67.5500939  55.5161286  -7.4955621
  70.6359190  63.7449824  -3.2358709  71.5876613  63.8447922  -3.2146485
  70.4662641  62.9528093  -2.7260625  68.6573570  60.8305407  -3.0499308
  68.0623502  61.1110420  -3.7452820  68.3723266  61.3199308  -2.2782567
  73.2641757  63.7566987  -4.0758126  72.7480805  62.9725444  -4.2628198
  74.1481705  63.4285704  -3.9111607  70.9252483  57.5008003  -8.1162314
  70.7277305  57.1923091  -7.2318982  71.5352189  58.2269642  -7.9864384
  64.8369291  69.8869743   3.3811451  65.7572301  70.0648342   3.5751498
  64.8018874  68.9425788   3.2291151  54.0551456  65.0808337  -7.6935274
  53.7354241  64.2273645  -7.9860900  53.5084885  65.2956915  -6.9377307
  57.8331364  67.7970778  -3.9765768  58.0517374  68.7287885  -3.9577734
  58.2457138  67.4378752  -3.1910964  66.6826130  57.3816910 -10.3665782
  67.2357169  57.8012363  -9.7075759  66.9196216  56.4552658 -10.3242826
  62.7059229  63.3703983   5.4136981  62.6055956  64.3198340   5.3449073
  62.4880771  63.0422222   4.5413052  53.9239716  68.7011248  -5.7242152
  53.2303188  68.2865201  -6.2372198  54.6712707  68.7431785  -6.3208734
  62.5690499  66.8001122   4.2302043  62.0857581  67.6001482   4.4365932
  62.6551438  66.8109067   3.2769487  55.8376459  68.6329502  -7.8476138
  55.8147147  68.7317189  -8.7994254  56.1477095  69.4794653  -7.5258971
  58.4963837  70.6905657  -3.7329523  59.4507090  70.6589599  -3.7999592
  58.2976360  70.2296281  -2.9179297  59.0863219  69.2606773  -1.1658725
  59.9056108  69.7550852  -1.1423888  59.3600027  68.3438741  -1.1941158
  54.3398133  63.5944907  -0.4666528  54.9856997  63.0843861   0.0220697
  54.1315284  64.3313588   0.1076897  66.8651525  70.6625754   5.0325612
  67.7342685  70.8366407   4.6712247  66.3858277  71.4820171   4.9101341
  66.6753863  54.4527728 -10.4596695  65.9086259  53.8986215 -10.3140013
  67.0864568  54.5249597  -9.5982544  58.6795624  60.7412524   3.6308486
  59.5427086  60.3849329   3.8411810  58.1061035  60.4026419   4.3183890
  71.2377125  74.1493241   4.6238457  70.8444071  73.5959439   5.2986102
  72.0543265  74.4603819   5.0144975  73.5452984  78.6995901   5.4136981
  73.4449711  79.6490258   5.3449073  73.3274526  78.3714140   4.5413052
  69.5189379  76.0704442   3.6308486  70.3820840  75.7141246   3.8411810
  68.9454789  75.7318336   4.3183890  68.7425468  50.0228110 -10.1057838
  69.2865372  50.6358068 -10.6002883  68.1612313  50.5807688  -9.5890825
  72.0654262  49.4824164 -10.7696516  71.2749806  49.4648303 -11.3092017
  71.8287617  50.0212458 -10.0147480  66.8651527  47.6687877  -8.2429081
  67.7342686  47.8428529  -8.6042446  66.3858278  48.4882294  -8.3653352
  71.2377126  51.1555363  -8.6516236  70.8444072  50.6021562  -7.9768592
  72.0543267  51.4665942  -8.2609718  73.5452985  55.7058024  -7.8617712
  73.4449712  56.6552381  -7.9305621  73.3274527  55.3776263  -8.7341642
  69.5189380  53.0766564  -9.6446208  70.3820841  52.7203369  -9.4342883
  68.9454791  52.7380459  -8.9570803   2.6461116  98.5280180  45.3888153
   1.8924825  97.9587578  45.2332158   2.7808658  98.4942844  46.3358788
   3.0567531  98.6855790  48.1208397   3.7870920  98.4241078  48.6816101
   2.4474477  97.9484512  48.1610465   1.1382829  96.8263652  48.7182849
   0.4115992  96.6919617  48.1099340   0.7230115  97.1340481  49.5239567
   1.0631696  96.3541705  44.8459701   0.5031254  96.4234895  45.6191264
   0.4575200  96.1782690  44.1259198   4.0233628 101.5109621  44.6959504
   4.3292505 100.6506984  44.4085419   4.7486233 102.1027241  44.4958498
   1.7287800 101.3107947  46.1188486   2.0089554 100.6431136  46.7448912
   2.5138407 101.5037042  45.6063150   1.6391331 100.4403485  42.6422075
   0.8723727  99.8861971  42.7878757   2.0502036 100.5125353  43.5036227
   2.6461118  75.5342302  32.1133460   1.8924826  74.9649700  31.9577464
   2.7808659  75.5004967  33.0604094   3.0567533  75.6917912  34.8453704
   3.7870921  75.4303200  35.4061407   2.4474478  74.9546634  34.8855772
   1.1382830  73.8325775  35.4428155   0.4115993  73.6981740  34.8344647
   0.7230117  74.1402603  36.2484873   1.0631697  73.3603828  31.5705008
   0.5031255  73.4297017  32.3436570   0.4575201  73.1844812  30.8504504
   2.6487716  90.0360342  34.2634964   3.2866126  89.9167089  33.5598304
   2.5308559  90.9841186  34.3222916   2.2028984  87.7611796  31.3388172
   2.9892074  87.3431219  30.9878589   2.4667689  88.6657888  31.5069820
   7.6037412  87.6987029  32.2421150   8.3362583  87.1286246  32.4758980
   6.8476767  87.3108629  32.6827656   5.1262832  81.4108603  36.7015759
   4.7946157  82.2804014  36.4776974   4.5308445  81.0944887  37.3809789
   1.6194351  93.6121149  36.1011672   1.3195074  94.5146188  35.9927479
   1.2745411  93.3453332  36.9532825   5.0191495  86.1303689  33.7809109
   4.1108373  86.0619098  33.4867870   4.9679091  86.6075634  34.6090935
   6.8853142  84.3320127  35.5586983   6.2427522  84.6252661  34.9126778
   6.3808070  84.2173048  36.3640180   4.5393305  88.0783301  26.2472842
   5.4511161  88.3110687  26.0720540   4.0302952  88.6620345  25.6847921
   2.8234073  92.5007929  39.8834135   3.2317429  92.0590339  39.1388767
   2.1011334  91.9260556  40.1368328   3.1462888  93.0609119  33.6386424
   2.5171750  93.2254833  32.9362492   2.7588550  93.4750729  34.4097388
   7.0252119  93.9963557  30.9930787   6.3403158  94.3762458  30.4427821
   7.1095969  94.6058884  31.7262735   2.3264588  85.0984904  38.9148865
   2.0825520  85.8526964  38.3783141   2.6024519  85.4770251  39.7496112
   4.2803051  91.6423516  37.5926131   4.4919946  92.2855276  36.9160512
   4.2332799  90.8085833  37.1248061   1.8829280  84.2541337  34.4962703
   1.0213759  84.5522590  34.7879441   1.9091715  84.4711736  33.5643736
   5.3948879  94.5195471  35.7648488   6.2166323  94.1175659  35.4831170
   5.3911282  94.4163706  36.7164604  13.4854872  90.8634220  32.1133460
  12.7318580  90.2941618  31.9577464  13.6202413  90.8296884  33.0604094
   2.6003215  96.6373989  39.9469922   2.5821690  97.4582870  39.4550192
   3.5223135  96.5128064  40.1720064   2.2245964  79.2578184  36.3187073
   1.8810233  80.1479826  36.2426183   2.5924926  79.0679842  35.4556658
   1.3042504  81.6282839  34.2836306   0.8007300  81.5912974  33.4704111
   1.5973111  82.5375582  34.3432963   7.1630521  92.0019150  26.7612681
   6.3859963  91.6630309  26.3167843   7.8422002  92.0071773  26.0867646
   1.9782550  87.1213887  26.6519289   1.6732685  87.4360036  27.5029432
   2.9312992  87.1995307  26.6946622   5.4021827  91.4753131  33.4179289
   4.7445502  92.1652392  33.5059418   6.2062227  91.8649563  33.7613276
   4.2127286  89.8297504  31.4683231   4.7259168  90.4627496  31.9704941
   4.8628510  89.2298699  31.1026591   1.4743165  88.7038375  28.8444252
   2.2214984  89.2159772  28.5351374   1.7434754  88.3822428  29.7048645
   4.9789082  94.8103505  29.5962374   4.5251410  93.9694415  29.6527564
   4.3483049  95.4464904  29.9337154   3.9222002  85.7395491  30.8263041
   3.1844759  85.2272877  31.1573284   4.1748776  85.2995873  30.0146318
   4.0233629  78.5171743  31.4204810   4.3292506  77.6569107  31.1330725
   4.7486234  79.1089363  31.2203804   1.8321281  87.8944421  38.5186274
   2.1870668  88.1215894  39.3780740   2.4793412  88.2262797  37.8963529
   7.5619018  91.0162856  29.2235603   7.4236916  91.2064452  28.2956792
   7.2055236  91.7782239  29.6803654   7.5888397  93.0839383  34.2346875
   8.0224904  92.9914673  35.0829929   8.3019978  93.0596884  33.5966891
   1.3216292  96.6841478  35.7679975   1.3753314  97.2532414  36.5357691
   0.4531074  96.8543363  35.4034012   8.4503947  93.1263084  36.7679760
   8.6439837  94.0308895  37.0139035   8.3504565  92.6670503  37.6018345
   3.5119055  93.2769827  42.3420641   3.3604562  93.0480379  41.4250724
   3.5023735  94.2340428  42.3551986   5.2211262  96.3088949  40.4197123
   5.1623808  95.6248170  39.7527706   5.6230781  97.0507939  39.9677749
   5.2228669  94.2728533  38.6511102   4.3355448  93.9354455  38.7737501
   5.7927220  93.5411565  38.8879868   1.8516253  83.9796385  31.7709372
   2.3484952  83.2266348  31.4510443   1.0803234  84.0160702  31.2052582
   9.7046010  89.6836751  33.4127664   9.6935886  90.5661466  33.0421597
   8.8363389  89.3308302  33.2182201   1.2128506  98.8316820  37.7730504
   1.9256479  99.4664285  37.7006406   0.7218535  98.9280686  36.9570506
   2.9346033  92.7368072  29.3447796   2.0002312  92.8569535  29.1752500
   3.1122702  91.8340539  29.0807806   6.3218585  88.5785392  29.8797830
   6.7879037  89.4113383  29.8058133   6.7726085  88.1130373  30.5843088
   4.2935247  80.9465979  33.9188731   3.3798327  81.1770206  34.0870938
   4.7228349  81.0304423  34.7702764   4.0641706  89.1355871  36.4188625
   3.4113156  89.3831778  35.7641078   4.4422086  88.3220009  36.0851103
   3.7062936  96.0103867  42.9960933   4.2502840  96.6233825  42.5015888
   3.1249781  96.5683445  43.5127946   1.9920449  99.1324585  34.1275960
   1.8671588  98.3314325  33.6186906   2.6499540  99.6270778  33.6389930
   4.0555357  96.9333605  35.7555511   3.1085693  96.8138956  35.6833837
   4.4038130  96.0456103  35.8381772   4.6635913  97.5514880  33.0424736
   5.5882460  97.3457741  32.9049187   4.4951216  97.3031281  33.9514077
   1.0563305  84.5824159  26.9491980   1.2726919  85.4648796  26.6480808
   0.5757372  84.1910372  26.2197622  10.3070620  90.8336970  30.0177127
  10.7501766  90.0844295  29.6196250   9.4297130  90.8247106  29.6350859
   7.3397824  94.8367017  27.0271056   7.8649148  95.1754290  26.3020376
   7.2520177  93.9014032  26.8434191   7.0291730  95.4699921  42.3322254
   6.2387274  95.4524060  41.7926753   6.7925085  96.0088214  43.0871291
   7.1489605  92.3192387  39.6454983   7.1987610  92.1542395  40.5870505
   7.0403529  91.4519646  39.2552863   4.4393368  88.3023315  40.9614289
   5.3403231  88.1629780  40.6698287   4.5141342  88.4677770  41.9012467
   8.6507802  94.7389329  39.8897004   8.3592611  95.1019309  40.7260465
   8.0379934  94.0256337  39.7110336   9.8503485  92.3042208  32.4099574
  10.6850376  92.7432012  32.5737135   9.9862613  91.8280862  31.5907820
   6.8994991  89.8621943  38.3577062   7.3749112  90.0549590  37.5495913
   5.9760556  89.9181129  38.1120446   1.4775207  81.8969787  37.3232896
   1.9957151  82.6330814  36.9979385   1.1230340  82.2033780  38.1579655
   1.7287801  78.3170069  32.8433793   2.0089555  77.6493258  33.4694219
   2.5138408  78.5099165  32.3308456   5.5996660  86.7387703  36.5905368
   6.5514082  86.8385801  36.6117592   5.4300110  85.9465972  37.1003452
   3.6211039  83.8243287  36.7764769   3.0260971  84.1048299  36.0811257
   3.3360736  84.3137187  37.5481510   8.0784737  89.9593823  35.7047667
   8.0461057  89.0209824  35.8907351   8.6885361  90.0377860  34.9713492
   8.2279226  86.7504866  35.7505951   7.7118274  85.9663323  35.5635879
   9.1119174  86.4223583  35.9152470   5.8889953  80.4945882  31.7101763
   5.6914774  80.1860970  32.5945095   6.4989658  81.2207521  31.8399693
  13.8961287  91.0209830  34.8453704  14.6264676  90.7595118  35.4061407
  13.2868233  90.2838552  34.8855772  11.9776584  89.1617692  35.4428155
  11.2509748  89.0273657  34.8344647  11.5623871  89.4694521  36.2484873
   1.6463599  80.3754789  29.4598295   2.1994638  80.7950242  30.1188318
   1.8833686  79.4490537  29.5021251   5.0242406  82.4855314  28.9676959
   4.4441075  83.1440118  28.5855011   4.7578339  81.6632659  28.5564376
   3.4745973  81.8860372  31.1698279   3.9745751  81.9976906  30.3612598
   4.1181581  81.5821425  31.8099088   3.8067284  84.6455404  28.0233307
   2.9193139  84.9305055  27.8053502   4.2221274  84.4849168  27.1760584
   7.1581821  84.6701925  31.7387646   7.9342211  85.1598378  32.0112263
   6.4329955  85.0959980  32.1959516   9.5954379  85.3829545  32.7961587
  10.1898870  85.1425281  32.0854895   9.6680963  84.6636675  33.4235123
   3.7808308  90.1609940  28.2383597   3.7243510  90.6178492  27.3991230
   4.3336651  89.4000625  28.0606440   7.5913114  85.9499672  29.0633717
   7.3350048  85.5496308  29.8941924   6.9665982  86.6643466  28.9383856
  11.9025452  88.6895745  31.5705008  11.3425010  88.7588935  32.3436570
  11.2968955  88.5136730  30.8504504   1.8288995  93.6563633  44.8589689
   2.6980154  93.8304286  44.4976324   1.3495746  94.4758050  44.7365419
   1.6391332  77.4465607  29.3667382   0.8723728  76.8924094  29.5124064
   2.0502037  77.5187476  30.2281533  13.0422739 103.0903713  31.3388172
  13.8285828 102.6723136  30.9878589  13.3061443 103.9949805  31.5069820
  18.4431166 103.0278946  32.2421150  19.1756338 102.4578163  32.4758980
  17.6870522 102.6400547  32.6827656  15.9656586  96.7400521  36.7015759
  15.6339911  97.6095932  36.4776974  15.3702200  96.4236805  37.3809789
  15.8585250 101.4595607  33.7809109  14.9502127 101.3911015  33.4867870
  15.8072845 101.9367552  34.6090935   9.9326115 102.8785252  41.7244006
   9.1559450 103.4379172  41.7146871  10.5716679 103.3642035  42.2458876
  17.7246896  99.6612045  35.5586983  17.0821276  99.9544578  34.9126778
  17.2201825  99.5464966  36.3640180  15.3787060 103.4075218  26.2472842
  16.2904916 103.6402605  26.0720540  14.8696707 103.9912263  25.6847921
  10.0158897 102.7672453  37.2567692  10.8620093 103.1911867  37.4002341
   9.9557535 102.1106077  37.9506255  13.1658343 100.4276821  38.9148865
  12.9219275 101.1818882  38.3783141  13.4418273 100.8062169  39.7496112
  12.7223035  99.5833254  34.4962703  11.8607514  99.8814508  34.7879441
  12.7485469  99.8003653  33.5643736  24.3248627 106.1926138  32.1133460
  23.5712335 105.6233536  31.9577464  24.4596168 106.1588802  33.0604094
   6.2014594  97.1431120  44.4502534   5.8081540  96.5897318  45.1250179
   7.0180735  97.4541698  44.8409052   9.1182555  98.5588999  42.0422791
   9.8592269  99.1596152  41.9627253   9.3500478  97.8166637  41.4840833
  13.0639718  94.5870102  36.3187073  12.7203988  95.4771743  36.2426183
  13.4318681  94.3971759  35.4556658  10.6137112  99.4228414  29.8844746
   9.7578708  99.0335264  29.7050385  11.0264064  99.5020374  29.0244532
  12.1436259  96.9574757  34.2836306  11.6401054  96.9204892  33.4704111
  12.4366865  97.8667500  34.3432963   8.3879144  97.0413487  33.2902488
   9.2532141  96.8456295  32.9308377   8.4556653  96.8123838  34.2171844
  18.0024275 107.3311068  26.7612681  17.2253718 106.9922227  26.3167843
  18.6815756 107.3363691  26.0867646  12.8176304 102.4505805  26.6519289
  12.5126440 102.7651954  27.5029432  13.7706746 102.5287225  26.6946622
   5.9941464  99.2715695  30.6618854   6.5685215  99.0490876  29.9292047
   6.5812446  99.3404389  31.4147456  15.0521041 105.1589421  31.4683231
  15.5652922 105.7919413  31.9704941  15.7022265 104.5590617  31.1026591
   8.2964131  96.1456943  29.3893924   7.6428544  95.8305961  28.7650539
   8.2544605  95.5232684  30.1153747  11.5301872 102.6338877  33.7141571
  10.6124433 102.8553824  33.5563260  11.9462015 102.7085187  32.8553279
  12.3136919 104.0330293  28.8444252  13.0608738 104.5451690  28.5351374
  12.5828509 103.7114345  29.7048645  14.7615757 101.0687409  30.8263041
  14.0238513 100.5564795  31.1573284  15.0142530 100.6287791  30.0146318
  14.8627384  93.8463661  31.4204810  15.1686261  92.9861024  31.1330725
  15.5879989  94.4381281  31.2203804  12.6715035 103.2236338  38.5186274
  13.0264423 103.4507811  39.3780740  13.3187166 103.5554715  37.8963529
  18.4012772 106.3454774  29.2235603  18.2630671 106.5356370  28.2956792
  18.0448991 107.1074157  29.6803654   6.5654898 100.3312869  35.3032615
   7.2054278 100.1901628  34.6055578   5.7332429 100.0447383  34.9271217
   5.0408440 101.7150951  37.2504426   5.7131493 101.5068314  36.6017075
   4.2138227 101.5173037  36.8109659  10.9434012  98.3412892  39.2670087
  10.2961927  99.0402842  39.1734564  11.7135027  98.7749036  39.6346336
   6.7847172 101.6878732  39.3186183   6.2484529 101.2369470  39.9707779
   6.1963880 101.8224640  38.5756647   2.5186293 100.8234739  36.4039177
   2.4344482 100.2160409  35.6689587   1.6969000 101.3143758  36.4048674
  12.6910007  99.3088303  31.7709372  13.1878707  98.5558265  31.4510443
  11.9196989  99.3452620  31.2052582  20.5439764 105.0128668  33.4127664
  20.5329641 105.8953384  33.0421597  19.6757144 104.6600219  33.2182201
   9.2744976 101.4505686  31.4981057   8.9042763 100.8976726  32.1861963
   9.7704068 100.8463819  30.9456057  17.1612339 103.9077309  29.8797830
  17.6272791 104.7405301  29.8058133  17.6119840 103.4422291  30.5843088
  15.1329002  96.2757896  33.9188731  14.2192082  96.5062123  34.0870938
  15.5622103  96.3596340  34.7702764  14.9035460 104.4647788  36.4188625
  14.2506911 104.7123696  35.7641078  15.2815840 103.6511927  36.0851103
   4.6710309  98.8609677  37.7434163   4.7351636  99.7224508  37.3311561
   4.6077430  98.2483678  37.0106522   4.1462582 100.9332809  41.3907197
   4.7734621 100.5509886  42.0044722   3.2890501 100.7147011  41.7562890
   4.4522372 100.8165235  33.3053101   3.7308957 101.4301203  33.1660574
   5.2415627 101.3523000  33.2269747   7.2548685  98.1519661  39.5793752
   7.7783087  98.3981958  40.3420062   7.0361018  98.9839696  39.1596890
   8.4601230  99.0933356  37.2643423   8.1198051  98.2941170  37.6664103
   7.7540237  99.3935067  36.6920256   9.1117702  96.1782669  35.7170746
   9.9343771  95.7043147  35.5949636   9.3555766  96.9573153  36.2169432
  11.8957059  99.9116076  26.9491980  12.1120674 100.7940714  26.6480808
  11.4151127  99.5202290  26.2197622   8.4952664  99.8604338  33.5743614
   8.4814232  98.9645431  33.2375912   9.2125092  99.8675001  34.2081900
  10.3478794 100.2941678  35.6196742  10.0896572 101.2158748  35.6181072
   9.8163835  99.8972112  36.3097206  10.7680750  96.4273628  31.9797904
  10.7902447  96.4912961  31.0249884  11.1848809  95.5878137  32.1738410
  21.1464374 106.1628888  30.0177127  21.5895520 105.4136213  29.6196250
  20.2690885 106.1539024  29.6350859   7.3830639 100.2550715  43.0521117
   7.4318795 101.1312838  42.6698887   7.9253153  99.7128108  42.4792760
  15.2787122 103.6315233  40.9614289  16.1796985 103.4921698  40.6698287
  15.3535097 103.7969688  41.9012467   9.6129928 101.0082088  39.8067476
   8.7433237 101.3015654  39.5350064   9.8489408 101.5922533  40.5274739
  20.6897239 107.6334126  32.4099574  21.5244130 108.0723930  32.5737135
  20.8256368 107.1572779  31.5907820  17.7388745 105.1913861  38.3577062
  18.2142867 105.3841507  37.5495913  16.8154310 105.2473047  38.1120446
  12.3168961  97.2261704  37.3232896  12.8350905  97.9622731  36.9979385
  11.9624094  97.5325698  38.1579655  12.5681556  93.6461987  32.8433793
  12.8483309  92.9785176  33.4694219  13.3532163  93.8391083  32.3308456
  16.4390414 102.0679621  36.5905368  17.3907837 102.1677719  36.6117592
  16.2693864 101.2757890  37.1003452  14.4604793  99.1535204  36.7764769
  13.8654726  99.4340217  36.0811257  14.1754490  99.6429105  37.5481510
  18.9178492 105.2885741  35.7047667  18.8854812 104.3501741  35.8907351
  19.5279115 105.3669777  34.9713492  19.0672980 102.0796784  35.7505951
  18.5512029 101.2955241  35.5635879  19.9512929 101.7515501  35.9152470
  16.7283707  95.8237800  31.7101763  16.5308528  95.5152888  32.5945095
  17.3383413  96.5499439  31.8399693  24.7355042 106.3501748  34.8453704
  25.4658430 106.0887036  35.4061407  24.1261987 105.6130469  34.8855772
  22.8170339 104.4909610  35.4428155  22.0903502 104.3565575  34.8344647
  22.4017626 104.7986439  36.2484873  10.5566806  96.6268660  27.8373998
   9.7467534  96.2815745  28.2129244  11.2451222  96.3176204  28.4261609
  12.4857354  95.7046707  29.4598295  13.0388392  96.1242160  30.1188318
  12.7227440  94.7782455  29.5021251   8.5090453 101.6933780  45.2401058
   8.4087180 102.6428137  45.1713150   8.2911995 101.3652019  44.3677129
  15.8636161  97.8147232  28.9676959  15.2834830  98.4732036  28.5855011
  15.5972094  96.9924576  28.5564376  14.3139727  97.2152289  31.1698279
  14.8139506  97.3268824  30.3612598  14.9575335  96.9113342  31.8099088
  14.6461039  99.9747322  28.0233307  13.7586894 100.2596973  27.8053502
  15.0615028  99.8141086  27.1760584  17.9975575  99.9993843  31.7387646
  18.7735965 100.4890296  32.0112263  17.2723709 100.4251897  32.1959516
  20.4348134 100.7121462  32.7961587  21.0292624 100.4717198  32.0854895
  20.5074717  99.9928593  33.4235123  14.6202063 105.4901858  28.2383597
  14.5637264 105.9470409  27.3991230  15.1730405 104.7292543  28.0606440
  18.4306869 101.2791590  29.0633717  18.1743803 100.8788226  29.8941924
  17.8059737 101.9935384  28.9383856  22.7419206 104.0187663  31.5705008
  22.1818764 104.0880852  32.3436570  22.1362710 103.8428648  30.8504504
  12.4785087  92.7757525  29.3667382  11.7117483  92.2216012  29.5124064
  12.8895792  92.8479394  30.2281533   4.4826848  99.0642321  43.4572563
   5.3458310  98.7079126  43.6675887   3.9092259  98.7256216  44.1447967
  25.7021138 109.1755579  31.4204810  26.0080015 108.3152942  31.1330725
  26.4273743 109.7673199  31.2203804  23.4075310 108.9753905  32.8433793
  23.6877064 108.3077094  33.4694219  24.1925917 109.1683000  32.3308456
  23.3178841 108.1049443  29.3667382  22.5511237 107.5507929  29.5124064
  23.7289546 108.1771311  30.2281533   2.6461119  52.5404425  18.8378766
   1.8924827  51.9711823  18.6822771   2.7808660  52.5067089  19.7849401
   3.0567534  52.6980035  21.5699011   3.7870922  52.4365323  22.1306714
   2.4474479  51.9608757  21.6101079   1.1382831  50.8387897  22.1673462
   0.4115995  50.7043862  21.5589954   0.7230118  51.1464726  22.9730180
   1.0631699  50.3665950  18.2950315   0.5031257  50.4359140  19.0681877
   0.4575202  50.1906935  17.5749811   2.6487717  67.0422464  20.9880270
   3.2866127  66.9229212  20.2843611   2.5308560  67.9903308  21.0468223
   2.2028986  64.7673918  18.0633479   2.9892075  64.3493341  17.7123896
   2.4667690  65.6720010  18.2315127   7.6037413  64.7049151  18.9666457
   8.3362585  64.1348368  19.2004286   6.8476768  64.3170752  19.4072963
   5.1262833  58.4170726  23.4261066   4.7946158  59.2866136  23.2022281
   4.5308447  58.1007010  24.1055096   1.6194353  70.6183272  22.8256978
   1.3195076  71.5208310  22.7172786   1.2745412  70.3515455  23.6778131
   5.0191496  63.1365812  20.5054416   4.1108374  63.0681220  20.2113177
   4.9679092  63.6137757  21.3336241   6.8853143  61.3382250  22.2832290
   6.2427523  61.6314783  21.6372084   6.3808071  61.2235170  23.0885486
   4.5393307  65.0845423  12.9718149   5.4511163  65.3172810  12.7965846
   4.0302954  65.6682467  12.4093227   2.8234074  69.5070051  26.6079441
   3.2317430  69.0652462  25.8634074   2.1011336  68.9322679  26.8613634
   3.1462889  70.0671242  20.3631730   2.5171751  70.2316956  19.6607798
   2.7588551  70.4812851  21.1342694   7.0252121  71.0025680  17.7176094
   6.3403159  71.3824581  17.1673127   7.1095970  71.6121006  18.4508042
   2.3264590  62.1047026  25.6394172   2.0825521  62.8589087  25.1028448
   2.6024520  62.4832374  26.4741419   4.2803052  68.6485639  24.3171438
   4.4919948  69.2917398  23.6405819   4.2332801  67.8147955  23.8493368
   1.8829281  61.2603459  21.2208010   1.0213760  61.5584713  21.5124747
   1.9091716  61.4773858  20.2889042   5.3948880  71.5257594  22.4893795
   6.2166324  71.1237781  22.2076477   5.3911283  71.4225828  23.4409911
  13.4854873  67.8696343  18.8378766  12.7318582  67.3003741  18.6822771
  13.6202415  67.8359007  19.7849401   2.6003216  73.6436111  26.6715229
   2.5821691  74.4644992  26.1795498   3.5223136  73.5190186  26.8965370
   2.2245965  56.2640307  23.0432379   1.8810234  57.1541948  22.9671490
   2.5924928  56.0741964  22.1801964   1.3042505  58.6344962  21.0081612
   0.8007301  58.5975097  20.1949418   1.5973112  59.5437705  21.0678269
   7.1630522  69.0081272  13.4857988   6.3859965  68.6692432  13.0413150
   7.8422003  69.0133896  12.8112953   1.9782551  64.1276010  13.3764596
   1.6732686  64.4422159  14.2274739   2.9312993  64.2057430  13.4191929
   5.4021829  68.4815254  20.1424596   4.7445503  69.1714515  20.2304724
   6.2062228  68.8711686  20.4858582   4.2127288  66.8359626  18.1928538
   4.7259169  67.4689618  18.6950247   4.8628511  66.2360822  17.8271898
   1.4743166  65.7100498  15.5689558   2.2214985  66.2221895  15.2596680
   1.7434756  65.3884550  16.4293952   4.9789084  71.8165628  16.3207680
   4.5251411  70.9756538  16.3772871   4.3483050  72.4527026  16.6582460
   3.9222003  62.7457614  17.5508348   3.1844760  62.2335000  17.8818590
   4.1748777  62.3057995  16.7391625   4.0233631  55.5233866  18.1450117
   4.3292507  54.6631229  17.8576032   4.7486235  56.1151486  17.9449111
   1.8321282  64.9006543  25.2431581   2.1870670  65.1278016  26.1026046
   2.4793413  65.2324920  24.6208836   7.5619019  68.0224979  15.9480910
   7.4236917  68.2126575  15.0202099   7.2055238  68.7844362  16.4048961
   7.5888398  70.0901506  20.9592181   8.0224905  69.9976795  21.8075235
   8.3019979  70.0659007  20.3212197   1.3216293  73.6903600  22.4925282
   1.3753316  74.2594536  23.2602998   0.4531075  73.8605485  22.1279319
   8.4503948  70.1325207  23.4925067   8.6439838  71.0371017  23.7384342
   8.3504566  69.6732626  24.3263652   3.5119057  70.2831949  29.0665947
   3.3604563  70.0542501  28.1496031   3.5023736  71.2402551  29.0797292
   5.2211263  73.3151072  27.1442429   5.1623810  72.6310292  26.4773012
   5.6230782  74.0570062  26.6923055   5.2228671  71.2790656  25.3756409
   4.3355449  70.9416578  25.4982808   5.7927222  70.5473687  25.6125174
   1.8516254  60.9858508  18.4954679   2.3484953  60.2328470  18.1755749
   1.0803235  61.0222824  17.9297888   9.7046011  66.6898873  20.1372970
   9.6935887  67.5723589  19.7666904   8.8363391  66.3370424  19.9427508
   1.2128508  75.8378942  24.4975811   1.9256480  76.4726407  24.4251712
   0.7218536  75.9342808  23.6815813   2.9346034  69.7430195  16.0693102
   2.0002313  69.8631657  15.8997807   3.1122703  68.8402662  15.8053112
   6.3218586  65.5847514  16.6043137   6.7879038  66.4175506  16.5303439
   6.7726086  65.1192496  17.3088395   4.2935249  57.9528101  20.6434038
   3.3798328  58.1832328  20.8116245   4.7228350  58.0366545  21.4948070
   4.0641707  66.1417993  23.1433932   3.4113157  66.3893901  22.4886385
   4.4422087  65.3282131  22.8096409   3.7062937  73.0165989  29.7206239
   4.2502841  73.6295948  29.2261194   3.1249782  73.5745568  30.2373252
   1.9920450  76.1386707  20.8521267   1.8671590  75.3376447  20.3432213
   2.6499541  76.6332901  20.3635237   4.0555359  73.9395727  22.4800817
   3.1085694  73.8201079  22.4079144   4.4038132  73.0518225  22.5627079
   4.6635914  74.5577002  19.7670042   5.5882461  74.3519864  19.6294493
   4.4951217  74.3093403  20.6759384   1.0563306  61.5886281  13.6737287
   1.2726921  62.4710919  13.3726115   0.5757373  61.1972495  12.9442929
  10.3070621  67.8399093  16.7422433  10.7501767  67.0906418  16.3441557
   9.4297131  67.8309229  16.3596165   7.3397826  71.8429140  13.7516363
   7.8649150  72.1816412  13.0265683   7.2520178  70.9076155  13.5679497
   7.0291732  72.4762043  29.0567561   6.2387275  72.4586182  28.5172060
   6.7925086  73.0150337  29.8116597   7.1489607  69.3254510  26.3700289
   7.1987612  69.1604517  27.3115812   7.0403530  68.4581769  25.9798170
   4.4393369  65.3085438  27.6859596   5.3403232  65.1691903  27.3943594
   4.5141344  65.4739893  28.6257773   8.6507804  71.7451451  26.6142311
   8.3592612  72.1081432  27.4505772   8.0379935  71.0318460  26.4355643
   9.8503486  69.3104331  19.1344881  10.6850377  69.7494135  19.2982441
   9.9862615  68.8342984  18.3153127   6.8994992  66.8684066  25.0822369
   7.3749113  67.0611712  24.2741220   5.9760557  66.9243252  24.8365752
   1.4775208  58.9031909  24.0478203   1.9957152  59.6392936  23.7224691
   1.1230341  59.2095903  24.8824962   1.7287802  55.3232192  19.5679099
   2.0089556  54.6555381  20.1939526   2.5138409  55.5161288  19.0553763
   5.5996661  63.7449826  23.3150674   6.5514084  63.8447924  23.3362898
   5.4300111  62.9528094  23.8248759   3.6211040  60.8305409  23.5010075
   3.0260972  61.1110422  22.8056564   3.3360737  61.3199310  24.2726816
   8.0784739  66.9655946  22.4292974   8.0461059  66.0271946  22.6152658
   8.6885362  67.0439982  21.6958799   8.2279227  63.7566989  22.4751257
   7.7118276  62.9725446  22.2881186   9.1119176  63.4285706  22.6397777
   5.8889954  57.5008005  18.4347070   5.6914775  57.1923093  19.3190402
   6.4989660  58.2269644  18.5645000  13.8961288  68.0271952  21.5699011
  14.6264677  67.7657241  22.1306714  13.2868234  67.2900674  21.6101079
  11.9776586  66.1679815  22.1673462  11.2509749  66.0335780  21.5589954
  11.5623872  66.4756644  22.9730180   1.6463601  57.3816912  16.1843601
   2.1994639  57.8012365  16.8433624   1.8833687  56.4552660  16.2266557
   5.0242408  59.4917437  15.6922265   4.4441077  60.1502241  15.3100318
   4.7578340  58.6694781  15.2809683   3.4745974  58.8922494  17.8943586
   3.9745752  59.0039029  17.0857905   4.1181582  58.5883547  18.5344394
   3.8067286  61.6517527  14.7478614   2.9193141  61.9367178  14.5298808
   4.2221275  61.4911290  13.9005891   7.1581822  61.6764048  18.4632953
   7.9342212  62.1660500  18.7357570   6.4329956  62.1022102  18.9204822
   9.5954380  62.3891667  19.5206894  10.1898871  62.1487403  18.8100202
   9.6680964  61.6698798  20.1480430   3.7808309  67.1672063  14.9628904
   3.7243511  67.6240614  14.1236536   4.3336652  66.4062748  14.7851747
   7.5913115  62.9561795  15.7879023   7.3350050  62.5558431  16.6187231
   6.9665983  63.6705589  15.6629162  11.9025453  65.6957868  18.2950315
  11.3425011  65.7651057  19.0681877  11.2968957  65.5198853  17.5749811
   1.8288996  70.6625756  31.5834996   2.6980156  70.8366408  31.2221631
   1.3495747  71.4820173  31.4610725   1.6391334  54.4527730  16.0912688
   0.8723729  53.8986217  16.2369371   2.0502039  54.5249599  16.9526840
  13.4881472  82.3714382  20.9880270  14.1259882  82.2521129  20.2843611
  13.3702315  83.3195226  21.0468223  10.2971178  82.3241810  20.9241795
   9.9589689  82.2082875  20.0362330  11.1660946  81.9232975  20.9042801
  10.7790961  83.4776662  26.8828001  10.7679602  83.0829460  26.0108504
  10.9411600  82.7442734  27.4761772   7.4998222  86.2613774  25.8307185
   7.2088088  87.1659405  25.7153851   8.1355206  86.3030301  26.5451254
   8.4254429  83.6390622  22.4208544   9.0218001  83.4146645  21.7065507
   8.4829400  82.8975368  23.0233992  13.0422740  80.0965836  18.0633479
  13.8285829  79.6785259  17.7123896  13.3061444  81.0011928  18.2315127
  18.4431167  80.0341069  18.9666457  19.1756339  79.4640286  19.2004286
  17.6870523  79.6462670  19.4072963  15.9656588  73.7462643  23.4261066
  15.6339912  74.6158054  23.2022281  15.3702201  73.4298927  24.1055096
  12.4588107  85.9475189  22.8256978  12.1588830  86.8500228  22.7172786
  12.1139167  85.6807372  23.6778131  15.8585251  78.4657729  20.5054416
  14.9502128  78.3973138  20.2113177  15.8072847  78.9429674  21.3336241
   9.9326117  79.8847375  28.4489313   9.1559451  80.4441295  28.4392178
  10.5716680  80.3704158  28.9704183  17.7246897  76.6674168  22.2832290
  17.0821278  76.9606701  21.6372084  17.2201826  76.5527088  23.0885486
  15.3787061  80.4137341  12.9718149  16.2904917  80.6464728  12.7965846
  14.8696708  80.9974385  12.4093227   8.1872489  82.6932828  28.0107280
   8.9287173  83.2317872  27.7342104   7.4809474  83.3199117  28.1678832
  13.6627829  84.8361969  26.6079441  14.0711185  84.3944379  25.8634074
  12.9405090  84.2614596  26.8613634  10.0158899  79.7734576  23.9812998
  10.8620094  80.1973989  24.1247647   9.9557536  79.1168200  24.6751561
  13.9856643  85.3963159  20.3631730  13.3565506  85.5608874  19.6607798
  13.5982305  85.8104769  21.1342694  17.8645875  86.3317597  17.7176094
  17.1796913  86.7116499  17.1673127  17.9489725  86.9412924  18.4508042
  13.1658344  77.4338944  25.6394172  12.9219276  78.1881004  25.1028448
  13.4418275  77.8124292  26.4741419  15.1196807  83.9777556  24.3171438
  15.3313702  84.6209316  23.6405819  15.0726555  83.1439873  23.8493368
  12.7223036  76.5895377  21.2208010  11.8607515  76.8876630  21.5124747
  12.7485470  76.8065776  20.2889042   6.9233853  79.8472476  28.8122590
   6.2932513  80.5288757  29.0457987   6.8169941  79.7355558  27.8675728
  16.2342635  86.8549512  22.4893795  17.0560078  86.4529699  22.2076477
  16.2305038  86.7517746  23.4409911   9.9999238  86.4033555  24.6454505
  10.0643671  86.8653962  25.4812677   9.2910162  85.7730920  24.7736815
  24.3248628  83.1988260  18.8378766  23.5712336  82.6295658  18.6822771
  24.4596169  83.1650925  19.7849401   6.2014596  74.1493242  31.1747841
   5.8081541  73.5959441  31.8495485   7.0180736  74.4603821  31.5654359
   9.1182556  75.5651121  28.7668098   9.8592270  76.1658275  28.6872560
   9.3500479  74.8228759  28.2086140   4.2623895  80.7507489  27.0446327
   4.1477410  79.8492746  27.3453426   3.4068412  80.9971185  26.6931144
  11.3415732  88.6925229  28.6433828  10.8979586  87.9061608  28.3254732
  12.0032946  88.8804379  27.9777719  13.4396970  88.9728029  26.6715229
  13.4215446  89.7936910  26.1795498  14.3616890  88.8482104  26.8965370
   9.8970024  86.4872158  27.5138737  10.4298361  85.7260447  27.2838045
   9.3684106  86.1945810  28.2562892  13.0639719  71.5932224  23.0432379
  12.7203989  72.4833866  22.9671490  13.4318682  71.4033882  22.1801964
  10.6137113  76.4290536  16.6090053   9.7578710  76.0397387  16.4295691
  11.0264065  76.5082497  15.7489838  12.1436260  73.9636880  21.0081612
  11.6401055  73.9267015  20.1949418  12.4366867  74.8729622  21.0678269
   8.3879146  74.0475609  20.0147794   9.2532142  73.8518418  19.6553684
   8.4556655  73.8185961  20.9417151  18.0024276  84.3373190  13.4857988
  17.2253719  83.9984350  13.0413150  18.6815757  84.3425813  12.8112953
  12.8176305  79.4567928  13.3764596  12.5126441  79.7714077  14.2274739
  13.7706747  79.5349347  13.4191929  16.2415583  83.8107171  20.1424596
  15.5839258  84.5006433  20.2304724  17.0455982  84.2003603  20.4858582
   5.9941465  76.2777817  17.3864161   6.5685217  76.0552999  16.6537354
   6.5812447  76.3466512  18.1392762  15.0521042  82.1651544  18.1928538
  15.5652924  82.7981536  18.6950247  15.7022266  81.5652740  17.8271898
   8.2964132  73.1519066  16.1139230   7.6428545  72.8368083  15.4895845
   8.2544607  72.5294807  16.8399053  11.5301873  79.6401000  20.4386878
  10.6124434  79.8615947  20.2808566  11.9462016  79.7147310  19.5798585
  12.3136921  81.0392415  15.5689558  13.0608740  81.5513813  15.2596680
  12.5828510  80.7176468  16.4293952  15.8182838  87.1457546  16.3207680
  15.3645165  86.3048455  16.3772871  15.1876805  87.7818944  16.6582460
  14.7615758  78.0749532  17.5508348  14.0238515  77.5626918  17.8818590
  15.0142531  77.6349913  16.7391625  14.8627385  70.8525784  18.1450117
  15.1686262  69.9923147  17.8576032  15.5879990  71.4443404  17.9449111
   9.1348465  81.1479577  18.6526308   9.1897075  80.1953413  18.5768785
   8.3239667  81.3039016  19.1367606  12.6715036  80.2298461  25.2431581
  13.0264424  80.4569934  26.1026046  13.3187168  80.5616838  24.6208836
  18.4012773  83.3516897  15.9480910  18.2630672  83.5418493  15.0202099
  18.0448992  84.1136280  16.4048961   6.5654900  77.3374992  22.0277922
   7.2054279  77.1963751  21.3300885   5.7332430  77.0509505  21.6516524
  18.4282153  85.4193424  20.9592181  18.8618660  85.3268713  21.8075235
  19.1413734  85.3950924  20.3212197  12.1610048  89.0195518  22.4925282
  12.2147070  89.5886454  23.2602998  11.2924829  89.1897403  22.1279319
   5.0408441  78.7213074  23.9749733   5.7131495  78.5130436  23.3262382
   4.2138228  78.5235160  23.5354965  19.2897703  85.4617124  23.4925067
  19.4833593  86.3662935  23.7384342  19.1898321  85.0024543  24.3263652
  10.9434013  75.3475015  25.9915394  10.2961928  76.0464965  25.8979870
  11.7135029  75.7811159  26.3591642  14.3512811  85.6123867  29.0665947
  14.1998318  85.3834419  28.1496031  14.3417491  86.5694469  29.0797292
  11.1198148  83.1855780  24.0512214  12.0490208  83.3366939  23.8781181
  10.6989178  83.2739801  23.1960860   9.9186479  87.2106444  21.8210751
   9.7797565  86.8425229  22.6936689   9.1301076  87.7254084  21.6494709
  11.4691695  86.5888047  19.2099589  11.1341527  86.5488817  20.1057239
  10.9695640  85.9232763  18.7369999   5.4435939  81.9955677  24.7352170
   5.3055736  81.2635916  25.3363709   6.3540862  81.9064577  24.4536358
   8.0718239  81.7075636  24.2235850   8.7817858  81.0668829  24.1822468
   8.0287547  81.9588531  25.1462031  16.0605018  88.6442990  27.1442429
  16.0017564  87.9602210  26.4773012  16.4624536  89.3861980  26.6923055
   6.7847173  78.6940854  26.0431489   6.2484530  78.2431593  26.6953086
   6.1963882  78.8286763  25.3001954  16.0622425  86.6082574  25.3756409
  15.1749204  86.2708495  25.4982808  16.6320976  85.8765605  25.6125174
   2.5186294  77.8296862  23.1284484   2.4344483  77.2222531  22.3934894
   1.6969001  78.3205880  23.1293980  12.6910008  76.3150425  18.4954679
  13.1878708  75.5620388  18.1755749  11.9196990  76.3514742  17.9297888
  20.5439766  82.0190791  20.1372970  20.5329642  82.9015506  19.7666904
  19.6757145  81.6662342  19.9427508  12.0522262  91.1670860  24.4975811
  12.7650234  91.8018325  24.4251712  11.5612291  91.2634726  23.6815813
  13.7739789  85.0722113  16.0693102  12.8396068  85.1923575  15.8997807
  13.9516457  84.1694579  15.8053112   9.2744977  78.4567808  18.2226364
   8.9042765  77.9038849  18.9107269   9.7704069  77.8525942  17.6701364
  17.1612340  80.9139432  16.6043137  17.6272793  81.7467424  16.5303439
  17.6119841  80.4484414  17.3088395   7.1034176  88.9165303  25.3181382
   7.8043635  89.5501786  25.4710776   6.6329291  89.2580035  24.5577021
  15.1329003  73.2820019  20.6434038  14.2192083  73.5124246  20.8116245
  15.5622105  73.3658463  21.4948070  14.9035462  81.4709911  23.1433932
  14.2506912  81.7185818  22.4886385  15.2815841  80.6574049  22.8096409
  10.9523035  82.2129722  29.6299969  10.2763672  82.1123851  30.3002344
  11.7750668  82.0568936  30.0935966   4.6710311  75.8671799  24.4679470
   4.7351637  76.7286630  24.0556867   4.6077431  75.2545801  23.7351828
   4.1462583  77.9394932  28.1152504   4.7734622  77.5572009  28.7290028
   3.2890502  77.7209134  28.4808196  14.5456692  88.3457907  29.7206239
  15.0896596  88.9587865  29.2261194  13.9643537  88.9037485  30.2373252
  12.8314205  91.4678625  20.8521267  12.7065344  90.6668365  20.3432213
  13.4893296  91.9624818  20.3635237   4.4522373  77.8227357  20.0298407
   3.7308959  78.4363325  19.8905881   5.2415629  78.3585122  19.9515053
  14.8949113  89.2687645  22.4800817  13.9479449  89.1492996  22.4079144
  15.2431886  88.3810143  22.5627079   7.2548686  75.1581784  26.3039059
   7.7783088  75.4044080  27.0665368   7.0361020  75.9901819  25.8842196
  15.5029668  89.8868920  19.7670042  16.4276216  89.6811781  19.6294493
  15.3344972  89.6385321  20.6759384   8.4601232  76.0995479  23.9888730
   8.1198052  75.3003292  24.3909410   7.7540238  76.3997190  23.4165563
   9.1117703  73.1844791  22.4416053   9.9343773  72.7105270  22.3194943
   9.3555767  73.9635275  22.9414739  11.8957061  76.9178199  13.6737287
  12.1120675  77.8002837  13.3726115  11.4151128  76.5264412  12.9442929
   6.6356282  79.8763912  20.2508031   6.4900863  80.1904215  21.1432313
   6.1581486  80.4948812  19.6978930   8.4952665  76.8666460  20.2988921
   8.4814234  75.9707553  19.9621219   9.2125093  76.8737124  20.9327207
  10.3478796  77.3003800  22.3442048  10.0896574  78.2220871  22.3426379
   9.8163836  76.9034235  23.0342512  10.7680751  73.4335751  18.7043211
  10.7902448  73.4975084  17.7495190  11.1848810  72.5940259  18.8983717
  21.1464376  83.1691010  16.7422433  21.5895522  82.4198336  16.3441557
  20.2690886  83.1601147  16.3596165   1.8967966  81.5439153  26.0825849
   1.1549702  81.6921788  26.6690480   1.5760710  81.8047418  25.2192599
  18.1791580  87.1721057  13.7516363  18.7042904  87.5108330  13.0265683
  18.0913933  86.2368073  13.5679497   9.8411629  91.0855131  25.8806239
  10.1498755  90.8404278  26.7528939  10.6387111  91.2901769  25.3925110
   7.3830640  77.2612838  29.7766424   7.4318796  78.1374961  29.3944193
   7.9253155  76.7190231  29.2038067  17.8685486  87.8053961  29.0567561
  17.0781030  87.7878100  28.5172060  17.6318841  88.3442255  29.8116597
  17.9883361  84.6546427  26.3700289  18.0381366  84.4896435  27.3115812
  17.8797285  83.7873686  25.9798170  15.2787124  80.6377355  27.6859596
  16.1796986  80.4983820  27.3943594  15.3535098  80.8031810  28.6257773
   9.6129929  78.0144210  26.5312782   8.7433238  78.3077776  26.2595371
   9.8489409  78.5984655  27.2520046  19.4901558  87.0743369  26.6142311
  19.1986366  87.4373349  27.4505772  18.8773689  86.3610377  26.4355643
  20.6897240  84.6396249  19.1344881  21.5244132  85.0786053  19.2982441
  20.8256369  84.1634902  18.3153127  17.7388746  82.1975984  25.0822369
  18.2142868  82.3903630  24.2741220  16.8154312  82.2535169  24.8365752
  12.3168963  74.2323827  24.0478203  12.8350907  74.9684854  23.7224691
  11.9624096  74.5387820  24.8824962  12.5681557  70.6524110  19.5679099
  12.8483311  69.9847299  20.1939526  13.3532164  70.8453205  19.0553763
  16.4390415  79.0741744  23.3150674  17.3907838  79.1739841  23.3362898
  16.2693866  78.2820012  23.8248759  14.4604795  76.1597327  23.5010075
  13.8654727  76.4402340  22.8056564  14.1754491  76.6491228  24.2726816
  18.9178493  82.2947863  22.4292974  18.8854813  81.3563864  22.6152658
  19.5279117  82.3731900  21.6958799  19.0672982  79.0858907  22.4751257
  18.5512030  78.3017363  22.2881186  19.9512930  78.7577623  22.6397777
  16.7283708  72.8299922  18.4347070  16.5308530  72.5215010  19.3190402
  17.3383414  73.5561561  18.5645000  24.7355043  83.3563870  21.5699011
  25.4658431  83.0949158  22.1306714  24.1261988  82.6192592  21.6101079
  22.8170340  81.4971733  22.1673462  22.0903504  81.3627698  21.5589954
  22.4017627  81.8048561  22.9730180  10.6400516  85.2161662  29.9320835
  11.5603526  85.3940261  30.1260881  10.6050099  84.2717708  29.7800534
   3.6362589  83.1262697  22.5743616   3.8548599  84.0579805  22.5931650
   4.0488363  82.7670671  23.3598420  10.5566807  73.6330782  14.5619305
   9.7467535  73.2877867  14.9374551  11.2451224  73.3238326  15.1506916
  12.4857355  72.7108829  16.1843601  13.0388394  73.1304283  16.8433624
  12.7227441  71.7844577  16.2266557   8.5090454  78.6995903  31.9646365
   8.4087181  79.6490260  31.8958456   8.2911996  78.3714142  31.0922435
  15.8636162  74.8209354  15.6922265  15.2834831  75.4794158  15.3100318
  15.5972095  73.9986699  15.2809683  14.3139729  74.2214412  17.8943586
  14.8139507  74.3330947  17.0857905  14.9575336  73.9175465  18.5344394
   8.3721724  82.1293042  30.7811427   7.8888806  82.9293402  30.9875316
   8.4582663  82.1400987  29.8278871   4.8894444  84.5898692  25.3850658
   5.7087333  85.0842771  25.4085495   5.1631252  83.6730661  25.3568226
  14.6461040  76.9809445  14.7478614  13.7586895  77.2659095  14.5298808
  15.0615029  76.8203208  13.9005891  17.9975576  77.0055966  18.4632953
  18.7735966  77.4952418  18.7357570  17.2723710  77.4314020  18.9204822
  20.4348135  77.7183585  19.5206894  21.0292626  77.4779321  18.8100202
  20.5074719  76.9990715  20.1480430  14.6202064  82.4963981  14.9628904
  14.5637265  82.9532532  14.1236536  15.1730406  81.7354665  14.7851747
  18.4306870  78.2853713  15.7879023  18.1743804  77.8850348  16.6187231
  17.8059738  78.9997506  15.6629162  22.7419208  81.0249786  18.2950315
  22.1818766  81.0942975  19.0681877  22.1362711  80.8490770  17.5749811
  12.6682750  85.9917674  31.5834996  13.5373910  86.1658326  31.2221631
  12.1889502  86.8112091  31.4610725  12.4785088  69.7819648  16.0912688
  11.7117484  69.2278134  16.2369371  12.8895793  69.8541516  16.9526840
   4.4826849  76.0704443  30.1817869   5.3458311  75.7141248  30.3921194
   3.9092260  75.7318338  30.8693274  24.3275226  97.7006300  20.9880270
  24.9653636  97.5813047  20.2843611  24.2096069  98.6487144  21.0468223
  21.1364932  97.6533728  20.9241795  20.7983444  97.5374793  20.0362330
  22.0054701  97.2524893  20.9042801  21.6184715  98.8068580  26.8828001
  21.6073356  98.4121378  26.0108504  21.7805355  98.0734652  27.4761772
  18.3391977 101.5905691  25.8307185  18.0481843 102.4951322  25.7153851
  18.9748961 101.6322219  26.5451254  19.2648183  98.9682540  22.4208544
  19.8611756  98.7438562  21.7065507  19.3223155  98.2267285  23.0233992
  23.8816495  95.4257754  18.0633479  24.6679584  95.0077177  17.7123896
  24.1455199  96.3303846  18.2315127  29.2824922  95.3632987  18.9666457
  30.0150094  94.7932204  19.2004286  28.5264277  94.9754587  19.4072963
  26.8050342  89.0754561  23.4261066  26.4733667  89.9449972  23.2022281
  26.2095955  88.7590845  24.1055096  23.2981862 101.2767107  22.8256978
  22.9982585 102.1792146  22.7172786  22.9532921 101.0099290  23.6778131
  26.6979005  93.7949647  20.5054416  25.7895883  93.7265055  20.2113177
  26.6466601  94.2721592  21.3336241  20.7719871  95.2139293  28.4489313
  19.9953205  95.7733213  28.4392178  21.4110434  95.6996076  28.9704183
  28.5640652  91.9966085  22.2832290  27.9215032  92.2898619  21.6372084
  28.0595580  91.8819006  23.0885486  26.2180815  95.7429259  12.9718149
  27.1298672  95.9756645  12.7965846  25.7090463  96.3266303  12.4093227
  19.0266244  98.0224746  28.0107280  19.7680928  98.5609790  27.7342104
  18.3203229  98.6491035  28.1678832  24.5021583 100.1653886  26.6079441
  24.9104939  99.7236297  25.8634074  23.7798845  99.5906514  26.8613634
  20.8552653  95.1026493  23.9812998  21.7013848  95.5265907  24.1247647
  20.7951291  94.4460118  24.6751561  24.8250398 100.7255077  20.3631730
  24.1959260 100.8900791  19.6607798  24.4376060 101.1396687  21.1342694
  28.7039630 101.6609515  17.7176094  28.0190668 102.0408416  17.1673127
  28.7883479 102.2704842  18.4508042  24.0052099  92.7630862  25.6394172
  23.7613030  93.5172922  25.1028448  24.2812029  93.1416209  26.4741419
  25.9590561  99.3069474  24.3171438  26.1707457  99.9501234  23.6405819
  25.9120310  98.4731791  23.8493368  23.5616790  91.9187295  21.2208010
  22.7001269  92.2168548  21.5124747  23.5879225  92.1357694  20.2889042
  17.7627607  95.1764394  28.8122590  17.1326268  95.8580675  29.0457987
  17.6563695  95.0647476  27.8675728  27.0736389 102.1841429  22.4893795
  27.8953833 101.7821617  22.2076477  27.0698792 102.0809664  23.4409911
  20.8392993 101.7325473  24.6454505  20.9037425 102.1945880  25.4812677
  20.1303917 101.1022838  24.7736815  35.1642382  98.5280178  18.8378766
  34.4106091  97.9587576  18.6822771  35.2989924  98.4942842  19.7849401
  17.0408350  89.4785160  31.1747841  16.6475296  88.9251359  31.8495485
  17.8574490  89.7895738  31.5654359  19.9576311  90.8943039  28.7668098
  20.6986024  91.4950192  28.6872560  20.1894234  90.1520677  28.2086140
  15.1017649  96.0799406  27.0446327  14.9871164  95.1784664  27.3453426
  14.2462167  96.3263103  26.6931144  22.1809487 104.0217147  28.6433828
  21.7373341 103.2353525  28.3254732  22.8426700 104.2096297  27.9777719
  24.2790725 104.3019947  26.6715229  24.2609200 105.1228828  26.1795498
  25.2010645 104.1774022  26.8965370  20.7363779 101.8164076  27.5138737
  21.2692116 101.0552364  27.2838045  20.2077860 101.5237728  28.2562892
  23.9033474  86.9224142  23.0432379  23.5597743  87.8125784  22.9671490
  24.2712437  86.7325800  22.1801964  21.4530868  91.7582454  16.6090053
  20.5972464  91.3689304  16.4295691  21.8657819  91.8374415  15.7489838
  22.9830014  89.2928797  21.0081612  22.4794810  89.2558932  20.1949418
  23.2760621  90.2021540  21.0678269  19.2272900  89.3767527  20.0147794
  20.0925897  89.1810336  19.6553684  19.2950409  89.1477879  20.9417151
  28.8418031  99.6665108  13.4857988  28.0647474  99.3276267  13.0413150
  29.5209512  99.6717731  12.8112953  23.6570060  94.7859845  13.3764596
  23.3520195  95.1005994  14.2274739  24.6100502  94.8641265  13.4191929
  27.0809338  99.1399089  20.1424596  26.4233012  99.8298350  20.2304724
  27.8849737  99.5295521  20.4858582  16.8335219  91.6069735  17.3864161
  17.4078971  91.3844916  16.6537354  17.4206202  91.6758429  18.1392762
  25.8914796  97.4943462  18.1928538  26.4046678  98.1273454  18.6950247
  26.5416020  96.8944657  17.8271898  19.1357887  88.4810984  16.1139230
  18.4822299  88.1660001  15.4895845  19.0938361  87.8586724  16.8399053
  22.3695627  94.9692917  20.4386878  21.4518189  95.1907864  20.2808566
  22.7855771  95.0439228  19.5798585  23.1530675  96.3684333  15.5689558
  23.9002494  96.8805730  15.2596680  23.4222265  96.0468386  16.4293952
  26.6576593 102.4749463  16.3207680  26.2038920 101.6340373  16.3772871
  26.0270559 103.1110862  16.6582460  25.6009512  93.4041449  17.5508348
  24.8632269  92.8918835  17.8818590  25.8536286  92.9641831  16.7391625
  25.7021140  86.1817701  18.1450117  26.0080016  85.3215065  17.8576032
  26.4273744  86.7735321  17.9449111  19.9742219  96.4771494  18.6526308
  20.0290829  95.5245331  18.5768785  19.1633421  96.6330933  19.1367606
  23.5108791  95.5590379  25.2431581  23.8658179  95.7861852  26.1026046
  24.1580922  95.8908755  24.6208836  29.2406528  98.6808814  15.9480910
  29.1024426  98.8710410  15.0202099  28.8842747  99.4428197  16.4048961
  17.4048654  92.6666910  22.0277922  18.0448033  92.5255669  21.3300885
  16.5726185  92.3801423  21.6516524  29.2675907 100.7485341  20.9592181
  29.7012414 100.6560631  21.8075235  29.9807488 100.7242842  20.3212197
  23.0003802 104.3487436  22.4925282  23.0540825 104.9178372  23.2602998
  22.1318584 104.5189321  22.1279319  15.8802196  94.0504992  23.9749733
  16.5525249  93.8422354  23.3262382  15.0531982  93.8527078  23.5354965
  30.1291457 100.7909042  23.4925067  30.3227347 101.6954853  23.7384342
  30.0292075 100.3316461  24.3263652  21.7827768  90.6766933  25.9915394
  21.1355683  91.3756882  25.8979870  22.5528783  91.1103077  26.3591642
  25.1906566 100.9415785  29.0665947  25.0392072 100.7126337  28.1496031
  25.1811245 101.8986386  29.0797292  21.9591902  98.5147698  24.0512214
  22.8883962  98.6658857  23.8781181  21.5382932  98.6031718  23.1960860
  20.7580234 102.5398362  21.8210751  20.6191320 102.1717146  22.6936689
  19.9694830 103.0546001  21.6494709  22.3085449 101.9179965  19.2099589
  21.9735282 101.8780735  20.1057239  21.8089395 101.2524681  18.7369999
  16.2829693  97.3247595  24.7352170  16.1449491  96.5927834  25.3363709
  17.1934616  97.2356495  24.4536358  18.9111994  97.0367554  24.2235850
  19.6211612  96.3960746  24.1822468  18.8681302  97.2880449  25.1462031
  26.8998772 103.9734907  27.1442429  26.8411319 103.2894127  26.4773012
  27.3018291 104.7153897  26.6923055  17.6240928  94.0232772  26.0431489
  17.0878285  93.5723510  26.6953086  17.0357636  94.1578681  25.3001954
  26.9016180 101.9374491  25.3756409  26.0142958 101.6000413  25.4982808
  27.4714731 101.2057523  25.6125174  13.3580049  93.1588780  23.1284484
  13.2738238  92.5514449  22.3934894  12.5362755  93.6497798  23.1293980
  23.5303763  91.6442343  18.4954679  24.0272462  90.8912305  18.1755749
  22.7590744  91.6806660  17.9297888  31.3833520  97.3482709  20.1372970
  31.3723396  98.2307424  19.7666904  30.5150900  96.9954259  19.9427508
  22.8916017 106.4962778  24.4975811  23.6043989 107.1310242  24.4251712
  22.4006045 106.5926644  23.6815813  24.6133543 100.4014030  16.0693102
  23.6789822 100.5215493  15.8997807  24.7910212  99.4986497  15.8053112
  20.1138732  93.7859726  18.2226364  19.7436519  93.2330767  18.9107269
  20.6097824  93.1817860  17.6701364  28.0006095  96.2431350  16.6043137
  28.4666547  97.0759341  16.5303439  28.4513595  95.7776331  17.3088395
  17.9427930 104.2457221  25.3181382  18.6437390 104.8793704  25.4710776
  17.4723045 104.5871953  24.5577021  25.9722758  88.6111937  20.6434038
  25.0585837  88.8416163  20.8116245  26.4015859  88.6950381  21.4948070
  25.7429216  96.8001829  23.1433932  25.0900666  97.0477736  22.4886385
  26.1209596  95.9865967  22.8096409  21.7916789  97.5421640  29.6299969
  21.1157426  97.4415769  30.3002344  22.6144423  97.3860853  30.0935966
  15.5104065  91.1963717  24.4679470  15.5745392  92.0578548  24.0556867
  15.4471185  90.5837719  23.7351828  14.9856338  93.2686849  28.1152504
  15.6128377  92.8863927  28.7290028  14.1284257  93.0501051  28.4808196
  25.3850446 103.6749825  29.7206239  25.9290350 104.2879783  29.2261194
  24.8037291 104.2329403  30.2373252  23.6707959 106.7970543  20.8521267
  23.5459099 105.9960282  20.3432213  24.3287050 107.2916736  20.3635237
  15.2916127  93.1519275  20.0298407  14.5702713  93.7655243  19.8905881
  16.0809383  93.6877040  19.9515053  25.7342868 104.5979563  22.4800817
  24.7873203 104.4784914  22.4079144  26.0825641 103.7102061  22.5627079
  18.0942441  90.4873702  26.3039059  18.6176843  90.7335998  27.0665368
  17.8754774  91.3193736  25.8842196  26.3423423 105.2160838  19.7670042
  27.2669970 105.0103699  19.6294493  26.1738726 104.9677239  20.6759384
  19.2994986  91.4287397  23.9888730  18.9591806  90.6295210  24.3909410
  18.5933992  91.7289108  23.4165563  19.9511458  88.5136709  22.4416053
  20.7737527  88.0397187  22.3194943  20.1949521  89.2927193  22.9414739
  22.7350815  92.2470117  13.6737287  22.9514430  93.1294754  13.3726115
  22.2544882  91.8556330  12.9442929  17.4750037  95.2055830  20.2508031
  17.3294617  95.5196133  21.1432313  16.9975240  95.8240730  19.6978930
  19.3346419  92.1958378  20.2988921  19.3207988  91.2999471  19.9621219
  20.0518848  92.2029042  20.9327207  21.1872550  92.6295718  22.3442048
  20.9290328  93.5512789  22.3426379  20.6557591  92.2326153  23.0342512
  21.6074506  88.7627669  18.7043211  21.6296203  88.8267002  17.7495190
  22.0242565  87.9232177  18.8983717  31.9858130  98.4982928  16.7422433
  32.4289276  97.7490253  16.3441557  31.1084640  98.4893064  16.3596165
  12.7361721  96.8731070  26.0825849  11.9943457  97.0213706  26.6690480
  12.4154465  97.1339336  25.2192599  29.0185335 102.5012975  13.7516363
  29.5436659 102.8400248  13.0265683  28.9307687 101.5659990  13.5679497
  20.6805383 106.4147049  25.8806239  20.9892510 106.1696195  26.7528939
  21.4780865 106.6193687  25.3925110  18.2224395  92.5904755  29.7766424
  18.2712550  93.4666878  29.3944193  18.7646909  92.0482148  29.2038067
  28.7079241 103.1345879  29.0567561  27.9174784 103.1170018  28.5172060
  28.4712595 103.6734172  29.8116597  28.8277116  99.9838345  26.3700289
  28.8775121  99.8188353  27.3115812  28.7191039  99.1165604  25.9798170
  26.1180878  95.9669273  27.6859596  27.0190741  95.8275738  27.3943594
  26.1928853  96.1323728  28.6257773  20.4523683  93.3436128  26.5312782
  19.5826993  93.6369694  26.2595371  20.6883164  93.9276573  27.2520046
  30.3295313 102.4035287  26.6142311  30.0380121 102.7665267  27.4505772
  29.7167444 101.6902295  26.4355643  31.5290995  99.9688166  19.1344881
  32.3637886 100.4077970  19.2982441  31.6650124  99.4926820  18.3153127
  28.5782501  97.5267901  25.0822369  29.0536622  97.7195548  24.2741220
  27.6548066  97.5827087  24.8365752  23.1562717  89.5615745  24.0478203
  23.6744661  90.2976772  23.7224691  22.8017850  89.8679738  24.8824962
  23.4075311  85.9816027  19.5679099  23.6877065  85.3139216  20.1939526
  24.1925918  86.1745123  19.0553763  27.2784170  94.4033661  23.3150674
  28.2301593  94.5031759  23.3362898  27.1087620  93.6111930  23.8248759
  25.2998549  91.4889245  23.5010075  24.7048481  91.7694257  22.8056564
  25.0148246  91.9783145  24.2726816  29.7572248  97.6239781  22.4292974
  29.7248568  96.6855782  22.6152658  30.3672871  97.7023818  21.6958799
  29.9066736  94.4150824  22.4751257  29.3905785  93.6309281  22.2881186
  30.7906685  94.0869541  22.6397777  27.5677463  88.1591840  18.4347070
  27.3702284  87.8506928  19.3190402  28.1777169  88.8853479  18.5645000
  35.5748797  98.6855788  21.5699011  36.3052186  98.4241076  22.1306714
  34.9655743  97.9484510  21.6101079  33.6564095  96.8263650  22.1673462
  32.9297258  96.6919615  21.5589954  33.2411381  97.1340479  22.9730180
  21.4794271 100.5453580  29.9320835  22.3997280 100.7232179  30.1260881
  21.4443854  99.6009625  29.7800534  14.4756343  98.4554615  22.5743616
  14.6942353  99.3871723  22.5931650  14.8882117  98.0962589  23.3598420
  21.3960561  88.9622700  14.5619305  20.5861290  88.6169785  14.9374551
  22.0844978  88.6530244  15.1506916  23.3251110  88.0400747  16.1843601
  23.8782148  88.4596200  16.8433624  23.5621196  87.1136495  16.2266557
  19.3484209  94.0287821  31.9646365  19.2480936  94.9782177  31.8958456
  19.1305751  93.7006059  31.0922435  26.7029917  90.1501272  15.6922265
  26.1228586  90.8086076  15.3100318  26.4365849  89.3278617  15.2809683
  25.1533483  89.5506330  17.8943586  25.6533261  89.6622864  17.0857905
  25.7969091  89.2467383  18.5344394  19.2115479  97.4584959  30.7811427
  18.7282561  98.2585319  30.9875316  19.2976418  97.4692904  29.8278871
  15.7288198  99.9190610  25.3850658  16.5481087 100.4134689  25.4085495
  16.0025006  99.0022578  25.3568226  25.4854795  92.3101362  14.7478614
  24.5980650  92.5951013  14.5298808  25.9008784  92.1495126  13.9005891
  28.8369331  92.3347883  18.4632953  29.6129721  92.8244336  18.7357570
  28.1117465  92.7605938  18.9204822  31.2741889  93.0475503  19.5206894
  31.8686380  92.8071239  18.8100202  31.3468473  92.3282633  20.1480430
  25.4595818  97.8255898  14.9628904  25.4031020  98.2824450  14.1236536
  26.0124161  97.0646583  14.7851747  29.2700624  93.6145630  15.7879023
  29.0137559  93.2142266  16.6187231  28.6453492  94.3289424  15.6629162
  33.5812962  96.3541703  18.2950315  33.0212520  96.4234893  19.0681877
  32.9756466  96.1782688  17.5749811  10.9823113  94.2528744  26.0842855
  11.6281976  93.7427698  26.5730080  10.7740264  94.9897426  26.6586280
  23.5076505 101.3209591  31.5834996  24.3767665 101.4950244  31.2221631
  23.0283256 102.1404008  31.4610725  23.3178843  85.1111565  16.0912688
  22.5511238  84.5570052  16.2369371  23.7289548  85.1833434  16.9526840
  15.3220604  91.3996361  30.1817869  16.1852065  91.0433166  30.3921194
  14.7486014  91.0610256  30.8693274  34.7210249 110.7549671  18.0633479
  35.5073338 110.3369094  17.7123896  34.9848953 111.6595763  18.2315127
  40.1218676 110.6924904  18.9666457  40.8543848 110.1224121  19.2004286
  39.3658032 110.3046505  19.4072963  37.6444097 104.4046479  23.4261066
  37.3127421 105.2741890  23.2022281  37.0489710 104.0882763  24.1055096
  37.5372760 109.1241565  20.5054416  36.6289637 109.0556973  20.2113177
  37.4860356 109.6013510  21.3336241  31.6113626 110.5431210  28.4489313
  30.8346960 111.1025130  28.4392178  32.2504189 111.0287993  28.9704183
  39.4034406 107.3258003  22.2832290  38.7608787 107.6190536  21.6372084
  38.8989335 107.2110923  23.0885486  37.0574570 111.0721176  12.9718149
  37.9692426 111.3048563  12.7965846  36.5484217 111.6558221  12.4093227
  31.6946408 110.4318411  23.9812998  32.5407603 110.8557824  24.1247647
  31.6345045 109.7752035  24.6751561  34.8445853 108.0922779  25.6394172
  34.6006785 108.8464840  25.1028448  35.1205784 108.4708127  26.4741419
  34.4010545 107.2479212  21.2208010  33.5395024 107.5460466  21.5124747
  34.4272979 107.4649611  20.2889042  46.0036137 113.8572096  18.8378766
  45.2499845 113.2879494  18.6822771  46.1383678 113.8234760  19.7849401
  27.8802104 104.8077078  31.1747841  27.4869050 104.2543276  31.8495485
  28.6968245 105.1187656  31.5654359  30.7970065 106.2234957  28.7668098
  31.5379779 106.8242110  28.6872560  31.0287988 105.4812595  28.2086140
  34.7427228 102.2516060  23.0432379  34.3991498 103.1417701  22.9671490
  35.1106191 102.0617717  22.1801964  32.2924622 107.0874372  16.6090053
  31.4366219 106.6981222  16.4295691  32.7051574 107.1666332  15.7489838
  33.8223769 104.6220715  21.0081612  33.3188564 104.5850850  20.1949418
  34.1154376 105.5313458  21.0678269  30.0666655 104.7059445  20.0147794
  30.9319651 104.5102253  19.6553684  30.1344164 104.4769796  20.9417151
  39.6811785 114.9957025  13.4857988  38.9041228 114.6568185  13.0413150
  40.3603266 115.0009649  12.8112953  34.4963814 110.1151763  13.3764596
  34.1913950 110.4297912  14.2274739  35.4494256 110.1933183  13.4191929
  27.6728974 106.9361653  17.3864161  28.2472726 106.7136834  16.6537354
  28.2599956 107.0050347  18.1392762  36.7308551 112.8235379  18.1928538
  37.2440433 113.4565371  18.6950247  37.3809775 112.2236575  17.8271898
  29.9751641 103.8102901  16.1139230  29.3216054 103.4951919  15.4895845
  29.9332116 103.1878642  16.8399053  33.2089382 110.2984835  20.4386878
  32.2911943 110.5199782  20.2808566  33.6249525 110.3731145  19.5798585
  33.9924430 111.6976251  15.5689558  34.7396249 112.2097648  15.2596680
  34.2616019 111.3760303  16.4293952  36.4403267 108.7333367  17.5508348
  35.7026024 108.2210753  17.8818590  36.6930040 108.2933749  16.7391625
  36.5414894 101.5109619  18.1450117  36.8473771 100.6506982  17.8576032
  37.2667499 102.1027239  17.9449111  34.3502545 110.8882296  25.2431581
  34.7051933 111.1153769  26.1026046  34.9974677 111.2200673  24.6208836
  40.0800282 114.0100732  15.9480910  39.9418181 114.2002328  15.0202099
  39.7236501 114.7720115  16.4048961  28.2442408 107.9958827  22.0277922
  28.8841788 107.8547586  21.3300885  27.4119939 107.7093341  21.6516524
  26.7195950 109.3796909  23.9749733  27.3919004 109.1714272  23.3262382
  25.8925737 109.1818995  23.5354965  32.6221522 106.0058850  25.9915394
  31.9749437 106.7048800  25.8979870  33.3922538 106.4394994  26.3591642
  28.4634682 109.3524690  26.0431489  27.9272039 108.9015428  26.6953086
  27.8751391 109.4870598  25.3001954  24.1973803 108.4880697  23.1284484
  24.1131992 107.8806367  22.3934894  23.3756510 108.9789716  23.1293980
  34.3697517 106.9734261  18.4954679  34.8666217 106.2204223  18.1755749
  33.5984499 107.0098577  17.9297888  42.2227275 112.6774626  20.1372970
  42.2117151 113.5599342  19.7666904  41.3544654 112.3246177  19.9427508
  30.9532486 109.1151644  18.2226364  30.5830274 108.5622684  18.9107269
  31.4491578 108.5109777  17.6701364  38.8399849 111.5723267  16.6043137
  39.3060301 112.4051259  16.5303439  39.2907350 111.1068249  17.3088395
  36.8116512 103.9403854  20.6434038  35.8979592 104.1708081  20.8116245
  37.2409614 104.0242298  21.4948070  36.5822971 112.1293746  23.1433932
  35.9294421 112.3769654  22.4886385  36.9603350 111.3157884  22.8096409
  26.3497820 106.5255635  24.4679470  26.4139146 107.3870465  24.0556867
  26.2864940 105.9129636  23.7351828  25.8250092 108.5978767  28.1152504
  26.4522131 108.2155844  28.7290028  24.9678011 108.3792969  28.4808196
  26.1309882 108.4811193  20.0298407  25.4096468 109.0947161  19.8905881
  26.9203138 109.0168958  19.9515053  28.9336195 105.8165619  26.3039059
  29.4570597 106.0627916  27.0665368  28.7148529 106.6485654  25.8842196
  30.1388741 106.7579314  23.9888730  29.7985561 105.9587127  24.3909410
  29.4327747 107.0581025  23.4165563  30.7905212 103.8428627  22.4416053
  31.6131282 103.3689105  22.3194943  31.0343276 104.6219111  22.9414739
  33.5744570 107.5762034  13.6737287  33.7908184 108.4586672  13.3726115
  33.0938637 107.1848248  12.9442929  30.1740174 107.5250295  20.2988921
  30.1601743 106.6291389  19.9621219  30.8912602 107.5320959  20.9327207
  32.0266305 107.9587636  22.3442048  31.7684083 108.8804706  22.3426379
  31.4951345 107.5618070  23.0342512  32.4468260 104.0919586  18.7043211
  32.4689957 104.1558919  17.7495190  32.8636319 103.2524095  18.8983717
  42.8251885 113.8274846  16.7422433  43.2683031 113.0782171  16.3441557
  41.9478395 113.8184982  16.3596165  29.0618149 107.9196673  29.7766424
  29.1106305 108.7958796  29.3944193  29.6040664 107.3774066  29.2038067
  36.9574633 111.2961191  27.6859596  37.8584495 111.1567656  27.3943594
  37.0322607 111.4615646  28.6257773  31.2917438 108.6728046  26.5312782
  30.4220747 108.9661612  26.2595371  31.5276918 109.2568491  27.2520046
  42.3684749 115.2980084  19.1344881  43.2031641 115.7369888  19.2982441
  42.5043878 114.8218737  18.3153127  39.4176255 112.8559819  25.0822369
  39.8930377 113.0487465  24.2741220  38.4941821 112.9119005  24.8365752
  33.9956472 104.8907662  24.0478203  34.5138416 105.6268689  23.7224691
  33.6411605 105.1971656  24.8824962  34.2469066 101.3107945  19.5679099
  34.5270820 100.6431134  20.1939526  35.0319673 101.5037041  19.0553763
  38.1177924 109.7325579  23.3150674  39.0695347 109.8323677  23.3362898
  37.9481375 108.9403848  23.8248759  36.1392304 106.8181162  23.5010075
  35.5442236 107.0986175  22.8056564  35.8542000 107.3075063  24.2726816
  40.5966002 112.9531699  22.4292974  40.5642322 112.0147699  22.6152658
  41.2066626 113.0315735  21.6958799  40.7460491 109.7442742  22.4751257
  40.2299539 108.9601199  22.2881186  41.6300439 109.4161459  22.6397777
  38.4071217 103.4883758  18.4347070  38.2096039 103.1798846  19.3190402
  39.0170923 104.2145397  18.5645000  46.4142552 114.0147705  21.5699011
  47.1445940 113.7532994  22.1306714  45.8049497 113.2776427  21.6101079
  44.4957849 112.1555568  22.1673462  43.7691013 112.0211533  21.5589954
  44.0805136 112.4632397  22.9730180  32.2354316 104.2914618  14.5619305
  31.4255044 103.9461703  14.9374551  32.9238733 103.9822161  15.1506916
  34.1644864 103.3692665  16.1843601  34.7175903 103.7888118  16.8433624
  34.4014950 102.4428413  16.2266557  30.1877963 109.3579738  31.9646365
  30.0874690 110.3074095  31.8958456  29.9699505 109.0297977  31.0922435
  37.5423671 105.4793190  15.6922265  36.9622340 106.1377994  15.3100318
  37.2759604 104.6570534  15.2809683  35.9927238 104.8798247  17.8943586
  36.4927016 104.9914782  17.0857905  36.6362845 104.5759300  18.5344394
  36.3248549 107.6393280  14.7478614  35.4374404 107.9242931  14.5298808
  36.7402538 107.4787043  13.9005891  39.6763085 107.6639801  18.4632953
  40.4523475 108.1536254  18.7357570  38.9511219 108.0897855  18.9204822
  42.1135644 108.3767420  19.5206894  42.7080135 108.1363156  18.8100202
  42.1862228 107.6574551  20.1480430  36.2989573 113.1547816  14.9628904
  36.2424774 113.6116367  14.1236536  36.8517915 112.3938501  14.7851747
  40.1094379 108.9437548  15.7879023  39.8531313 108.5434184  16.6187231
  39.4847247 109.6581342  15.6629162  44.4206717 111.6833621  18.2950315
  43.8606275 111.7526810  19.0681877  43.8150220 111.5074606  17.5749811
  34.1572597 100.4403483  16.0912688  33.3904993  99.8861970  16.2369371
  34.5683302 100.5125352  16.9526840  26.1614358 106.7288279  30.1817869
  27.0245820 106.3725084  30.3921194  25.5879769 106.3902174  30.8693274
  47.3808649 116.8401537  18.1450117  47.6867525 115.9798900  17.8576032
  48.1061253 117.4319157  17.9449111  45.0862820 116.6399863  19.5679099
  45.3664574 115.9723052  20.1939526  45.8713427 116.8328958  19.0553763
  44.9966352 115.7695401  16.0912688  44.2298747 115.2153887  16.2369371
  45.4077057 115.8417269  16.9526840   3.7062939  50.0228112  16.4451546
   4.2502843  50.6358070  15.9506501   3.1249783  50.5807690  16.9618559
   7.0291733  49.4824166  15.7812867   6.2387277  49.4648305  15.2417367
   6.7925087  50.0212460  16.5361904   1.8288997  47.6687879  18.3080302
   2.6980157  47.8428531  17.9466937   1.3495749  48.4882296  18.1856032
  13.4881473  59.3776505   7.7125577  14.1259883  59.2583252   7.0088917
  13.3702316  60.3257349   7.7713529  10.7790962  60.4838784  13.6073307
  10.7679603  60.0891583  12.7353811  10.9411602  59.7504857  14.2007079
   7.4998223  63.2675896  12.5552491   7.2088089  64.1721527  12.4399158
   8.1355208  63.3092424  13.2696561   8.4254430  60.6452745   9.1453851
   9.0218002  60.4208767   8.4310814   8.4829402  59.9037490   9.7479299
  18.4431169  57.0403192   5.6911764  19.1756340  56.4702408   5.9249593
  17.6870524  56.6524792   6.1318269  15.9656589  50.7524766  10.1506372
  15.6339914  51.6220177   9.9267587  15.3702202  50.4361050  10.8300403
  12.4588108  62.9537312   9.5502285  12.1588831  63.8562351   9.4418092
  12.1139168  62.6869495  10.4023438   9.9326118  56.8909498  15.1734620
   9.1559452  57.4503418  15.1637484  10.5716681  57.3766281  15.6949490
  17.7246899  53.6736290   9.0077596  17.0821279  53.9668824   8.3617391
  17.2201827  53.5589211   9.8130793   8.1872490  59.6994951  14.7352587
   8.9287175  60.2379995  14.4587410   7.4809476  60.3261240  14.8924138
  13.6627830  61.8424091  13.3324748  14.0711186  61.4006502  12.5879380
  12.9405091  61.2676719  13.5858941  10.0158900  56.7796698  10.7058305
  10.8620095  57.2036112  10.8492954   9.9557538  56.1230322  11.3996868
  13.9856645  62.4025282   7.0877037  13.3565507  62.5670996   6.3853105
  13.5982307  62.8166892   7.8588001  17.8645876  63.3379720   4.4421401
  17.1796915  63.7178621   3.8918434  17.9489726  63.9475047   5.1753348
  13.1658345  54.4401067  12.3639479  12.9219277  55.1943127  11.8273754
  13.4418276  54.8186414  13.1986726  15.1196808  60.9839679  11.0416744
  15.3313703  61.6271439  10.3651125  15.0726556  60.1501995  10.5738674
   6.9233854  56.8534599  15.5367897   6.2932515  57.5350880  15.7703293
   6.8169942  56.7417681  14.5921035  16.2342636  63.8611634   9.2139102
  17.0560080  63.4591822   8.9321783  16.2305039  63.7579868  10.1655217
   9.9999239  63.4095678  11.3699812  10.0643672  63.8716085  12.2057984
   9.2910163  62.7793043  11.4982122  24.3248629  60.2050383   5.5624073
  23.5712337  59.6357781   5.4068077  24.4596170  60.1713047   6.5094708
   6.2014597  51.1555365  17.8993148   5.8081542  50.6021563  18.5740792
   7.0180737  51.4665943  18.2899665   9.1182558  52.5713244  15.4913404
   9.8592271  53.1720397  15.4117867   9.3500481  51.8290882  14.9331447
   4.2623896  57.7569611  13.7691634   4.1477411  56.8554869  14.0698733
   3.4068414  58.0033308  13.4176450  11.3415734  65.6987352  15.3679134
  10.8979588  64.9123730  15.0500039  12.0032947  65.8866502  14.7023025
  13.4396972  65.9790152  13.3960536  13.4215447  66.7999033  12.9040805
  14.3616892  65.8544227  13.6210677   9.8970026  63.4934281  14.2384044
  10.4298363  62.7322569  14.0083352   9.3684107  63.2007933  14.9808199
  16.2415584  60.8169294   6.8669902  15.5839259  61.5068555   6.9550031
  17.0455984  61.2065726   7.2103889  15.8182839  64.1519668   3.0452987
  15.3645167  63.3110578   3.1018177  15.1876806  64.7881066   3.3827767
  12.6715038  57.2360583  11.9676887  13.0264425  57.4632057  12.8271353
  13.3187169  57.5678960  11.3454143  18.4282154  62.4255546   7.6837488
  18.8618661  62.3330835   8.5320542  19.1413735  62.4013047   7.0457504
  12.1610049  66.0257640   9.2170589  12.2147071  66.5948577   9.9848304
  11.2924831  66.1959525   8.8524626  19.2897704  62.4679247  10.2170373
  19.4833594  63.3725057  10.4629648  19.1898322  62.0086666  11.0508958
  10.9434015  52.3537138  12.7160701  10.2961930  53.0527087  12.6225177
  11.7135030  52.7873281  13.0836949  14.3512812  62.6185990  15.7911254
  14.1998319  62.3896541  14.8741338  14.3417492  63.5756591  15.8042599
  11.1198149  60.1917902  10.7757520  12.0490209  60.3429062  10.6026488
  10.6989179  60.2801923   9.9206167   9.9186481  64.2168567   8.5456058
   9.7797566  63.8487351   9.4181996   9.1301077  64.7316206   8.3740016
  11.4691696  63.5950170   5.9344896  11.1341528  63.5550940   6.8302546
  10.9695641  62.9294886   5.4615306   5.4435940  59.0017800  11.4597477
   5.3055738  58.2698038  12.0609016   6.3540863  58.9126700  11.1781665
   8.0718240  58.7137759  10.9481157   8.7817859  58.0730951  10.9067775
   8.0287549  58.9650654  11.8707337  16.0605019  65.6505112  13.8687736
  16.0017565  64.9664332  13.2018319  16.4624538  66.3924102  13.4168362
   6.7847174  55.7002977  12.7676796   6.2484531  55.2493715  13.4198392
   6.1963883  55.8348886  12.0247260  16.0622426  63.6144696  12.1001715
  15.1749205  63.2770618  12.2228114  16.6320977  62.8827727  12.3370481
  20.5439767  59.0252914   6.8618277  20.5329643  59.9077629   6.4912210
  19.6757146  58.6724464   6.6672814  12.0522263  68.1732983  11.2221117
  12.7650236  68.8080447  11.1497019  11.5612292  68.2696849  10.4061119
   7.1034177  65.9227426  12.0426688   7.8043636  66.5563909  12.1956082
   6.6329292  66.2642158  11.2822327  14.9035463  58.4772034   9.8679238
  14.2506913  58.7247941   9.2131691  15.2815843  57.6636172   9.5341716
  10.9523036  59.2191845  16.3545276  10.2763673  59.1185974  17.0247651
  11.7750670  59.0631058  16.8181273   4.1462584  54.9457054  14.8397811
   4.7734623  54.5634132  15.4535335   3.2890503  54.7271256  15.2053503
  14.5456693  65.3520030  16.4451546  15.0896597  65.9649988  15.9506501
  13.9643538  65.9099608  16.9618559  12.8314206  68.4740748   7.5766574
  12.7065345  67.6730487   7.0677519  13.4893297  68.9686941   7.0880544
  14.8949114  66.2749768   9.2046124  13.9479450  66.1555119   9.1324451
  15.2431887  65.3872266   9.2872385   7.2548688  52.1643907  13.0284366
   7.7783090  52.4106203  13.7910675   7.0361021  52.9963941  12.6087503
  15.5029670  66.8931043   6.4915349  16.4276217  66.6873904   6.3539800
  15.3344973  66.6447444   7.4004690  21.1464377  60.1753133   3.4667740
  21.5895523  59.4260458   3.0686863  20.2690887  60.1663269   3.0841472
   1.8967967  58.5501275  12.8071156   1.1549703  58.6983911  13.3935786
   1.5760712  58.8109541  11.9437905   9.8411630  68.0917254  12.6051546
  10.1498756  67.8466400  13.4774246  10.6387112  68.2963892  12.1170416
   7.3830642  54.2674960  16.5011730   7.4318797  55.1437083  16.1189500
   7.9253156  53.7252353  15.9283373  17.8685487  64.8116084  15.7812867
  17.0781031  64.7940222  15.2417367  17.6318842  65.3504377  16.5361904
  17.9883362  61.6608550  13.0945596  18.0381367  61.4958557  14.0361119
  17.8797286  60.7935809  12.7043477  15.2787125  57.6439478  14.4104903
  16.1796988  57.5045943  14.1188900  15.3535099  57.8093933  15.3503080
   9.6129930  55.0206333  13.2558089   8.7433240  55.3139899  12.9840677
   9.8489411  55.6046778  13.9765352  19.4901559  64.0805491  13.3387617
  19.1986368  64.4435472  14.1751078  18.8773691  63.3672500  13.1600949
  20.6897242  61.6458371   5.8590188  21.5244133  62.0848175   6.0227748
  20.8256370  61.1697024   5.0398433  17.7388748  59.2038106  11.8067675
  18.2142869  59.3965752  10.9986527  16.8154313  59.2597292  11.5611059
  16.4390417  56.0803866  10.0395981  17.3907839  56.1801964  10.0608205
  16.2693867  55.2882135  10.5494065  14.4604796  53.1659449  10.2255382
  13.8654728  53.4464462   9.5301870  14.1754493  53.6553350  10.9972123
  18.9178494  59.3009986   9.1538281  18.8854814  58.3625987   9.3397964
  19.5279118  59.3794023   8.4204105  19.0672983  56.0921029   9.1996564
  18.5512031  55.3079486   9.0126493  19.9512931  55.7639746   9.3643083
  24.7355044  60.3625993   8.2944317  25.4658433  60.1011281   8.8552021
  24.1261990  59.6254715   8.3346385  22.8170341  58.5033855   8.8918769
  22.0903505  58.3689820   8.2835260  22.4017628  58.8110684   9.6975487
  10.6400518  62.2223785  16.6566142  11.5603527  62.4002384  16.8506188
  10.6050101  61.2779830  16.5045841   8.5090456  55.7058025  18.6891672
   8.4087182  56.6552382  18.6203763   8.2911998  55.3776264  17.8167742
   8.3721726  59.1355164  17.5056733   7.8888807  59.9355524  17.7120622
   8.4582665  59.1463109  16.5524177   4.8894445  61.5960815  12.1095965
   5.7087334  62.0904894  12.1330802   5.1631253  60.6792783  12.0813532
  22.7419209  58.0311908   5.0195621  22.1818767  58.1005098   5.7927183
  22.1362712  57.8552893   4.2995118  12.6682752  62.9979796  18.3080302
  13.5373911  63.1720449  17.9466937  12.1889503  63.8174213  18.1856032
   4.4826850  53.0766566  16.9063176   5.3458312  52.7203371  17.1166501
   3.9092261  52.7380461  17.5938580  24.3275227  74.7068422   7.7125577
  24.9653637  74.5875170   7.0088917  24.2096070  75.6549266   7.7713529
  21.1364934  74.6595850   7.6487102  20.7983445  74.5436915   6.7607637
  22.0054702  74.2587015   7.6288108  21.6184717  75.8130702  13.6073307
  21.6073357  75.4183500  12.7353811  21.7805356  75.0796775  14.2007079
  18.3391978  78.5967814  12.5552491  18.0481844  79.5013445  12.4399158
  18.9748962  78.6384342  13.2696561  19.2648185  75.9744662   9.1453851
  19.8611757  75.7500685   8.4310814  19.3223156  75.2329408   9.7479299
  23.8816496  72.4319876   4.7878785  24.6679585  72.0139299   4.4369202
  24.1455200  73.3365968   4.9560434  29.2824923  72.3695109   5.6911764
  30.0150095  71.7994326   5.9249593  28.5264279  71.9816710   6.1318269
  26.8050343  66.0816683  10.1506372  26.4733668  66.9512094   9.9267587
  26.2095957  65.7652967  10.8300403  23.2981863  78.2829229   9.5502285
  22.9982586  79.1854268   9.4418092  22.9532922  78.0161413  10.4023438
  26.6979007  70.8011770   7.2299722  25.7895884  70.7327178   6.9358483
  26.6466602  71.2783715   8.0581548  20.7719872  72.2201415  15.1734620
  19.9953207  72.7795335  15.1637484  21.4110436  72.7058198  15.6949490
  28.5640653  69.0028208   9.0077596  27.9215033  69.2960741   8.3617391
  28.0595582  68.8881128   9.8130793  26.2180817  72.7491381  -0.3036545
  27.1298673  72.9818768  -0.4788847  25.7090464  73.3328425  -0.8661466
  19.0266245  75.0286869  14.7352587  19.7680929  75.5671913  14.4587410
  18.3203230  75.6553157  14.8924138  24.5021584  77.1716009  13.3324748
  24.9104940  76.7298420  12.5879380  23.7798846  76.5968637  13.5858941
  20.8552654  72.1088616  10.7058305  21.7013850  72.5328029  10.8492954
  20.7951292  71.4522240  11.3996868  24.8250399  77.7317200   7.0877037
  24.1959262  77.8962914   6.3853105  24.4376061  78.1458809   7.8588001
  28.7039631  78.6671638   4.4421401  28.0190669  79.0470539   3.8918434
  28.7883480  79.2766964   5.1753348  24.0052100  69.7692984  12.3639479
  23.7613032  70.5235045  11.8273754  24.2812030  70.1478332  13.1986726
  25.9590563  76.3131597  11.0416744  26.1707458  76.9563356  10.3651125
  25.9120311  75.4793913  10.5738674  23.5616792  68.9249417   7.9453316
  22.7001271  69.2230671   8.2370054  23.5879226  69.1419816   7.0134349
  17.7627609  72.1826517  15.5367897  17.1326269  72.8642798  15.7703293
  17.6563696  72.0709598  14.5921035  27.0736391  79.1903552   9.2139102
  27.8953834  78.7883739   8.9321783  27.0698793  79.0871786  10.1655217
  20.8392994  78.7387595  11.3699812  20.9037426  79.2008003  12.2057984
  20.1303918  78.1084960  11.4982122  35.1642384  75.5342300   5.5624073
  34.4106092  74.9649699   5.4068077  35.2989925  75.5004965   6.5094708
  17.0408351  66.4847283  17.8993148  16.6475297  65.9313481  18.5740792
  17.8574492  66.7957861  18.2899665  19.9576312  67.9005162  15.4913404
  20.6986026  68.5012315  15.4117867  20.1894235  67.1582799  14.9331447
  15.1017650  73.0861529  13.7691634  14.9871165  72.1846786  14.0698733
  14.2462168  73.3325226  13.4176450  22.1809488  81.0279269  15.3679134
  21.7373342  80.2415648  15.0500039  22.8426702  81.2158420  14.7023025
  24.2790726  81.3082069  13.3960536  24.2609201  82.1290950  12.9040805
  25.2010646  81.1836144  13.6210677  20.7363780  78.8226199  14.2384044
  21.2692117  78.0614487  14.0083352  20.2077861  78.5299850  14.9808199
  23.9033475  63.9286265   9.7677686  23.5597745  64.8187906   9.6916796
  24.2712438  63.7387922   8.9047271  21.4530869  68.7644577   3.3335359
  20.5972465  68.3751427   3.1540998  21.8657821  68.8436537   2.4735145
  22.9830016  66.2990920   7.7326919  22.4794811  66.2621055   6.9194724
  23.2760622  67.2083663   7.7923576  19.2272901  66.3829650   6.7393101
  20.0925898  66.1872458   6.3798990  19.2950410  66.1540001   7.6662458
  28.8418032  76.6727230   0.2103294  28.0647475  76.3338390  -0.2341543
  29.5209513  76.6779854  -0.4641740  23.6570061  71.7921968   0.1009902
  23.3520197  72.1068117   0.9520045  24.6100503  71.8703388   0.1437235
  27.0809339  76.1461212   6.8669902  26.4233013  76.8360473   6.9550031
  27.8849738  76.5357644   7.2103889  16.8335221  68.6131857   4.1109468
  17.4078972  68.3907039   3.3782661  17.4206203  68.6820552   4.8638069
  25.8914798  74.5005584   4.9173844  26.4046679  75.1335576   5.4195554
  26.5416022  73.9006780   4.5517204  19.1357888  65.4873106   2.8384537
  18.4822301  65.1722124   2.2141152  19.0938362  64.8648847   3.5644360
  22.3695629  71.9755040   7.1632185  21.4518190  72.1969987   7.0053873
  22.7855772  72.0501350   6.3043892  23.1530676  73.3746456   2.2934865
  23.9002495  73.8867853   1.9841987  23.4222266  73.0530508   3.1539259
  26.6576594  79.4811586   3.0452987  26.2038921  78.6402496   3.1018177
  26.0270561  80.1172984   3.3827767  25.6009514  70.4103572   4.2753654
  24.8632270  69.8980958   4.6063897  25.8536287  69.9703953   3.4636931
  25.7021141  63.1879824   4.8695424  26.0080018  62.3277187   4.5821339
  26.4273746  63.7797444   4.6694417  19.9742221  73.4833617   5.3771615
  20.0290830  72.5307453   5.3014091  19.1633423  73.6393056   5.8612913
  23.5108792  72.5652501  11.9676887  23.8658180  72.7923974  12.8271353
  24.1580923  72.8970878  11.3454143  29.2406529  75.6870937   2.6726216
  29.1024428  75.8772533   1.7447406  28.8842748  76.4490320   3.1294268
  17.4048655  69.6729032   8.7523228  18.0448035  69.5317791   8.0546192
  16.5726186  69.3863546   8.3761830  29.2675909  77.7547464   7.6837488
  29.7012415  77.6622753   8.5320542  29.9807489  77.7304964   7.0457504
  23.0003804  81.3549558   9.2170589  23.0540826  81.9240494   9.9848304
  22.1318585  81.5251443   8.8524626  15.8802197  71.0567114  10.6995040
  16.5525250  70.8484476  10.0507689  15.0531984  70.8589200  10.2600272
  30.1291458  77.7971165  10.2170373  30.3227348  78.7016975  10.4629648
  30.0292076  77.3378584  11.0508958  21.7827769  67.6829055  12.7160701
  21.1355684  68.3819005  12.6225177  22.5528784  68.1165199  13.0836949
  25.1906567  77.9477907  15.7911254  25.0392073  77.7188459  14.8741338
  25.1811246  78.9048509  15.8042599  21.9591903  75.5209820  10.7757520
  22.8883963  75.6720980  10.6026488  21.5382933  75.6093841   9.9206167
  20.7580235  79.5460485   8.5456058  20.6191321  79.1779269   9.4181996
  19.9694831  80.0608124   8.3740016  22.3085450  78.9242087   5.9344896
  21.9735283  78.8842857   6.8302546  21.8089396  78.2586803   5.4615306
  16.2829694  74.3309717  11.4597477  16.1449492  73.5989956  12.0609016
  17.1934618  74.2418617  11.1781665  18.9111995  74.0429677  10.9481157
  19.6211613  73.4022869  10.9067775  18.8681303  74.2942571  11.8707337
  26.8998774  80.9797030  13.8687736  26.8411320  80.2956250  13.2018319
  27.3018292  81.7216020  13.4168362  17.6240929  71.0294895  12.7676796
  17.0878286  70.5785633  13.4198392  17.0357637  71.1640803  12.0247260
  26.9016181  78.9436614  12.1001715  26.0142960  78.6062536  12.2228114
  27.4714732  78.2119645  12.3370481  13.3580050  70.1650902   9.8529791
  13.2738239  69.5576572   9.1180200  12.5362757  70.6559921   9.8539287
  23.5303764  68.6504466   5.2199986  24.0272464  67.8974428   4.9001056
  22.7590746  68.6868782   4.6543195  31.3833521  74.3544831   6.8618277
  31.3723398  75.2369547   6.4912210  30.5150901  74.0016382   6.6672814
  22.8916018  83.5024900  11.2221117  23.6043990  84.1372365  11.1497019
  22.4006046  83.5988766  10.4061119  24.6133545  77.4076153   2.7938409
  23.6789823  77.5277615   2.6243113  24.7910213  76.5048620   2.5298419
  20.1138733  70.7921849   4.9471670  19.7436520  70.2392889   5.6352576
  20.6097825  70.1879982   4.3946670  28.0006096  73.2493472   3.3288443
  28.4666548  74.0821464   3.2548746  28.4513597  72.7838454   4.0333702
  17.9427931  81.2519344  12.0426688  18.6437391  81.8855827  12.1956082
  17.4723046  81.5934075  11.2822327  25.9722759  65.6174059   7.3679344
  25.0585839  65.8478286   7.5361551  26.4015860  65.7012503   8.2193377
  25.7429217  73.8063951   9.8679238  25.0900668  74.0539859   9.2131691
  26.1209597  72.9928089   9.5341716  21.7916790  74.5483762  16.3545276
  21.1157427  74.4477892  17.0247651  22.6144424  74.3922976  16.8181273
  15.5104066  68.2025840  11.1924776  15.5745393  69.0640670  10.7802174
  15.4471187  67.5899841  10.4597135  14.9856339  70.2748972  14.8397811
  15.6128378  69.8926049  15.4535335  14.1284258  70.0563174  15.2053503
  25.3850448  80.6811947  16.4451546  25.9290352  81.2941905  15.9506501
  24.8037292  81.2391526  16.9618559  23.6707960  83.8032665   7.5766574
  23.5459100  83.0022405   7.0677519  24.3287052  84.2978859   7.0880544
  15.2916129  70.1581398   6.7543714  14.5702714  70.7717365   6.6151187
  16.0809384  70.6939163   6.6760360  25.7342869  81.6041685   9.2046124
  24.7873204  81.4847036   9.1324451  26.0825642  80.7164183   9.2872385
  18.0942442  67.4935824  13.0284366  18.6176844  67.7398121  13.7910675
  17.8754776  68.3255859  12.6087503  26.3423424  82.2222960   6.4915349
  27.2669971  82.0165822   6.3539800  26.1738727  81.9739361   7.4004690
  19.2994987  68.4349519  10.7134036  18.9591808  67.6357332  11.1154716
  18.5933994  68.7351230  10.1410869  19.9511459  65.5198832   9.1661359
  20.7737528  65.0459310   9.0440250  20.1949523  66.2989316   9.6660046
  22.7350816  69.2532239   0.3982593  22.9514431  70.1356877   0.0971421
  22.2544884  68.8618453  -0.3311765  17.4750038  72.2117952   6.9753338
  17.3294619  72.5258255   7.8677619  16.9975241  72.8302853   6.4224237
  19.3346421  69.2020500   7.0234227  19.3207989  68.3061594   6.6866525
  20.0518849  69.2091164   7.6572513  21.1872551  69.6357841   9.0687355
  20.9290329  70.5574911   9.0671685  20.6557592  69.2388275   9.7587819
  21.6074507  65.7689791   5.4288517  21.6296204  65.8329124   4.4740497
  22.0242566  64.9294300   5.6229024  31.9858131  75.5045051   3.4667740
  32.4289277  74.7552376   3.0686863  31.1084642  75.4955187   3.0841472
  12.7361722  73.8793193  12.8071156  11.9943458  74.0275828  13.3935786
  12.4154466  74.1401459  11.9437905  29.0185336  79.5075098   0.4761669
  29.5436660  79.8462370  -0.2489011  28.9307688  78.5722113   0.2924804
  20.6805385  83.4209171  12.6051546  20.9892511  83.1758318  13.4774246
  21.4780867  83.6255810  12.1170416  18.2224396  69.5966878  16.5011730
  18.2712552  70.4729001  16.1189500  18.7646910  69.0544271  15.9283373
  28.7079242  80.1408001  15.7812867  27.9174786  80.1232140  15.2417367
  28.4712596  80.6796295  16.5361904  28.8277117  76.9900468  13.0945596
  28.8775122  76.8250475  14.0361119  28.7191040  76.1227727  12.7043477
  26.1180879  72.9731396  14.4104903  27.0190742  72.8337861  14.1188900
  26.1928854  73.1385851  15.3503080  20.4523685  70.3498250  13.2558089
  19.5826994  70.6431816  12.9840677  20.6883165  70.9338695  13.9765352
  30.3295314  79.4097409  13.3387617  30.0380122  79.7727390  14.1751078
  29.7167445  78.6964417  13.1600949  31.5290996  76.9750289   5.8590188
  32.3637887  77.4140093   6.0227748  31.6650125  76.4988942   5.0398433
  28.5782502  74.5330024  11.8067675  29.0536624  74.7257670  10.9986527
  27.6548067  74.5889210  11.5611059  23.1562718  66.5677867  10.7723509
  23.6744662  67.3038894  10.4469998  22.8017851  66.8741861  11.6070268
  23.4075313  62.9878150   6.2924406  23.6877066  62.3201339   6.9184832
  24.1925920  63.1807246   5.7799070  27.2784171  71.4095784  10.0395981
  28.2301594  71.5093882  10.0608205  27.1087621  70.6174052  10.5494065
  25.2998550  68.4951367  10.2255382  24.7048483  68.7756380   9.5301870
  25.0148247  68.9845268  10.9972123  29.7572249  74.6301904   9.1538281
  29.7248569  73.6917904   9.3397964  30.3672872  74.7085940   8.4204105
  29.9066737  71.4212947   9.1996564  29.3905786  70.6371404   9.0126493
  30.7906686  71.0931664   9.3643083  27.5677464  65.1653963   5.1592376
  27.3702285  64.8569051   6.0435708  28.1777170  65.8915601   5.2890306
  35.5748799  75.6917910   8.2944317  36.3052187  75.4303199   8.8552021
  34.9655744  74.9546632   8.3346385  33.6564096  73.8325773   8.8918769
  32.9297259  73.6981738   8.2835260  33.2411383  74.1402602   9.6975487
  21.4794272  77.5515703  16.6566142  22.3997282  77.7294302  16.8506188
  21.4443855  76.6071748  16.5045841  14.4756345  75.4616737   9.2988923
  14.6942355  76.3933845   9.3176957  14.8882119  75.1024712  10.0843727
  21.3960563  65.9684823   1.2864611  20.5861291  65.6231908   1.6619857
  22.0844979  65.6592366   1.8752223  23.3251111  65.0462869   2.9088908
  23.8782149  65.4658323   3.5678931  23.5621197  64.1198618   2.9511864
  19.3484210  71.0349943  18.6891672  19.2480937  71.9844300  18.6203763
  19.1305752  70.7068182  17.8167742  26.7029918  67.1563395   2.4167572
  26.1228587  67.8148199   2.0345624  26.4365851  66.3340739   2.0054990
  25.1533484  66.5568452   4.6188892  25.6533263  66.6684987   3.8103211
  25.7969092  66.2529505   5.2589701  19.2115480  74.4647082  17.5056733
  18.7282562  75.2647442  17.7120622  19.2976419  74.4755027  16.5524177
  15.7288200  76.9252733  12.1095965  16.5481089  77.4196811  12.1330802
  16.0025007  76.0084701  12.0813532  25.4854796  69.3163485   1.4723920
  24.5980651  69.6013136   1.2544115  25.9008785  69.1557248   0.6251197
  28.8369332  69.3410006   5.1878260  29.6129722  69.8306458   5.4602876
  28.1117466  69.7668060   5.6450129  31.2741891  70.0537625   6.2452200
  31.8686381  69.8133361   5.5345508  31.3468474  69.3344756   6.8725736
  25.4595820  74.8318021   1.6874210  25.4031021  75.2886572   0.8481843
  26.0124162  74.0708706   1.5097053  29.2700626  70.6207753   2.5124330
  29.0137560  70.2204388   3.3432538  28.6453494  71.3351547   2.3874469
  33.5812963  73.3603826   5.0195621  33.0212521  73.4297015   5.7927183
  32.9756467  73.1844811   4.2995118  10.9823114  71.2590867  12.8088162
  11.6281978  70.7489821  13.2975387  10.7740265  71.9959548  13.3831587
  23.5076506  78.3271714  18.3080302  24.3767666  78.5012366  17.9466937
  23.0283258  79.1466131  18.1856032  23.3178844  62.1173688   2.8157995
  22.5511240  61.5632175   2.9614677  23.7289549  62.1895557   3.6772146
  15.3220605  68.4058484  16.9063176  16.1852067  68.0495288  17.1166501
  14.7486016  68.0672378  17.5938580  35.1668982  90.0360340   7.7125577
  35.8047392  89.9167087   7.0088917  35.0489825  90.9841184   7.7713529
  31.9758688  89.9887768   7.6487102  31.6377200  89.8728833   6.7607637
  32.8448456  89.5878933   7.6288108  32.4578471  91.1422620  13.6073307
  32.4467112  90.7475418  12.7353811  32.6199111  90.4088692  14.2007079
  29.1785732  93.9259732  12.5552491  28.8875598  94.8305362  12.4399158
  29.8142717  93.9676259  13.2696561  30.1041939  91.3036580   9.1453851
  30.7005511  91.0792603   8.4310814  30.1616911  90.5621326   9.7479299
  34.7210250  87.7611794   4.7878785  35.5073340  87.3431217   4.4369202
  34.9848955  88.6657886   4.9560434  40.1218678  87.6987027   5.6911764
  40.8543849  87.1286244   5.9249593  39.3658033  87.3108627   6.1318269
  37.6444098  81.4108601  10.1506372  37.3127423  82.2804012   9.9267587
  37.0489711  81.0944885  10.8300403  34.1375617  93.6121147   9.5502285
  33.8376340  94.5146186   9.4418092  33.7926677  93.3453330  10.4023438
  37.5372761  86.1303687   7.2299722  36.6289639  86.0619096   6.9358483
  37.4860357  86.6075632   8.0581548  31.6113627  87.5493333  15.1734620
  30.8346961  88.1087253  15.1637484  32.2504190  88.0350116  15.6949490
  39.4034408  84.3320126   9.0077596  38.7608788  84.6252659   8.3617391
  38.8989336  84.2173046   9.8130793  37.0574571  88.0783299  -0.3036545
  37.9692427  88.3110686  -0.4788847  36.5484218  88.6620343  -0.8661466
  29.8659999  90.3578786  14.7352587  30.6074684  90.8963830  14.4587410
  29.1596985  90.9845075  14.8924138  35.3415339  92.5007927  13.3324748
  35.7498695  92.0590337  12.5879380  34.6192600  91.9260554  13.5858941
  31.6946409  87.4380533  10.7058305  32.5407604  87.8619947  10.8492954
  31.6345047  86.7814158  11.3996868  35.6644154  93.0609117   7.0877037
  35.0353016  93.2254831   6.3853105  35.2769816  93.4750727   7.8588001
  39.5433385  93.9963555   4.4421401  38.8584424  94.3762457   3.8918434
  39.6277235  94.6058882   5.1753348  34.8445854  85.0984902  12.3639479
  34.6006786  85.8526962  11.8273754  35.1205785  85.4770249  13.1986726
  36.7984317  91.6423514  11.0416744  37.0101212  92.2855274  10.3651125
  36.7514065  90.8085831  10.5738674  34.4010546  84.2541335   7.9453316
  33.5395025  84.5522588   8.2370054  34.4272981  84.4711734   7.0134349
  28.6021363  87.5118434  15.5367897  27.9720024  88.1934715  15.7703293
  28.4957451  87.4001516  14.5921035  37.9130145  94.5195470   9.2139102
  38.7347589  94.1175657   8.9321783  37.9092548  94.4163704  10.1655217
  31.6786748  94.0679513  11.3699812  31.7431181  94.5299920  12.2057984
  30.9697672  93.4376878  11.4982122  46.0036138  90.8634218   5.5624073
  45.2499846  90.2941616   5.4068077  46.1383679  90.8296883   6.5094708
  27.8802106  81.8139200  17.8993148  27.4869051  81.2605399  18.5740792
  28.6968246  82.1249779  18.2899665  30.7970067  83.2297079  15.4913404
  31.5379780  83.8304233  15.4117867  31.0287990  82.4874717  14.9331447
  25.9411405  88.4153447  13.7691634  25.8264920  87.5138704  14.0698733
  25.0855922  88.6617143  13.4176450  33.0203242  96.3571187  15.3679134
  32.5767097  95.5707566  15.0500039  33.6820456  96.5450337  14.7023025
  35.1184481  96.6373987  13.3960536  35.1002956  97.4582868  12.9040805
  36.0404401  96.5128062  13.6210677  31.5757535  94.1518116  14.2384044
  32.1085872  93.3906405  14.0083352  31.0471616  93.8591768  14.9808199
  34.7427230  79.2578182   9.7677686  34.3991499  80.1479824   9.6916796
  35.1106192  79.0679840   8.9047271  32.2924623  84.0936494   3.3335359
  31.4366220  83.7043345   3.1540998  32.7051575  84.1728455   2.4735145
  33.8223770  81.6282837   7.7326919  33.3188566  81.5912973   6.9194724
  34.1154377  82.5375580   7.7923576  30.0666656  81.7121567   6.7393101
  30.9319653  81.5164376   6.3798990  30.1344165  81.4831919   7.6662458
  39.6811787  92.0019148   0.2103294  38.9041229  91.6630308  -0.2341543
  40.3603268  92.0071771  -0.4641740  34.4963816  87.1213886   0.1009902
  34.1913951  87.4360035   0.9520045  35.4494258  87.1995305   0.1437235
  37.9203093  91.4753129   6.8669902  37.2626768  92.1652391   6.9550031
  38.7243493  91.8649561   7.2103889  27.6728975  83.9423775   4.1109468
  28.2472727  83.7198957   3.3782661  28.2599957  84.0112470   4.8638069
  36.7308552  89.8297502   4.9173844  37.2440434  90.4627494   5.4195554
  37.3809776  89.2298698   4.5517204  29.9751643  80.8165024   2.8384537
  29.3216055  80.5014041   2.2141152  29.9332117  80.1940764   3.5644360
  33.2089383  87.3046958   7.1632185  32.2911944  87.5261905   7.0053873
  33.6249527  87.3793268   6.3043892  33.9924431  88.7038373   2.2934865
  34.7396250  89.2159770   1.9841987  34.2616020  88.3822426   3.1539259
  37.4970348  94.8103503   3.0452987  37.0432676  93.9694413   3.1018177
  36.8664315  95.4464902   3.3827767  36.4403268  85.7395489   4.2753654
  35.7026025  85.2272876   4.6063897  36.6930042  85.2995871   3.4636931
  36.5414895  78.5171742   4.8695424  36.8473772  77.6569105   4.5821339
  37.2667500  79.1089362   4.6694417  30.8135975  88.8125535   5.3771615
  30.8684585  87.8599371   5.3014091  30.0027177  88.9684974   5.8612913
  34.3502547  87.8944419  11.9676887  34.7051934  88.1215892  12.8271353
  34.9974678  88.2262796  11.3454143  40.0800284  91.0162855   2.6726216
  39.9418182  91.2064451   1.7447406  39.7236502  91.7782237   3.1294268
  28.2442410  85.0020950   8.7523228  28.8841789  84.8609709   8.0546192
  27.4119940  84.7155463   8.3761830  40.1069663  93.0839382   7.6837488
  40.5406170  92.9914671   8.5320542  40.8201244  93.0596882   7.0457504
  33.8397558  96.6841476   9.2170589  33.8934580  97.2532412   9.9848304
  32.9712339  96.8543361   8.8524626  26.7195952  86.3859032  10.6995040
  27.3919005  86.1776394  10.0507689  25.8925738  86.1881118  10.2600272
  40.9685213  93.1263082  10.2170373  41.1621103  94.0308893  10.4629648
  40.8685831  92.6670501  11.0508958  32.6221524  83.0120973  12.7160701
  31.9749439  83.7110923  12.6225177  33.3922539  83.4457117  13.0836949
  36.0300321  93.2769825  15.7911254  35.8785828  93.0480377  14.8741338
  36.0205001  94.2340427  15.8042599  32.7985658  90.8501738  10.7757520
  33.7277718  91.0012897  10.6026488  32.3776688  90.9385759   9.9206167
  31.5973990  94.8752402   8.5456058  31.4585075  94.5071187   9.4181996
  30.8088586  95.3900042   8.3740016  33.1479205  94.2534005   5.9344896
  32.8129037  94.2134775   6.8302546  32.6483150  93.5878721   5.4615306
  27.1223449  89.6601635  11.4597477  26.9843247  88.9281874  12.0609016
  28.0328372  89.5710535  11.1781665  29.7505749  89.3721594  10.9481157
  30.4605368  88.7314786  10.9067775  29.7075058  89.6234489  11.8707337
  37.7392528  96.3088948  13.8687736  37.6805074  95.6248168  13.2018319
  38.1412046  97.0507938  13.4168362  28.4634683  86.3586812  12.7676796
  27.9272040  85.9077551  13.4198392  27.8751392  86.4932721  12.0247260
  37.7409935  94.2728532  12.1001715  36.8536714  93.9354453  12.2228114
  38.3108486  93.5411563  12.3370481  24.1973805  85.4942820   9.8529791
  24.1131993  84.8868489   9.1180200  23.3756511  85.9851838   9.8539287
  34.3697519  83.9796383   5.2199986  34.8666218  83.2266346   4.9001056
  33.5984500  84.0160700   4.6543195  42.2227276  89.6836749   6.8618277
  42.2117152  90.5661464   6.4912210  41.3544655  89.3308300   6.6672814
  33.7309772  98.8316818  11.2221117  34.4437744  99.4664283  11.1497019
  33.2399801  98.9280684  10.4061119  35.4527299  92.7368071   2.7938409
  34.5183578  92.8569533   2.6243113  35.6303968  91.8340537   2.5298419
  30.9532487  86.1213766   4.9471670  30.5830275  85.5684807   5.6352576
  31.4491580  85.5171900   4.3946670  38.8399851  88.5785390   3.3288443
  39.3060303  89.4113381   3.2548746  39.2907351  88.1130371   4.0333702
  28.7821686  96.5811261  12.0426688  29.4831145  97.2147744  12.1956082
  28.3116801  96.9225993  11.2822327  36.8116513  80.9465977   7.3679344
  35.8979593  81.1770204   7.5361551  37.2409615  81.0304421   8.2193377
  36.5822972  89.1355869   9.8679238  35.9294422  89.3831776   9.2131691
  36.9603352  88.3220007   9.5341716  32.6310545  89.8775680  16.3545276
  31.9551182  89.7769809  17.0247651  33.4538179  89.7214894  16.8181273
  26.3497821  83.5317757  11.1924776  26.4139147  84.3932588  10.7802174
  26.2864941  82.9191759  10.4597135  25.8250093  85.6040890  14.8397811
  26.4522132  85.2217967  15.4535335  24.9678012  85.3855092  15.2053503
  36.2244202  96.0103865  16.4451546  36.7684106  96.6233823  15.9506501
  35.6431047  96.5683443  16.9618559  34.5101715  99.1324583   7.5766574
  34.3852854  98.3314323   7.0677519  35.1680806  99.6270776   7.0880544
  26.1309883  85.4873315   6.7543714  25.4096469  86.1009283   6.6151187
  26.9203139  86.0231080   6.6760360  36.5736623  96.9333603   9.2046124
  35.6266959  96.8138954   9.1324451  36.9219396  96.0456101   9.2872385
  28.9336197  82.8227742  13.0284366  29.4570599  83.0690038  13.7910675
  28.7148530  83.6547777  12.6087503  37.1817178  97.5514878   6.4915349
  38.1063726  97.3457739   6.3539800  37.0132482  97.3031279   7.4004690
  30.1388742  83.7641437  10.7134036  29.7985562  82.9649250  11.1154716
  29.4327748  84.0643148  10.1410869  30.7905214  80.8490749   9.1661359
  31.6131283  80.3751228   9.0440250  31.0343277  81.6281233   9.6660046
  33.5744571  84.5824157   0.3982593  33.7908185  85.4648795   0.0971421
  33.0938638  84.1910370  -0.3311765  28.3143792  87.5409870   6.9753338
  28.1688373  87.8550173   7.8677619  27.8368996  88.1594770   6.4224237
  30.1740175  84.5312418   7.0234227  30.1601744  83.6353511   6.6866525
  30.8912603  84.5383082   7.6572513  32.0266306  84.9649758   9.0687355
  31.7684084  85.8866829   9.0671685  31.4951346  84.5680193   9.7587819
  32.4468262  81.0981709   5.4288517  32.4689958  81.1621042   4.4740497
  32.8636321  80.2586217   5.6229024  42.8251886  90.8336968   3.4667740
  43.2683032  90.0844294   3.0686863  41.9478396  90.8247105   3.0841472
  23.5755476  89.2085111  12.8071156  22.8337212  89.3567746  13.3935786
  23.2548221  89.4693376  11.9437905  31.5199139  98.7501089  12.6051546
  31.8286265  98.5050236  13.4774246  32.3174621  98.9547727  12.1170416
  29.0618151  84.9258796  16.5011730  29.1106306  85.8020919  16.1189500
  29.6040665  84.3836189  15.9283373  39.5472996  95.4699919  15.7812867
  38.7568540  95.4524058  15.2417367  39.3106351  96.0088213  16.5361904
  39.6670871  92.3192385  13.0945596  39.7168876  92.1542393  14.0361119
  39.5584795  91.4519644  12.7043477  36.9574634  88.3023313  14.4104903
  37.8584497  88.1629778  14.1188900  37.0322608  88.4677768  15.3503080
  31.2917439  85.6790168  13.2558089  30.4220749  85.9723734  12.9840677
  31.5276920  86.2630613  13.9765352  41.1689068  94.7389327  13.3387617
  40.8773877  95.1019307  14.1751078  40.5561200  94.0256335  13.1600949
  42.3684751  92.3042207   5.8590188  43.2031642  92.7432011   6.0227748
  42.5043879  91.8280860   5.0398433  39.4176257  89.8621941  11.8067675
  39.8930378  90.0549588  10.9986527  38.4941822  89.9181127  11.5611059
  33.9956473  81.8969785  10.7723509  34.5138417  82.6330812  10.4469998
  33.6411606  82.2033778  11.6070268  34.2469067  78.3170068   6.2924406
  34.5270821  77.6493257   6.9184832  35.0319674  78.5099163   5.7799070
  38.1177926  86.7387702  10.0395981  39.0695348  86.8385799  10.0608205
  37.9481376  85.9465970  10.5494065  36.1392305  83.8243285  10.2255382
  35.5442237  84.1048297   9.5301870  35.8542002  84.3137186  10.9972123
  40.5966003  89.9593821   9.1538281  40.5642323  89.0209822   9.3397964
  41.2066627  90.0377858   8.4204105  40.7460492  86.7504865   9.1996564
  40.2299540  85.9663321   9.0126493  41.6300440  86.4223581   9.3643083
  38.4071219  80.4945880   5.1592376  38.2096040  80.1860968   6.0435708
  39.0170924  81.2207519   5.2890306  46.4142553  91.0209828   8.2944317
  47.1445942  90.7595116   8.8552021  45.8049499  90.2838550   8.3346385
  44.4957850  89.1617691   8.8918769  43.7691014  89.0273656   8.2835260
  44.0805137  89.4694519   9.6975487  32.3188027  92.8807620  16.6566142
  33.2391036  93.0586219  16.8506188  32.2837610  91.9363666  16.5045841
  25.3150099  90.7908655   9.2988923  25.5336109  91.7225763   9.3176957
  25.7275873  90.4316629  10.0843727  32.2354317  81.2976740   1.2864611
  31.4255045  80.9523825   1.6619857  32.9238734  80.9884284   1.8752223
  34.1644865  80.3754787   2.9088908  34.7175904  80.7950241   3.5678931
  34.4014952  79.4490535   2.9511864  30.1877965  86.3641861  18.6891672
  30.0874691  87.3136218  18.6203763  29.9699507  86.0360100  17.8167742
  37.5423672  82.4855312   2.4167572  36.9622341  83.1440116   2.0345624
  37.2759605  81.6632657   2.0054990  35.9927239  81.8860370   4.6188892
  36.4927017  81.9976905   3.8103211  36.6362847  81.5821423   5.2589701
  30.0509235  89.7939000  17.5056733  29.5676316  90.5939360  17.7120622
  30.1370174  89.8046944  16.5524177  26.5681954  92.2544650  12.1095965
  27.3874843  92.7488729  12.1330802  26.8418762  91.3376619  12.0813532
  36.3248550  84.6455403   1.4723920  35.4374405  84.9305053   1.2544115
  36.7402539  84.4849166   0.6251197  39.6763087  84.6701924   5.1878260
  40.4523477  85.1598376   5.4602876  38.9511221  85.0959978   5.6450129
  42.1135645  85.3829543   6.2452200  42.7080136  85.1425279   5.5345508
  42.1862229  84.6636673   6.8725736  36.2989574  90.1609939   1.6874210
  36.2424776  90.6178490   0.8481843  36.8517917  89.4000623   1.5097053
  40.1094380  85.9499670   2.5124330  39.8531314  85.5496306   3.3432538
  39.4847248  86.6643464   2.3874469  44.4206718  88.6895744   5.0195621
  43.8606276  88.7588933   5.7927183  43.8150221  88.5136728   4.2995118
  21.8216868  86.5882784  12.8088162  22.4675732  86.0781738  13.2975387
  21.6134020  87.3251466  13.3831587  34.3470261  93.6563632  18.3080302
  35.2161420  93.8304284  17.9466937  33.8677012  94.4758049  18.1856032
  34.1572598  77.4465605   2.8157995  33.3904994  76.8924092   2.9614677
  34.5683303  77.5187474   3.6772146  26.1614359  83.7350401  16.9063176
  27.0245821  83.3787206  17.1166501  25.5879770  83.3964296  17.5938580
  42.8152443 105.3179686   7.6487102  42.4770954 105.2020750   6.7607637
  43.6842211 104.9170851   7.6288108  43.2972226 106.4714537  13.6073307
  43.2860866 106.0767336  12.7353811  43.4592865 105.7380610  14.2007079
  40.0179487 109.2551649  12.5552491  39.7269353 110.1597280  12.4399158
  40.6536471 109.2968177  13.2696561  40.9435694 106.6328498   9.1453851
  41.5399266 106.4084520   8.4310814  41.0010665 105.8913243   9.7479299
  48.4837852  96.7400519  10.1506372  48.1521177  97.6095930   9.9267587
  47.8883466  96.4236803  10.8300403  48.3766516 101.4595605   7.2299722
  47.4683393 101.3911013   6.9358483  48.3254111 101.9367550   8.0581548
  42.4507381 102.8785251  15.1734620  41.6740716 103.4379171  15.1637484
  43.0897945 103.3642034  15.6949490  50.2428162  99.6612043   9.0077596
  49.6002542  99.9544577   8.3617391  49.7383091  99.5464964   9.8130793
  40.7053754 105.6870704  14.7352587  41.4468438 106.2255748  14.4587410
  39.9990739 106.3136993  14.8924138  46.1809093 107.8299844  13.3324748
  46.5892449 107.3882255  12.5879380  45.4586355 107.2552472  13.5858941
  42.5340163 102.7672451  10.7058305  43.3801359 103.1911865  10.8492954
  42.4738801 102.1106075  11.3996868  45.6839609 100.4276820  12.3639479
  45.4400541 101.1818880  11.8273754  45.9599539 100.8062167  13.1986726
  47.6378072 106.9715432  11.0416744  47.8494967 107.6147192  10.3651125
  47.5907820 106.1377748  10.5738674  45.2404301  99.5833253   7.9453316
  44.3788780  99.8814506   8.2370054  45.2666735  99.8003651   7.0134349
  39.4415118 102.8410352  15.5367897  38.8113778 103.5226633  15.7703293
  39.3351205 102.7293434  14.5921035  42.5180503 109.3971431  11.3699812
  42.5824935 109.8591838  12.2057984  41.8091427 108.7668796  11.4982122
  38.7195860  97.1431118  17.8993148  38.3262806  96.5897317  18.5740792
  39.5362001  97.4541696  18.2899665  41.6363821  98.5588997  15.4913404
  42.3773535  99.1596150  15.4117867  41.8681744  97.8166635  14.9331447
  36.7805159 103.7445364  13.7691634  36.6658674 102.8430622  14.0698733
  35.9249677 103.9909061  13.4176450  43.8596997 111.6863105  15.3679134
  43.4160851 110.8999483  15.0500039  44.5214211 111.8742255  14.7023025
  45.9578235 111.9665905  13.3960536  45.9396710 112.7874786  12.9040805
  46.8798155 111.8419980  13.6210677  42.4151289 109.4810034  14.2384044
  42.9479626 108.7198322  14.0083352  41.8865370 109.1883686  14.9808199
  45.5820984  94.5870100   9.7677686  45.2385254  95.4771742   9.6916796
  45.9499947  94.3971758   8.9047271  44.6617525  96.9574755   7.7326919
  44.1582320  96.9204890   6.9194724  44.9548131  97.8667498   7.7923576
  40.9060410  97.0413485   6.7393101  41.7713407  96.8456294   6.3798990
  40.9737919  96.8123837   7.6662458  38.5122730  99.2715693   4.1109468
  39.0866481  99.0490874   3.3782661  39.0993712  99.3404387   4.8638069
  40.8145397  96.1456942   2.8384537  40.1609810  95.8305959   2.2141152
  40.7725871  95.5232682   3.5644360  44.0483138 102.6338875   7.1632185
  43.1305699 102.8553822   7.0053873  44.4643281 102.7085186   6.3043892
  47.3808650  93.8463659   4.8695424  47.6867527  92.9861023   4.5821339
  48.1061255  94.4381279   4.6694417  45.1896301 103.2236336  11.9676887
  45.5445689 103.4507810  12.8271353  45.8368432 103.5554713  11.3454143
  39.0836164 100.3312868   8.7523228  39.7235544 100.1901627   8.0546192
  38.2513695 100.0447381   8.3761830  37.5589706 101.7150950  10.6995040
  38.2312759 101.5068312  10.0507689  36.7319493 101.5173036  10.2600272
  43.4615278  98.3412891  12.7160701  42.8143193  99.0402840  12.6225177
  44.2316293  98.7749035  13.0836949  46.8694076 108.6061743  15.7911254
  46.7179582 108.3772294  14.8741338  46.8598755 109.5632344  15.8042599
  43.6379412 106.1793656  10.7757520  44.5671472 106.3304815  10.6026488
  43.2170442 106.2677676   9.9206167  37.9617203 104.9893553  11.4597477
  37.8237001 104.2573791  12.0609016  38.8722127 104.9002453  11.1781665
  40.5899504 104.7013512  10.9481157  41.2999122 104.0606704  10.9067775
  40.5468812 104.9526407  11.8707337  39.3028438 101.6878730  12.7676796
  38.7665795 101.2369468  13.4198392  38.7145146 101.8224639  12.0247260
  48.5803690 109.6020449  12.1001715  47.6930469 109.2646371  12.2228114
  49.1502241 108.8703480  12.3370481  35.0367559 100.8234738   9.8529791
  34.9525748 100.2160407   9.1180200  34.2150266 101.3143756   9.8539287
  45.2091273  99.3088301   5.2199986  45.7059973  98.5558263   4.9001056
  44.4378255  99.3452618   4.6543195  41.7926242 101.4505684   4.9471670
  41.4224029 100.8976724   5.6352576  42.2885334 100.8463818   4.3946670
  39.6215440 111.9103179  12.0426688  40.3224900 112.5439662  12.1956082
  39.1510555 112.2517911  11.2822327  47.6510268  96.2757895   7.3679344
  46.7373348  96.5062121   7.5361551  48.0803369  96.3596339   8.2193377
  47.4216726 104.4647787   9.8679238  46.7688177 104.7123694   9.2131691
  47.7997106 103.6511925   9.5341716  43.4704299 105.2067598  16.3545276
  42.7944936 105.1061727  17.0247651  44.2931933 105.0506811  16.8181273
  37.1891575  98.8609675  11.1924776  37.2532902  99.7224506  10.7802174
  37.1258696  98.2483677  10.4597135  36.6643848 100.9332807  14.8397811
  37.2915887 100.5509885  15.4535335  35.8071767 100.7147009  15.2053503
  47.0637957 111.3395783  16.4451546  47.6077860 111.9525741  15.9506501
  46.4824801 111.8975361  16.9618559  36.9703638 100.8165233   6.7543714
  36.2490223 101.4301201   6.6151187  37.7596893 101.3522998   6.6760360
  39.7729951  98.1519660  13.0284366  40.2964353  98.3981956  13.7910675
  39.5542284  98.9839694  12.6087503  40.9782496  99.0933355  10.7134036
  40.6379317  98.2941168  11.1154716  40.2721503  99.3935066  10.1410869
  41.6298968  96.1782667   9.1661359  42.4525037  95.7043145   9.0440250
  41.8737032  96.9573151   9.6660046  39.1537547 102.8701788   6.9753338
  39.0082128 103.1842091   7.8677619  38.6762750 103.4886688   6.4224237
  41.0133930  99.8604336   7.0234227  40.9995498  98.9645429   6.6866525
  41.7306358  99.8674999   7.6572513  42.8660060 100.2941676   9.0687355
  42.6077838 101.2158747   9.0671685  42.3345101  99.8972110   9.7587819
  43.2862016  96.4273626   5.4288517  43.3083713  96.4912960   4.4740497
  43.7030075  95.5878135   5.6229024  34.4149231 104.5377028  12.8071156
  33.6730967 104.6859664  13.3935786  34.0941975 104.7985294  11.9437905
  39.9011905 100.2550713  16.5011730  39.9500061 101.1312836  16.1189500
  40.4434419  99.7128106  15.9283373  50.3866751 110.7991837  15.7812867
  49.5962295 110.7815975  15.2417367  50.1500105 111.3380130  16.5361904
  50.5064626 107.6484303  13.0945596  50.5562631 107.4834310  14.0361119
  50.3978549 106.7811562  12.7043477  47.7968388 103.6315231  14.4104903
  48.6978251 103.4921696  14.1188900  47.8716363 103.7969686  15.3503080
  42.1311194 101.0082086  13.2558089  41.2614503 101.3015652  12.9840677
  42.3670674 101.5922531  13.9765352  50.2570011 105.1913859  11.8067675
  50.7324133 105.3841505  10.9986527  49.3335576 105.2473045  11.5611059
  44.8350227  97.2261703  10.7723509  45.3532171  97.9622730  10.4469998
  44.4805360  97.5325696  11.6070268  45.0862822  93.6461985   6.2924406
  45.3664575  92.9785174   6.9184832  45.8713429  93.8391081   5.7799070
  48.9571680 102.0679619  10.0395981  49.9089103 102.1677717  10.0608205
  48.7875130 101.2757888  10.5494065  46.9786059  99.1535202  10.2255382
  46.3835992  99.4340215   9.5301870  46.6935756  99.6429103  10.9972123
  51.5854246 102.0796782   9.1996564  51.0693295 101.2955239   9.0126493
  52.4694195 101.7515499   9.3643083  49.2464973  95.8237798   5.1592376
  49.0489794  95.5152886   6.0435708  49.8564679  96.5499437   5.2890306
  43.1581781 108.2099538  16.6566142  44.0784791 108.3878137  16.8506188
  43.1231364 107.2655583  16.5045841  36.1543854 106.1200573   9.2988923
  36.3729863 107.0517681   9.3176957  36.5669628 105.7608547  10.0843727
  45.0038620  95.7046705   2.9088908  45.5569658  96.1242158   3.5678931
  45.2408706  94.7782453   2.9511864  41.0271719 101.6933778  18.6891672
  40.9268446 102.6428135  18.6203763  40.8093261 101.3652017  17.8167742
  40.8902989 105.1230917  17.5056733  40.4070071 105.9231277  17.7120622
  40.9763928 105.1338862  16.5524177  37.4075709 107.5836568  12.1095965
  38.2268598 108.0780647  12.1330802  37.6812516 106.6668536  12.0813532
  32.6610623 101.9174702  12.8088162  33.3069487 101.4073656  13.2975387
  32.4527774 102.6543384  13.3831587  45.1864015 108.9855549  18.3080302
  46.0555175 109.1596202  17.9466937  44.7070767 109.8049966  18.1856032
  44.9966353  92.7757523   2.8157995  44.2298749  92.2216010   2.9614677
  45.4077058  92.8479392   3.6772146  37.0008114  99.0642319  16.9063176
  37.8639576  98.7079124  17.1166501  36.4273525  98.7256214  17.5938580
  49.5589615 112.4723036  17.8993148  49.1656560 111.9189234  18.5740792
  50.3755755 112.7833614  18.2899665  51.8665474 117.0225696  18.6891672
  51.7662200 117.9720053  18.6203763  51.6487016 116.6943935  17.8167742
  47.8401868 114.3934237  16.9063176  48.7033330 114.0371042  17.1166501
  47.2667279 114.0548131  17.5938580  25.3850449  57.6874070   3.1696853
  25.9290353  58.3004028   2.6751807  24.8037294  58.2453648   3.6863866
  28.7079243  57.1470124   2.5058174  27.9174787  57.1294263   1.9662673
  28.4712598  57.6858418   3.2607210  23.5076507  55.3333837   5.0325609
  24.3767667  55.5074489   4.6712244  23.0283259  56.1528253   4.9101338
  35.1668983  67.0422463  -5.5629116  35.8047393  66.9229210  -6.2665776
  35.0489826  67.9903307  -5.5041164  32.4578472  68.1484742   0.3318614
  32.4467113  67.7537541  -0.5400882  32.6199112  67.4150815   0.9252385
  29.1785734  70.9321854  -0.7202202  28.8875600  71.8367485  -0.8355536
  29.8142718  70.9738382  -0.0058133  30.1041940  68.3098703  -4.1300842
  30.7005513  68.0854725  -4.8443879  30.1616912  67.5683448  -3.5275395
  40.1218679  64.7049150  -7.5842930  40.8543851  64.1348366  -7.3505100
  39.3658034  64.3170750  -7.1436424  37.6444099  58.4170724  -3.1248321
  37.3127424  59.2866135  -3.3487106  37.0489713  58.1007008  -2.4454291
  34.1375619  70.6183270  -3.7252408  33.8376342  71.5208309  -3.8336601
  33.7926678  70.3515453  -2.8731255  31.6113628  64.5555456   1.8979926
  30.8346962  65.1149376   1.8882791  32.2504191  65.0412238   2.4194796
  39.4034409  61.3382248  -4.2677097  38.7608789  61.6314781  -4.9137303
  38.8989337  61.2235169  -3.4623900  29.8660001  67.3640909   1.4597893
  30.6074685  67.9025953   1.1832717  29.1596986  67.9907198   1.6169445
  35.3415340  69.5070049   0.0570055  35.7498696  69.0652460  -0.6875313
  34.6192602  68.9322677   0.3104248  31.6946410  64.4442656  -2.5696388
  32.5407605  64.8682070  -2.4261739  31.6345048  63.7876280  -1.8757825
  35.6644155  70.0671240  -6.1877656  35.0353017  70.2316954  -6.8901589
  35.2769817  70.4812850  -5.4166692  39.5433387  71.0025678  -8.8333293
  38.8584425  71.3824579  -9.3836259  39.6277236  71.6121004  -8.1001345
  34.8445856  62.1047024  -0.9115215  34.6006787  62.8589085  -1.4480939
  35.1205786  62.4832372  -0.0767968  36.7984318  68.6485637  -2.2337949
  37.0101214  69.2917397  -2.9103568  36.7514067  67.8147953  -2.7016019
  28.6021364  64.5180557   2.2613203  27.9720025  65.1996838   2.4948600
  28.4957452  64.4063639   1.3166341  37.9130146  71.5257592  -4.0615592
  38.7347590  71.1237780  -4.3432910  37.9092549  71.4225826  -3.1099476
  31.6786750  71.0741636  -1.9054881  31.7431182  71.5362043  -1.0696709
  30.9697674  70.4439000  -1.7772571  46.0036139  67.8696341  -7.7130620
  45.2499848  67.3003739  -7.8686616  46.1383681  67.8359005  -6.7659986
  27.8802107  58.8201323   4.6238454  27.4869053  58.2667521   5.2986099
  28.6968247  59.1311901   5.0144972  30.7970068  60.2359202   2.2158711
  31.5379781  60.8366355   2.1363173  31.0287991  59.4936840   1.6576753
  25.9411406  65.4215569   0.4936941  25.8264921  64.5200826   0.7944039
  25.0855924  65.6679266   0.1421757  33.0203244  73.3633310   2.0924441
  32.5767098  72.5769688   1.7745346  33.6820457  73.5512460   1.4268332
  35.1184482  73.6436109   0.1205842  35.1002957  74.4644991  -0.3713888
  36.0404402  73.5190185   0.3455984  31.5757536  71.1580239   0.9629351
  32.1085873  70.3968527   0.7328659  31.0471617  70.8653891   1.7053505
  37.9203095  68.4815252  -6.4084791  37.2626769  69.1714513  -6.3204662
  38.7243494  68.8711684  -6.0650805  37.4970350  71.8165626 -10.2301707
  37.0432677  70.9756536 -10.1736516  36.8664316  72.4527024  -9.8926926
  34.3502548  64.9006541  -1.3077806  34.7051936  65.1278015  -0.4483340
  34.9974679  65.2324918  -1.9300551  40.1069664  70.0901504  -5.5917205
  40.5406171  69.9976793  -4.7434151  40.8201245  70.0659005  -6.2297189
  33.8397559  73.6903598  -4.0584105  33.8934582  74.2594535  -3.2906389
  32.9712341  73.8605483  -4.4230068  40.9685214  70.1325205  -3.0584320
  41.1621104  71.0371015  -2.8125045  40.8685832  69.6732624  -2.2245735
  32.6221525  60.0183096  -0.5593993  31.9749440  60.7173045  -0.6529516
  33.3922540  60.4519239  -0.1917745  36.0300323  70.2831948   2.5156561
  35.8785829  70.0542499   1.5986644  36.0205002  71.2402549   2.5287906
  32.7985659  67.8563860  -2.4997173  33.7277719  68.0075020  -2.6728206
  32.3776689  67.9447881  -3.3548526  31.5973991  71.8814525  -4.7298635
  31.4585077  71.5133309  -3.8572697  30.8088587  72.3962164  -4.9014678
  33.1479206  71.2596128  -7.3409798  32.8129039  71.2196898  -6.4452148
  32.6483152  70.5940843  -7.8139387  27.1223450  66.6663758  -1.8157216
  26.9843248  65.9343996  -1.2145677  28.0328373  66.5772658  -2.0973029
  29.7505751  66.3783717  -2.3273537  30.4605369  65.7376909  -2.3686918
  29.7075059  66.6296612  -1.4047356  37.7392529  73.3151070   0.5933042
  37.6805076  72.6310290  -0.0736375  38.1412048  74.0570060   0.1413668
  28.4634685  63.3648935  -0.5077897  27.9272042  62.9139673   0.1443699
  27.8751393  63.4994844  -1.2507433  37.7409937  71.2790654  -1.1752978
  36.8536715  70.9416576  -1.0526579  38.3108488  70.5473685  -0.9384213
  42.2227277  66.6898872  -6.4136416  42.2117153  67.5723587  -6.7842483
  41.3544657  66.3370422  -6.6081879  33.7309774  75.8378941  -2.0533576
  34.4437746  76.4726405  -2.1257675  33.2399802  75.9342807  -2.8693574
  28.7821687  73.5873384  -1.2328005  29.4831147  74.2209867  -1.0798611
  28.3116802  73.9288116  -1.9932366  36.5822973  66.1417991  -3.4075455
  35.9294423  66.3893899  -4.0623002  36.9603353  65.3282130  -3.7412978
  32.6310546  66.8837803   3.0790582  31.9551183  66.7831932   3.7492957
  33.4538180  66.7277016   3.5426579  25.8250095  62.6103012   1.5643117
  26.4522134  62.2280090   2.1780641  24.9678014  62.3917214   1.9298810
  36.2244203  73.0165987   3.1696853  36.7684107  73.6295946   2.6751807
  35.6431048  73.5745566   3.6863866  34.5101716  76.1386705  -5.6988120
  34.3852856  75.3376445  -6.2077174  35.1680807  76.6332899  -6.1874150
  36.5736625  73.9395726  -4.0708570  35.6266960  73.8201077  -4.1430243
  36.9219398  73.0518224  -3.9882308  28.9336198  59.8289864  -0.2470328
  29.4570600  60.0752161   0.5155982  28.7148531  60.6609899  -0.6667190
  37.1817180  74.5577001  -6.7839345  38.1063727  74.3519862  -6.9214893
  37.0132483  74.3093402  -5.8750003  42.8251887  67.8399091  -9.8086953
  43.2683033  67.0906416 -10.2067830  41.9478397  67.8309227 -10.1913221
  23.5755478  66.2147233  -0.4683537  22.8337214  66.3629869   0.1181093
  23.2548222  66.4755499  -1.3316788  31.5199140  75.7563212  -0.6703147
  31.8286267  75.5112358   0.2019552  32.3174622  75.9609850  -1.1584277
  29.0618152  61.9320918   3.2257037  29.1106307  62.8083041   2.8434806
  29.6040666  61.3898311   2.6528680  39.5472998  72.4762042   2.5058174
  38.7568541  72.4586180   1.9662673  39.3106352  73.0150335   3.2607210
  39.6670873  69.3254508  -0.1809098  39.7168878  69.1604515   0.7606425
  39.5584796  68.4581767  -0.5711217  36.9574635  65.3085436   1.1350209
  37.8584498  65.1691901   0.8434207  37.0322610  65.4739891   2.0748387
  31.2917440  62.6852291  -0.0196605  30.4220750  62.9785857  -0.2914016
  31.5276921  63.2692736   0.7010659  41.1689070  71.7451449   0.0632924
  40.8773878  72.1081430   0.8996385  40.5561201  71.0318458  -0.1153744
  42.3684752  69.3104329  -7.4164506  43.2031643  69.7494133  -7.2526945
  42.5043881  68.8342982  -8.2356260  39.4176258  66.8684064  -1.4687018
  39.8930379  67.0611710  -2.2768167  38.4941823  66.9243250  -1.7143634
  38.1177927  63.7449824  -3.2358712  39.0695350  63.8447922  -3.2146488
  37.9481377  62.9528093  -2.7260628  36.1392306  60.8305407  -3.0499312
  35.5442238  61.1110420  -3.7452823  35.8542003  61.3199308  -2.2782570
  40.5966005  66.9655944  -4.1216413  40.5642325  66.0271945  -3.9356729
  41.2066628  67.0439981  -4.8550588  40.7460493  63.7566987  -4.0758130
  40.2299542  62.9725444  -4.2628201  41.6300442  63.4285704  -3.9111610
  46.4142554  68.0271951  -4.9810376  47.1445943  67.7657239  -4.4202673
  45.8049500  67.2900673  -4.9408308  44.4957852  66.1679813  -4.3835925
  43.7691015  66.0335778  -4.9919433  44.0805138  66.4756642  -3.5779207
  32.3188028  69.8869743   3.3811448  33.2391037  70.0648342   3.5751495
  32.2837611  68.9425788   3.2291148  30.1877966  63.3703983   5.4136978
  30.0874693  64.3198340   5.3449069  29.9699508  63.0422222   4.5413048
  30.0509236  66.8001122   4.2302040  29.5676318  67.6001482   4.4365929
  30.1370175  66.8109067   3.2769484  26.5681955  69.2606773  -1.1658729
  27.3874844  69.7550852  -1.1423891  26.8418763  68.3438741  -1.1941161
  44.4206719  65.6957866  -8.2559072  43.8606277  65.7651056  -7.4827510
  43.8150223  65.5198851  -8.9759576  34.3470262  70.6625754   5.0325609
  35.2161422  70.8366407   4.6712244  33.8677013  71.4820171   4.9101338
  26.1614361  60.7412524   3.6308483  27.0245822  60.3849329   3.8411807
  25.5879771  60.4026419   4.3183887  42.8152444  82.3241808  -5.6267592
  42.4770955  82.2082873  -6.5147057  43.6842212  81.9232973  -5.6466585
  43.2972227  83.4776660   0.3318614  43.2860868  83.0829458  -0.5400882
  43.4592866  82.7442733   0.9252385  40.0179488  86.2613772  -0.7202202
  39.7269354  87.1659403  -0.8355536  40.6536472  86.3030299  -0.0058133
  40.9435695  83.6390620  -4.1300842  41.5399267  83.4146643  -4.8443879
  41.0010666  82.8975366  -3.5275395  48.4837854  73.7462641  -3.1248321
  48.1521178  74.6158052  -3.3487106  47.8883467  73.4298925  -2.4454291
  48.3766517  78.4657728  -6.0454971  47.4683394  78.3973136  -6.3396210
  48.3254113  78.9429673  -5.2173146  42.4507383  79.8847373   1.8979926
  41.6740717  80.4441293   1.8882791  43.0897946  80.3704156   2.4194796
  50.2428163  76.6674166  -4.2677097  49.6002544  76.9606699  -4.9137303
  49.7383092  76.5527086  -3.4623900  40.7053755  82.6932827   1.4597893
  41.4468439  83.2317871   1.1832717  39.9990740  83.3199115   1.6169445
  46.1809095  84.8361967   0.0570055  46.5892451  84.3944378  -0.6875313
  45.4586356  84.2614595   0.3104248  42.5340165  79.7734574  -2.5696388
  43.3801360  80.1973987  -2.4261739  42.4738802  79.1168198  -1.8757825
  45.6839610  77.4338942  -0.9115215  45.4400542  78.1881003  -1.4480939
  45.9599541  77.8124290  -0.0767968  47.6378073  83.9777555  -2.2337949
  47.8494968  84.6209314  -2.9103568  47.5907821  83.1439871  -2.7016019
  45.2404302  76.5895375  -5.3301377  44.3788781  76.8876629  -5.0384639
  45.2666736  76.8065774  -6.2620344  39.4415119  79.8472475   2.2613203
  38.8113779  80.5288756   2.4948600  39.3351207  79.7355556   1.3166341
  42.5180504  86.4033553  -1.9054881  42.5824937  86.8653960  -1.0696709
  41.8091428  85.7730918  -1.7772571  38.7195861  74.1493241   4.6238454
  38.3262807  73.5959439   5.2986099  39.5362002  74.4603819   5.0144972
  41.6363822  75.5651120   2.2158711  42.3773536  76.1658273   2.1363173
  41.8681745  74.8228757   1.6576753  36.7805160  80.7507487   0.4936941
  36.6658676  79.8492744   0.7944039  35.9249678  80.9971184   0.1421757
  43.8596998  88.6925227   2.0924441  43.4160852  87.9061606   1.7745346
  44.5214212  88.8804378   1.4268332  45.9578236  88.9728027   0.1205842
  45.9396712  89.7936908  -0.3713888  46.8798156  88.8482102   0.3455984
  42.4151290  86.4872157   0.9629351  42.9479627  85.7260445   0.7328659
  41.8865372  86.1945808   1.7053505  45.5820985  71.5932223  -3.5077007
  45.2385255  72.4833864  -3.5837897  45.9499948  71.4033880  -4.3707422
  44.6617526  73.9636878  -5.5427774  44.1582321  73.9267013  -6.3559969
  44.9548133  74.8729620  -5.4831118  40.9060412  74.0475607  -6.5361593
  41.7713408  73.8518416  -6.8955703  40.9737921  73.8185959  -5.6092236
  38.5122731  76.2777815  -9.1645226  39.0866483  76.0552997  -9.8972033
  39.0993713  76.3466510  -8.4116624  40.8145398  73.1519064 -10.4370156
  40.1609811  72.8368081 -11.0613541  40.7725873  72.5294805  -9.7110333
  44.0483139  79.6400998  -6.1122509  43.1305700  79.8615945  -6.2700821
  44.4643282  79.7147308  -6.9710801  47.3808651  70.8525782  -8.4059270
  47.6867528  69.9923145  -8.6933355  48.1061256  71.4443402  -8.6060276
  45.1896302  80.2298459  -1.3077806  45.5445690  80.4569932  -0.4483340
  45.8368434  80.5616836  -1.9300551  39.0836165  77.3374990  -4.5231465
  39.7235545  77.1963749  -5.2208502  38.2513696  77.0509503  -4.8992863
  37.5589707  78.7213072  -2.5759654  38.2312761  78.5130434  -3.2247005
  36.7319494  78.5235158  -3.0154421  43.4615279  75.3475013  -0.5593993
  42.8143194  76.0464963  -0.6529516  44.2316295  75.7811157  -0.1917745
  46.8694077  85.6123865   2.5156561  46.7179584  85.3834417   1.5986644
  46.8598757  86.5694467   2.5287906  43.6379414  83.1855778  -2.4997173
  44.5671474  83.3366938  -2.6728206  43.2170444  83.2739799  -3.3548526
  37.9617205  81.9955675  -1.8157216  37.8237002  81.2635914  -1.2145677
  38.8722128  81.9064575  -2.0973029  40.5899505  81.7075635  -2.3273537
  41.2999124  81.0668827  -2.3686918  40.5468813  81.9588529  -1.4047356
  39.3028439  78.6940852  -0.5077897  38.7665796  78.2431591   0.1443699
  38.7145148  78.8286761  -1.2507433  48.5803691  86.6082572  -1.1752978
  47.6930470  86.2708494  -1.0526579  49.1502242  85.8765603  -0.9384213
  35.0367560  77.8296860  -3.4224903  34.9525749  77.2222530  -4.1574493
  34.2150267  78.3205878  -3.4215406  45.2091274  76.3150424  -8.0554708
  45.7059974  75.5620386  -8.3753638  44.4378256  76.3514740  -8.6211498
  41.7926243  78.4567807  -8.3283023  41.4224031  77.9038847  -7.6402118
  42.2885335  77.8525940  -8.8808023  39.6215442  88.9165302  -1.2328005
  40.3224901  89.5501785  -1.0798611  39.1510557  89.2580033  -1.9932366
  47.6510269  73.2820017  -5.9075349  46.7373349  73.5124244  -5.7393142
  48.0803371  73.3658461  -5.0561317  47.4216728  81.4709909  -3.4075455
  46.7688178  81.7185817  -4.0623002  47.7997107  80.6574047  -3.7412978
  43.4704301  82.2129720   3.0790582  42.7944938  82.1123850   3.7492957
  44.2931934  82.0568934   3.5426579  37.1891577  75.8671797  -2.0829917
  37.2532903  76.7286628  -2.4952519  37.1258697  75.2545799  -2.8157559
  36.6643849  77.9394930   1.5643117  37.2915888  77.5572007   2.1780641
  35.8071768  77.7209132   1.9298810  47.0637958  88.3457905   3.1696853
  47.6077862  88.9587863   2.6751807  46.4824803  88.9037484   3.6863866
  36.9703639  77.8227356  -6.5210979  36.2490225  78.4363323  -6.6603506
  37.7596895  78.3585120  -6.5994333  39.7729952  75.1581782  -0.2470328
  40.2964354  75.4044079   0.5155982  39.5542286  75.9901817  -0.6667190
  40.9782498  76.0995477  -2.5620657  40.6379318  75.3003290  -2.1599977
  40.2721504  76.3997188  -3.1343824  41.6298969  73.1844790  -4.1093334
  42.4525039  72.7105268  -4.2314444  41.8737033  73.9635273  -3.6094648
  39.1537548  79.8763910  -6.3001355  39.0082129  80.1904213  -5.4077074
  38.6762752  80.4948811  -6.8530457  41.0133931  76.8666458  -6.2520466
  40.9995500  75.9707552  -6.5888168  41.7306359  76.8737122  -5.6182180
  42.8660062  77.3003799  -4.2067338  42.6077840  78.2220869  -4.2083008
  42.3345102  76.9034233  -3.5166874  43.2862017  73.4335749  -7.8466176
  43.3083714  73.4975082  -8.8014196  43.7030076  72.5940258  -7.6525670
  34.4149232  81.5439151  -0.4683537  33.6730968  81.6921786   0.1181093
  34.0941976  81.8047417  -1.3316788  39.9011906  77.2612836   3.2257037
  39.9500062  78.1374959   2.8434806  40.4434421  76.7190229   2.6528680
  50.3866752  87.8053959   2.5058174  49.5962296  87.7878098   1.9662673
  50.1500107  88.3442253   3.2607210  50.5064627  84.6546426  -0.1809098
  50.5562632  84.4896433   0.7606425  50.3978551  83.7873685  -0.5711217
  47.7968390  80.6377354   1.1350209  48.6978252  80.4983818   0.8434207
  47.8716364  80.8031808   2.0748387  42.1311195  78.0144208  -0.0196605
  41.2614504  78.3077774  -0.2914016  42.3670675  78.5984653   0.7010659
  50.2570012  82.1975982  -1.4687018  50.7324134  82.3903628  -2.2768167
  49.3335578  82.2535168  -1.7143634  44.8350229  74.2323825  -2.5031184
  45.3532173  74.9684852  -2.8284696  44.4805362  74.5387819  -1.6684425
  45.0862823  70.6524108  -6.9830288  45.3664577  69.9847297  -6.3569861
  45.8713430  70.8453203  -7.4955624  48.9571681  79.0741742  -3.2358712
  49.9089104  79.1739839  -3.2146488  48.7875132  78.2820010  -2.7260628
  46.9786061  76.1597325  -3.0499312  46.3835993  76.4402338  -3.7452823
  46.6935757  76.6491226  -2.2782570  51.5854248  79.0858905  -4.0758130
  51.0693296  78.3017362  -4.2628201  52.4694196  78.7577622  -3.9111610
  49.2464974  72.8299921  -8.1162317  49.0489796  72.5215009  -7.2318985
  49.8564680  73.5561559  -7.9864387  43.1581782  85.2161661   3.3811448
  44.0784792  85.3940260   3.5751495  43.1231365  84.2717706   3.2291148
  36.1543855  83.1262695  -3.9765771  36.3729865  84.0579803  -3.9577737
  36.5669629  82.7670670  -3.1910967  45.0038621  72.7108827 -10.3665786
  45.5569660  73.1304281  -9.7075762  45.2408707  71.7844576 -10.3242830
  41.0271720  78.6995901   5.4136978  40.9268447  79.6490258   5.3449069
  40.8093262  78.3714140   4.5413048  40.8902990  82.1293040   4.2302040
  40.4070072  82.9293400   4.4365929  40.9763929  82.1400985   3.2769484
  37.4075710  84.5898691  -1.1658729  38.2268599  85.0842769  -1.1423891
  37.6812518  83.6730659  -1.1941161  32.6610624  78.9236825  -0.4666532
  33.3069488  78.4135778   0.0220694  32.4527775  79.6605506   0.1076894
  45.1864016  85.9917672   5.0325609  46.0555176  86.1658324   4.6712244
  44.7070768  86.8112089   4.9101338  44.9966354  69.7819646 -10.4596699
  44.2298750  69.2278132 -10.3140016  45.4077059  69.8541515  -9.5982547
  37.0008115  76.0704442   3.6308483  37.8639577  75.7141246   3.8411807
  36.4273526  75.7318336   4.3183887  49.5589616  89.4785158   4.6238454
  49.1656562  88.9251357   5.2986099  50.3755756  89.7895737   5.0144972
  51.8665475  94.0287819   5.4136978  51.7662202  94.9782176   5.3449069
  51.6487017  93.7006058   4.5413048  47.8401870  91.3996359   3.6308483
  48.7033331  91.0433164   3.8411807  47.2667280  91.0610254   4.3183887
  47.0637959  65.3520028 -10.1057841  47.6077863  65.9649986 -10.6002886
  46.4824804  65.9099606  -9.5890828  50.3866753  64.8116082 -10.7696519
  49.5962297  64.7940221 -11.3092020  50.1500108  65.3504376 -10.0147483
  45.1864018  62.9979795  -8.2429084  46.0555177  63.1720447  -8.6042449
  44.7070769  63.8174211  -8.3653355  49.5589617  66.4847281  -8.6516239
  49.1656563  65.9313479  -7.9768595  50.3755758  66.7957859  -8.2609722
  51.8665476  71.0349941  -7.8617715  51.7662203  71.9844298  -7.9305624
  51.6487018  70.7068180  -8.7341645  47.8401871  68.4058482  -9.6446211
  48.7033333  68.0495287  -9.4342886  47.2667282  68.0672377  -8.9570806
 118.8558328 118.8558328 118.8558328 109.4712190 109.4712190 109.4712190
