default_name
 90129
  77.4495592  48.6599347  29.2463905  77.7491786  48.1798017  30.0829318
  76.8381896  49.4196184  29.5094651  78.2578370  48.8393264  28.6679398
  76.5995292  47.7262432  28.4562391  75.6049467  48.1538836  28.3296360
  77.2083806  47.4779378  27.0658444  77.6791859  48.4046809  26.7378371
  77.9619288  46.6935947  27.1370551  76.1706658  47.0641010  26.0270580
  75.4166660  46.1051351  26.2198677  76.1433256  47.7787123  24.9085893
  75.4773507  47.5516376  24.1840106  76.7886254  48.5461748  24.7873864
  76.3472863  46.4053207  29.1938273  75.2195087  46.1343838  29.5983233
  77.3974278  45.6065883  29.3947786  78.3194803  45.9196968  29.1266713
  77.2540375  44.2507760  29.9419808  76.2312853  43.9018719  29.7993515
  78.2078818  43.2786811  29.2314644  79.2031380  43.4786516  29.6284230
  77.8966264  42.2750476  29.5211880  78.2375492  43.3822451  27.7075969
  77.9376636  44.3934439  27.4325580  79.2611402  43.2049488  27.3775519
  77.3095331  42.3797044  27.0405225  77.4955689  41.3926239  27.4637976
  76.2776864  42.6704230  27.2376886  77.5471362  42.3397130  25.5347286
  77.1353252  43.2525913  25.1044199  78.6233486  42.3116171  25.3642098
  76.9107849  41.1552353  24.8893693  75.9134852  41.1813074  25.0468915
  77.0954104  41.1730893  23.8965477  77.2925496  40.3092336  25.2876604
  77.5004684  44.1906136  31.4489079  78.5216531  44.6787444  31.9369737
  76.5660135  43.5767700  32.1771497  75.7103262  43.2827239  31.7283341
  76.6941393  43.3821199  33.6260600  77.7307029  43.1573147  33.8772529
  76.2702867  44.6499930  34.3809723  76.4486269  44.5331688  35.4499185
  76.8236547  45.5140350  34.0131199  74.5208674  45.0646843  34.2074436
  74.5613548  46.1576756  34.9641661  75.8918512  42.1708729  34.1130338
  75.2373932  41.4864652  33.3195423  75.9467690  41.9038959  35.4157442
  76.5633104  42.4332806  36.0155174  75.1922195  40.7993668  36.0007249
  75.1473341  39.9716506  35.2929322  75.8573720  40.3057672  37.2898023
  75.9604869  41.1638501  37.9540012  75.2016291  39.5670097  37.7506046
  77.2282807  39.6854616  37.0449753  77.3443308  38.8122152  36.1605861
  78.1875964  40.0669176  37.7455634  73.7326257  41.1808213  36.2656052
  72.8183904  40.4507765  35.8775417  73.5250251  42.3180016  36.9307653
  74.3138038  42.8714308  37.2334921  72.1766553  42.7796629  37.2793420
  71.4192781  42.2928180  36.6649635  71.8337421  42.5340979  38.7808537
  72.5085822  43.1279040  39.3973636  70.3812182  42.9334309  39.0815024
  69.7057200  42.3396800  38.4656590  70.1648871  42.7533837  40.1345382
  70.2409015  43.9909918  38.8579452  72.0748196  41.0745514  39.1834161
  73.1230889  40.8216547  39.0244292  71.8250926  40.9414394  40.2360401
  71.4479212  40.4213886  38.5763925  72.0202747  44.2678685  36.9757448
  72.8766484  45.0737444  37.3468473  70.9342228  44.6108236  36.2841219
  70.3903946  43.8854258  35.8389835  70.5102329  45.9990252  36.1121739
  71.3400435  46.6803699  36.3000114  69.9520681  46.2758388  34.6831518
  69.2957452  45.4523097  34.4018348  69.1718492  47.5871131  34.6351073
  69.8276801  48.4112225  34.9158750  68.7963119  47.7502511  33.6249300
  68.3336794  47.5374592  35.3301667  71.0765630  46.3164297  33.6554920
  71.5969092  45.3586834  33.6474976  70.6595988  46.5110581  32.6673826
  71.7786551  47.1086221  33.9154898  69.4392918  46.2916576  37.1625316
  68.4573789  45.5539556  37.2769332  69.6485063  47.3523608  37.9378296
  70.5316899  47.8408569  37.8996509  68.6380722  47.8198901  38.8859279
  67.8492533  47.0778502  39.0093807  69.2455334  48.1314946  40.2745648
  70.0324896  48.8761539  40.1550586  68.1804831  48.6664437  41.2239427
  67.3933614  47.9220982  41.3443175  68.6307971  48.8783767  42.1936860
  67.7543317  49.5820722  40.8139170  69.9012227  46.8825852  40.8782791
  70.6960060  46.5340501  40.2187757  70.3207288  47.1275062  41.8540495
  69.1534017  46.0976998  40.9915026  67.9787936  49.0688872  38.3088239
  68.6566490  50.0635379  38.0405382  66.6623250  49.0103972  38.1196062
  66.1655992  48.1526947  38.3137947  65.9047980  50.1475864  37.6004179
  66.5349924  50.8222611  37.0209629  64.7136440  49.6997551  36.7153025
  64.0388148  49.0890729  37.3151125  63.9548792  50.9153035  36.1714504
  64.6289858  51.5262650  35.5711111  63.1230431  50.5781342  35.5530119
  63.5722224  51.5072181  37.0029024  65.1987257  48.7962125  35.5704220
  65.6819768  47.9114791  35.9849305  64.3476044  48.4927205  34.9608445
  65.9110911  49.3427673  34.9524299  65.3902522  50.9794266  38.7702712
  64.5067539  50.5398262  39.5068038  65.9661802  52.1700185  38.9402352
  66.6917133  52.4686412  38.3042120  65.5829352  53.0694036  40.0243458
  65.4101220  54.0577922  39.5985257  64.6571586  52.6960132  40.4620861
  66.6335771  53.1774119  41.1107536  67.0599388  52.1662797  41.6770392
  67.0514449  54.4101734  41.3927031  66.6698570  55.1835790  40.8670285
  68.0351865  54.6968729  42.4258309  68.4830829  53.7465704  42.7163703
  68.7966682  55.3347171  41.9770550  67.4842361  55.3810283  43.6617969
  68.1115008  56.2967169  44.2012182  66.3070832  54.9416804  44.1089284
  65.7370264  54.3365078  43.5354299  65.8071058  55.3170645  45.4302763
  66.0569069  56.3548704  45.6508612  64.7261662  55.1857305  45.4794732
  66.4617442  54.4199919  46.4668068  67.3435197  53.6176703  46.1359338
  66.0374398  54.5321124  47.7226427  65.3933335  55.2648672  47.9839794
  66.6043772  53.6934390  48.7840540  67.6867027  53.8127898  48.8333090
  65.9837224  54.0150145  50.1740431  64.9003998  54.0703265  50.0670241
  66.3418145  52.9338604  51.2070687  67.4250348  52.8782766  51.3149807
  65.8939376  53.1863792  52.1681832  65.9606819  51.9694157  50.8713849
  66.4539724  55.3998078  50.6411722  67.5130841  55.3161219  50.8848522
  66.3276998  56.0839195  49.8020381  65.6914948  55.9369043  51.8567194
  65.8176885  55.2535102  52.6964500  66.0812684  56.9185460  52.1260804
  64.6323031  56.0213055  51.6136363  66.5192599  52.1984345  48.4622086
  67.4785730  51.4571396  48.6990086  65.3963378  51.7579539  47.9006242
  64.6185959  52.3794022  47.7302751  65.2211617  50.3302545  47.6144359
  65.4667645  49.7482181  48.5026994  63.7738643  50.0217157  47.2109906
  63.0992294  50.5783910  47.8614363  63.6208505  50.3331997  46.1777121
  63.5081364  48.6387486  47.3300607  62.5995206  48.4642877  47.0739737
  66.2044252  49.8186218  46.5510568  66.8609943  48.7830839  46.7488551
  66.3119241  50.5412504  45.4371835  65.7368888  51.3619887  45.3113963
  67.2532626  50.1796228  44.3682563  67.0347858  49.1642029  44.0376668
  67.1189469  50.8692870  43.5349364  68.6989704  50.2469777  44.8387224
  69.5153878  49.3636328  44.5297023  69.0140191  51.2865350  45.6076969
  68.3411494  52.0239515  45.7611982  70.3699528  51.4613619  46.1376641
  71.0949646  51.3122055  45.3375332  70.5603751  52.8665681  46.7147057
  69.8144836  52.9964972  47.4988381  71.5576796  52.9022393  47.1531248
  70.4162405  53.9899143  45.6816527  69.3888063  53.9665785  45.3184239
  70.5966507  54.9318841  46.1995786  71.5523591  53.8575451  44.2693260
  73.0047256  54.5677037  44.9906169  73.3034618  53.9812672  45.8594943
  73.8118975  54.5679406  44.2581047  72.7943333  55.5917837  45.2989942
  70.7432799  50.3736860  47.1517592  71.8719438  49.8759698  47.1324368
  69.8017997  49.9972085  48.0199831  68.9410205  50.5209166  48.0898997
  70.0241196  48.8901742  48.9650704  70.9445881  49.1157408  49.5035466
  68.8754496  48.7845256  49.9793117  67.9484704  48.5499617  49.4560630
  69.0960944  47.9952976  50.6980157  68.7654858  49.7332385  50.5046221
  70.2422054  47.5587380  48.2384555  71.1171989  46.7744481  48.6256904
  69.4679923  47.3204379  47.1784145  68.7343829  47.9738721  46.9440208
  69.6062842  46.1120140  46.3654348  69.5384969  45.2345837  47.0085678
  68.4966977  46.0385344  45.3225965  68.5571009  46.9059547  44.6653039
  68.6105641  45.1284261  44.7336673  67.5279571  46.0286116  45.8221386
  70.9765814  46.0785479  45.6892089  71.6869911  45.0688136  45.7517209
  71.3450067  47.1939333  45.0623690  70.7077474  47.9764492  45.0215188
  72.6182270  47.3000782  44.3544754  72.6543016  46.5027356  43.6121530
  72.7200694  48.6352668  43.6378907  72.6944964  49.4434085  44.3688853
  73.6562189  48.6790057  43.0812837  71.8826889  48.7430103  42.9484820
  73.8077862  47.0986114  45.2954420  74.7591545  46.3928696  44.9571405
  73.7452765  47.7046478  46.4794747  72.9748250  48.3214866  46.6939828
  74.8187443  47.5711724  47.4599502  75.7627000  47.8744577  47.0071094
  74.5612346  48.4486808  48.6895017  74.4008947  49.4686185  48.3400486
  73.6545725  48.0837580  49.1720937  75.7115271  48.4294763  49.6893204
  75.8958701  47.3942894  49.9765602  76.5968500  48.8327472  49.1977130
  75.4032936  49.2493656  50.9261618  75.2974415  50.2955555  50.6391409
  74.4680740  48.8958420  51.3603101  76.5304379  49.1141597  51.9599931
  77.4573766  49.4481647  51.4938108  76.2940859  49.7630799  52.8032841
  76.6944040  47.7083151  52.4437462  76.9138422  47.1069184  51.6625494
  77.4443500  47.6700223  53.1191828  75.8357300  47.3987735  52.8761374
  75.0254431  46.1102725  47.8739263  76.1656357  45.6349587  47.9220369
  73.9287968  45.4076706  48.1659320  73.0265578  45.8615776  48.1602226
  73.9970914  44.0029074  48.5769128  74.6481283  43.9085144  49.4460159
  72.6023836  43.4676509  48.9467634  72.2310185  44.2421306  49.6178583
  71.9992075  43.4544224  48.0389618  72.5105560  42.1007663  49.6421806
  73.3993977  41.9594317  50.2570674  71.2698214  42.0201965  50.5188568
  70.3804893  42.1609863  49.9045560  71.2272922  41.0432019  51.0002855
  71.3114640  42.7985943  51.2807381  72.5300526  40.9379030  48.6527132
  73.4582356  40.9615247  48.0817336  72.4627546  39.9959011  49.1969601
  71.6831048  41.0250209  47.9721334  74.6365549  43.1486222  47.4834714
  75.5164008  42.3263824  47.7625432  74.1926290  43.3493070  46.2458308
  73.4234543  43.9839003  46.0853285  74.7217994  42.5977846  45.1062458
  74.7012769  41.5309355  45.3287566  73.8806923  42.8524935  43.8499898
  73.9143711  43.9392341  43.7727888  74.3765833  42.4117848  42.9851384
  72.4160268  42.3872733  43.8926648  71.9654896  42.7267527  44.8253334
  71.6342286  42.9566757  42.7142839  72.0839261  42.6172319  41.7811982
  70.6004348  42.6148063  42.7642486  71.6585428  44.0456930  42.7536606
  72.2881018  40.8612102  43.9545079  72.7844621  40.4905218  44.8513445
  71.2339820  40.5853011  43.9829150  72.7547546  40.4209582  43.0733086
  76.2011665  42.9146093  44.8601829  77.0068685  42.0073687  44.6291639
  76.5499346  44.1968972  44.9311102  75.8235448  44.8911189  45.0336454
  77.9323482  44.6552119  44.7870600  78.3411516  44.3247290  43.8321988
  77.9755326  46.1864632  44.8346249  77.4974380  46.5800833  43.9376366
  77.4572627  46.5624538  45.7167402  79.3559227  46.7619538  44.8714993
  80.1107882  46.9633335  43.7351287  81.2740443  47.4920786  44.0725154
  82.0189680  47.7246355  43.3115259  81.2984576  47.6447761  45.3842713
  82.0625277  48.0253282  45.9241573  80.1082834  47.2001221  45.9076412
  79.9332576  47.2493884  46.9823691  78.8409833  44.0355239  45.8580642
  79.9202616  43.5125266  45.5442678  78.3855856  44.0691359  47.1106412
  77.5183146  44.5502408  47.3016341  79.1194467  43.4819377  48.2395111
  80.1235777  43.9035648  48.2847961  78.4030932  43.7784767  49.5632740
  77.3526915  43.5162192  49.4368752  78.8458304  43.1433525  50.3305426
  78.5141896  45.2343820  49.9851061  79.3261082  45.9867925  49.3978255
  77.7785274  45.6248363  50.9170833  79.3074630  41.9747964  48.0972366
  80.2592219  41.4068480  48.6454078  78.4040285  41.3342324  47.3560364
  77.6124714  41.8440968  46.9905573  78.4696235  39.8922542  47.1188315
  78.9060797  39.3946584  47.9848589  77.0660229  39.3239354  46.8833146
  76.5955311  39.8749280  46.0689782  77.1537794  38.2731313  46.6072537
  76.2710694  39.4406273  48.0550180  75.3976797  39.0795747  47.8864024
  79.3967073  39.5355141  45.9521755  79.6613332  38.3551855  45.7047658
  79.8779116  40.5524370  45.2377169  79.5601713  41.4917090  45.4298328
  80.8621306  40.3570601  44.1714328  81.5968049  41.1560107  44.2715867
  81.3425067  39.3968095  44.3592010  80.3115571  40.3660770  42.7544637
  81.0230514  40.0197657  41.8067926  79.0494249  40.7588424  42.6051725
  78.4832209  40.9635247  43.4161087  78.4306732  40.8531596  41.2885706
  78.9043090  40.1437411  40.6099738  76.9348043  40.5336092  41.3646622
  76.5689683  41.2919632  42.0568778  76.5216587  40.7180058  40.3729926
  76.4993370  39.1489848  41.8488497  76.9040774  38.9606055  42.8432336
  74.9871964  39.1048144  41.9032371  74.5817117  39.2926597  40.9090565
  74.6640263  38.1222867  42.2471864  74.6254702  39.8676476  42.5926863
  77.0406434  38.0284249  40.9689357  78.1302401  38.0579621  40.9713893
  76.7028884  37.0668567  41.3554709  76.6764793  38.1579246  39.9497628
  78.6357280  42.2343307  40.6875965  78.8143014  43.2134432  41.4123567
  78.6213210  42.2975886  39.3585156  78.5816978  41.4416907  38.8237558
  78.6953652  43.5596469  38.6366185  79.2762211  44.2792026  39.2136326
  79.3689293  43.3664472  37.2752518  78.8780651  42.5385363  36.7636709
  79.2544963  44.2761716  36.6858397  80.8445742  43.0522893  37.3984057
  81.5715159  43.7032644  38.1495491  81.2986554  42.0531277  36.6477750
  82.2751710  41.7984368  36.6883891  80.6649722  41.5534464  36.0404324
  77.2984793  44.1232400  38.4506627  76.4708034  43.5274310  37.7612469
  77.0439647  45.2634717  39.0845695  77.7475582  45.6761353  39.6801904
  75.7258557  45.8964759  39.0266344  75.0492366  45.3472884  38.3718986
  75.0668002  46.0198999  40.4330661  74.0535146  46.4050215  40.3189045
  75.0190168  44.6733242  41.1091792  76.0320405  44.2877420  41.2241151
  74.5560557  44.7752275  42.0907000  74.4343563  43.9819980  40.5022676
  75.7977369  47.0343081  41.3214295  75.7753346  48.0156304  40.8475026
  75.3053515  47.0889685  42.2923407  76.8327160  46.7202545  41.4566680
  75.7649345  47.2614286  38.3486478  76.7861875  47.9613261  38.3814644
  74.6452668  47.6262230  37.7333272  73.9157623  46.9410156  37.5976315
  74.4401993  48.9662899  37.2041872  75.1910781  49.6614728  37.5796881
  74.4846802  48.9787163  35.6494731  73.8366241  48.1831523  35.2817768
  74.0238494  50.3075129  35.0836166  74.6717544  51.1035643  35.4505255
  74.0698285  50.2750227  33.9950714  72.9981559  50.5007136  35.3978268
  75.9002965  48.6635760  35.1526652  76.1995675  47.6775802  35.5081244
  75.9146374  48.6761232  34.0628319  76.5946539  49.4126334  35.5332983
  73.0895226  49.4541965  37.7259080  72.1316198  48.6802410  37.7868100
  73.0328357  50.7206346  38.1283259  73.8824611  51.2636832  38.1860687
  71.7754499  51.3523030  38.5373553  70.9738696  50.6142912  38.5674687
  71.8800041  52.0281196  39.9306877  72.6937359  52.7529906  39.9082849
  70.5713393  52.7402369  40.2947679  69.7571687  52.0158780  40.3178230
  70.6709172  53.2054855  41.2754454  70.3545455  53.5061661  39.5501508
  72.2136120  50.9976221  40.9898939  73.1665453  50.5255171  40.7508606
  72.2839915  51.4850075  41.9623145  71.4306670  50.2398549  41.0196728
  71.3794792  52.3828775  37.4873618  72.1487393  53.3009585  37.1866375
  70.1886344  52.2171262  36.9188293  69.6373483  51.3965161  37.1256677
  69.6754445  53.1652403  35.9371360  70.4797507  53.8256371  35.6129961
  69.1142478  52.4360161  34.7084251  68.2845088  51.8629505  35.1222225
  68.7290243  53.1816940  34.0129632  70.0686614  51.4909489  33.9673444
  70.4450891  50.7445301  34.6668171  69.3408549  50.7933836  32.8230069
  68.9645161  51.5391868  32.1228316  70.0305610  50.1260188  32.3062570
  68.5065641  50.2156681  33.2208813  71.3007966  52.2454611  33.4589476
  71.8309666  52.6869056  34.3028349  71.9616805  51.5532751  32.9372080
  70.9878470  53.0339203  32.7744817  68.6185127  54.0414602  36.5934400
  67.5606901  53.5549481  36.9906831  68.9331097  55.3282946  36.7246803
  69.8100453  55.6615910  36.3505190  68.0754895  56.2786814  37.4343807
  67.1968694  55.7701789  37.8313077  68.8527295  56.9005225  38.6038616
  68.9362691  56.1280705  39.3683472  69.8450211  57.1440329  38.2241773
  68.2186385  58.1521378  39.2116056  68.8540235  58.4947969  40.0282888
  68.1981215  58.9077582  38.4262929  66.8077954  57.9218041  39.7298702
  66.5639681  56.8669109  40.3556926  65.9543120  58.8065329  39.5233321
  67.5725656  57.3665530  36.4943100  68.3719296  58.0275212  35.8236767
  66.2522403  57.5663300  36.4747073  65.6589883  56.9930893  37.0574135
  65.6163738  58.5239847  35.5646341  65.9507290  58.2497617  34.5640805
  64.0869551  58.3954125  35.6234703  63.7362196  58.6754893  36.6167686
  63.6375657  59.0546216  34.8807774  63.8001644  57.3647541  35.4146792
  66.0277095  59.9735770  35.8079346  66.1855720  60.7352390  34.8605512
  66.1775165  60.3483762  37.0786389  66.0859524  59.6652805  37.8169448
  66.4285111  61.7448716  37.4505413  65.9466925  62.4095550  36.7335015
  65.8686001  62.0390352  38.8418620  66.2625862  61.2618575  39.4967430
  66.2807737  63.0043876  39.1356438  64.3475870  62.0790527  38.9583596
  63.9397584  62.9128148  38.3868550  63.9097862  61.1465100  38.6022745
  64.0189177  62.2629126  40.4201674  64.2398562  61.3200806  40.9205201
  64.6799030  63.0404583  40.8030779  62.6354838  62.6368733  40.7145859
  62.3433829  63.5684404  40.4558213  61.7490844  61.8320515  41.2992832
  62.0758848  60.5768914  41.6120972  63.0025055  60.2328539  41.4044624
  61.3951582  59.9765089  42.0551004  60.5305018  62.2799648  41.5707868
  60.2800637  63.2291052  41.3330615  59.8586398  61.6698351  42.0140045
  67.9153908  62.0959383  37.4269846  68.7722328  61.2129931  37.3007532
  68.2107676  63.3872886  37.5674551  67.4703688  64.0712779  37.5036784
  69.5895062  63.8662470  37.7043485  70.2574234  63.2427756  37.1099839
  69.7070792  65.3209250  37.2129766  70.7617121  65.5958950  37.2284771
  69.3411517  65.3440638  36.1864964  68.9097826  66.3125542  38.0602893
  68.2976386  65.9110719  39.0730171  68.9036657  67.5164568  37.7109685
  70.1298315  63.7200035  39.1369976  71.1680068  64.2949505  39.4881757
  69.4284872  62.9393200  39.9542781  68.5999963  62.4847836  39.5977690
  69.7888945  62.7234143  41.3511261  70.8713598  62.7798488  41.4659445
  69.1429875  63.7949725  42.2465172  69.5236292  63.6359893  43.2554451
  69.4838687  64.7626554  41.8784276  67.6098851  63.7681293  42.2688208
  67.2550967  64.0697619  41.2833038  67.2955707  62.7439616  42.4697910
  67.0248984  64.6925739  43.3217660  67.4557661  64.4552602  44.2944603
  67.2542711  65.7270091  43.0659702  65.5710322  64.5408123  43.4031205
  65.0140650  65.1094312  42.7813815  64.9475389  63.7009303  44.2243704
  65.6518860  62.9421747  45.0581708  66.6598314  63.0061819  45.0651943
  65.1758647  62.3051537  45.6808325  63.6199222  63.6313329  44.2219208
  63.0877030  64.2177469  43.5950545  63.1496307  62.9923665  44.8469381
  69.3234257  61.3374592  41.7924517  68.4172914  60.7635991  41.1875317
  69.9459111  60.8107139  42.8473628  70.8145103  61.2084480  43.1751468
  69.4307389  59.6140555  43.5216054  68.7542402  59.0434822  42.8852920
  70.5554112  58.6671412  44.0257667  70.1027377  57.8680534  44.6128310
  71.3318195  58.0609453  42.8512584  71.7851951  58.8594591  42.2639533
  72.1125612  57.4026323  43.2322663  70.6505711  57.4890800  42.2212010
  71.4945132  59.3818453  45.0018202  70.9260505  59.7315352  45.8636027
  72.2687019  58.6902941  45.3342183  71.9581291  60.2331143  44.5033202
  68.5350512  60.0161343  44.7015538  68.5086464  61.1871941  45.0995019
  67.8138692  59.0453989  45.2600047  67.8222542  58.1154844  44.8659386
  66.9926498  59.2886623  46.4512728  67.3319649  58.5873278  47.2135683
  67.2054503  60.3074634  46.7750932  65.4905892  59.1312429  46.2671103
  64.7913994  58.7515234  47.2107918  65.0057631  59.4350949  45.0635973
  65.6386211  59.7960049  44.3640731  63.5926245  59.2701775  44.7044586
  63.4763329  59.5913916  43.6693756  63.3542848  58.2095448  44.7841564
  62.6347791  60.0577225  45.5758083  62.6310995  61.2940859  45.5559801
  61.8337127  59.3315560  46.3524760  61.8231466  58.3277035  46.2417157
  60.8568359  59.9418883  47.2638564  60.4299538  60.8313388  46.8004466
  59.7183537  58.9600363  47.5832697  60.1704221  57.9946999  47.8109954
  59.1986153  59.3343667  48.4652271  58.7190966  58.7971141  46.4325731
  58.2185648  59.7519448  46.2717404  59.2695454  58.5200482  45.5334943
  57.6713938  57.7158331  46.7453559  57.5086328  57.6792842  47.8225152
  56.7368734  57.9709403  46.2456647  58.1003596  56.3916756  46.2904885
  58.9413513  56.3554560  45.7323484  57.4716257  55.2493755  46.5684044
  56.3781105  55.2387738  47.3288959  56.0175505  56.1054492  47.7016831
  55.9145249  54.3641087  47.5292679  57.9318162  54.1071508  46.0732941
  58.7555227  54.1091066  45.4888252  57.4561831  53.2412524  46.2832750
  61.5111028  60.5136220  48.5372068  60.8313418  61.1038352  49.3866645
  62.8254764  60.3320577  48.6670315  63.2974189  59.6203619  48.1277183
  63.6161740  61.1217678  49.6218431  62.9506040  61.6674961  50.2906454
  64.5936016  60.2684223  50.4805391  65.0932692  60.9252149  51.1926178
  63.8545379  59.1688315  51.2357602  63.3549684  58.5113218  50.5242751
  64.5660902  58.5912011  51.8257904  63.1135585  59.6169254  51.8977736
  65.6098850  59.6863622  49.6489761  66.2054799  59.1631608  50.1903884
  64.4091935  62.1736830  48.8565826  64.9404207  61.8991350  47.7754544
  64.4802225  63.3759333  49.4253663  64.0235074  63.5254959  50.3137028
  65.1817910  64.4947055  48.8131249  66.0889467  64.1384725  48.3250001
  64.2968392  65.1754097  47.7646179  64.0848383  64.4402857  46.9882497
  63.3707939  65.4430538  48.2734467  64.9027069  66.4126981  47.1358454
  66.1376792  66.3604963  46.4855837  66.6650893  65.4077321  46.4389112
  66.6976652  67.4965576  45.9027780  67.6648648  67.4468250  45.4026245
  66.0106211  68.6948128  45.9614722  66.5510834  69.8219018  45.3861715
  67.4032916  69.6610655  44.9745011  64.7829786  68.7738285  46.5973018
  64.2480968  69.7223802  46.6447528  64.2322188  67.6341629  47.1776811
  63.2632645  67.6892051  47.6738645  65.5471890  65.4840683  49.9025061
  64.6663437  66.0632317  50.5444957  66.8476899  65.6535042  50.1151342
  67.5135892  65.0876041  49.6087406  67.3540674  66.6063037  51.0934394
  66.5447237  66.9444858  51.7405057  68.4751180  65.9983475  51.9779522
  69.3137230  65.7194378  51.3399465  68.9472770  67.0070179  53.0291719
  68.1092620  67.2860675  53.6678908  69.7329860  66.5582621  53.6369372
  69.3361104  67.8956507  52.5319387  68.0017087  64.8128726  52.6287048
  68.7019959  64.4451014  53.1727109  67.8796608  67.8379642  50.3639676
  68.8686321  67.7671937  49.6326337  67.1916604  68.9578400  50.5469911
  66.3266080  68.9320423  51.0676812  67.6238017  70.2320312  49.9883493
  68.0953158  70.0776707  49.0178100  66.4103036  71.1509236  49.8029603
  65.8356446  70.6270291  49.0391535  65.8580202  71.1415885  50.7426389
  66.6431761  72.5990174  49.3624870  67.4030147  73.0385266  50.0086896
  67.1042885  72.6746413  47.9133295  66.3447073  72.2357098  47.2664336
  67.2597543  73.7169483  47.6348922  68.0389689  72.1254782  47.7997829
  65.3775564  73.4018572  49.5667249  65.1017658  73.3843942  50.6211129
  65.5454919  74.4320275  49.2526418  64.5721113  72.9684972  48.9738032
  68.6549059  70.8951092  50.9037780  68.4834786  70.9137054  52.1217665
  69.7209942  71.4360909  50.3128089  69.8821062  71.2931643  49.3260393
  70.7128986  72.2014129  51.0756777  70.3789678  72.2884521  52.1096088
  72.0887068  71.5256001  51.0605155  72.3140322  71.3027716  50.0175989
  72.8002649  72.2608043  51.4363609  72.1932765  70.2537052  51.8835378
  73.1939654  70.1945096  52.3115779  71.4570850  70.2942092  52.6863351
  71.9398417  69.0396122  51.0319434  70.8679584  68.9509584  50.8550095
  72.4557337  69.1632992  50.0797583  72.4134149  67.8097325  51.6649942
  72.7893277  67.8823159  52.5996174  72.3709718  66.6115030  51.0893053
  71.8880830  66.4762619  49.8579633  71.5523572  67.2874235  49.3585585
  71.8591945  65.5629849  49.4276260  72.8189960  65.5478616  51.7417740
  73.1914108  65.6514550  52.6748740  72.7858220  64.6388917  51.3027159
  70.8510543  73.6197377  50.5484200  71.0434272  73.8253272  49.3424765
  70.7397148  74.5818131  51.4597204  70.3536290  74.3354148  52.3599009
  71.0358821  75.9907615  51.1936013  71.9526389  76.0552916  50.6075193
  69.9021275  76.6868621  50.4133966  70.2113840  77.6910786  50.1235538
  69.7253697  76.0893589  49.5190551  68.6021971  76.7857291  51.1965673
  68.5860753  77.1791265  52.3568555  67.4927636  76.4628118  50.5330715
  66.5978943  76.5085300  50.9991388  67.5517499  76.1737983  49.5671043
  71.3583237  76.6970156  52.5088590  71.2148171  76.1046670  53.5750189
  71.7919571  77.9514173  52.4345064  71.8790965  78.4075039  51.5375722
  72.2505161  78.6672982  53.6232992  72.9373639  78.0371879  54.1883659
  72.9758922  79.9545700  53.2353947  72.9452343  80.0356707  52.1488488
  72.4285062  80.7873270  53.6769651  74.4179175  79.9923896  53.7044092
  74.9306524  79.1085432  53.3249104  74.8934738  80.8876758  53.3038960
  74.5422082  80.0129337  55.2237945  73.9528999  80.8630357  55.9017351
  75.3140089  79.0743991  55.7651100  75.4334424  79.0392700  56.7674088
  75.7770264  78.4012460  55.1713246  71.1553418  78.9780070  54.6304945
  71.4248378  79.0483564  55.8276673  69.9336240  79.1651808  54.1390838
  69.7820693  79.1189697  53.1415894  68.8044101  79.5295468  54.9964918
  69.1130657  80.2993113  55.7038061  67.6412700  80.0728613  54.1575852
  67.4610777  79.3547663  53.3576042  66.7690679  80.1157324  54.8099085
  67.8940527  81.4531129  53.5548220  68.9463429  81.5172703  53.2779284
  67.2771271  81.5539455  52.6618843  67.5575585  82.5716722  54.5331685
  66.4892172  82.5336363  54.7460043  68.1170422  82.4044697  55.4535601
  67.9138814  83.9416542  53.9634956  67.6362963  84.6954343  54.7002876
  68.9917356  83.9700877  53.8037424  67.2121622  84.2231696  52.6748446
  66.2133857  84.1972948  52.8227490  67.4791907  85.1374488  52.3388543
  67.4695742  83.5250586  51.9918518  68.3220947  78.3826318  55.8800357
  67.8388763  78.6184977  56.9885109  68.4484544  77.1501459  55.3871305
  68.8693479  77.0106028  54.4796748  67.9283804  75.9766402  56.1014844
  67.4327761  76.2673996  57.0277320  66.9172156  75.1723256  55.2260385
  66.4692148  74.3880954  55.8362660  65.8261993  76.0819627  54.6909145
  66.2734215  76.8662318  54.0801649  65.1327858  75.5001861  54.0836137
  65.2878349  76.5335970  55.5241563  67.6237591  74.4739680  54.0661980
  68.3701996  73.7829576  54.4579036  66.8934174  73.9219841  53.4745778
  68.1126811  75.2177973  53.4370923  69.0312676  75.0259672  56.5803222
  68.7805383  74.1457322  57.4051242  70.2416341  75.2234788  56.0507950
  70.3610706  76.0416370  55.4707506  71.3587399  74.2685720  56.1498329
  72.2204172  74.6874742  55.6300904  71.7621642  73.9639253  57.6063264
  71.8265146  74.9139381  58.1368299  70.9729326  73.3549341  58.0471701
  73.1005215  73.2246979  57.7185260  72.8972488  72.1543273  57.6855418
  73.7121212  73.5044501  56.8607461  73.8445195  73.5597906  59.0020917
  74.9018739  73.3484286  58.8426342  73.7128660  74.6237650  59.1988794
  73.3427419  72.7601083  60.1901675  72.3054593  73.0268275  60.3926678
  73.4058345  71.6961780  59.9617580  74.1781877  73.0616594  61.3923805
  74.1195197  74.0473985  61.6044567  73.8402054  72.5271443  62.1798838
  75.1393230  72.8141850  61.2050987  71.0349353  72.9951988  55.3602302
  71.6259569  72.7512550  54.3052175  70.1038914  72.1989865  55.8802534
  69.7861993  72.3827001  56.8212212  69.5458169  71.0476282  55.1725896
  69.5830673  71.2328678  54.0990916  70.3310589  69.7622186  55.4766161
  69.9203875  68.9781643  54.8404501  71.3615766  69.9639868  55.1843438
  70.2957142  69.3079413  56.9269925  69.2771880  68.4729835  57.4018976
  68.4963921  68.1514482  56.7126428  69.2501572  68.0525957  58.7313386
  68.4433140  67.4133065  59.0896895  70.2533020  68.4638009  59.6054951
  70.2392563  68.0513127  60.9189993  69.4937107  67.4829598  61.1257272
  71.2784252  69.2802766  59.1551031  72.0710126  69.5926340  59.8350579
  71.2933726  69.7029945  57.8240621  72.0926029  70.3527821  57.4675415
  68.0879584  70.8876466  55.5815010  67.7137191  71.2668605  56.6919525
  67.2719195  70.3449348  54.6777740  67.5896318  70.2275819  53.7262560
  65.8755890  70.0094949  54.9927456  65.7766571  69.5875952  55.9929017
  64.9081343  71.2381337  54.8690234  65.2628875  72.0219771  55.5382312
  64.8522081  71.7765177  53.4379259  64.4970760  70.9933241  52.7681573
  64.1713218  72.6266240  53.3953402  65.8483304  72.0936945  53.1293148
  63.4968927  70.8826537  55.3705481  63.5475895  70.5824210  56.4171579
  62.8465751  71.7520115  55.2735757  63.0957822  70.0614488  54.7765499
  65.3836234  68.8465325  54.1357903  65.5862760  68.8319466  52.9209483
  64.7519922  67.8690485  54.7793594  64.7250854  67.8648064  55.7889917
  64.0966508  66.7790723  54.0656638  64.7262013  66.4476981  53.2398572
  63.8547212  65.5952560  55.0006564  63.4814640  66.0010842  55.9409126
  63.0951413  64.9522345  54.5560647  65.1085095  64.7882021  55.2621365
  65.9029779  64.6064027  54.3155326  65.2850214  64.3242871  56.4097459
  62.7617356  67.2574986  53.5057892  61.8582024  67.6160219  54.2746812
  62.6485171  67.2603774  52.1775210  63.4615993  67.0598988  51.6128928
  61.3980835  67.6262506  51.4944650  60.7705148  68.2049646  52.1722163
  61.6744941  68.4678432  50.2444358  62.4137900  67.8836529  49.6964737
  60.7481619  68.5099073  49.6715141  62.2051134  69.8877532  50.4611584
  63.1534079  69.8394944  50.9964242  62.4146707  70.5731859  49.1204777
  61.4666557  70.6222353  48.5847907  62.7922054  71.5827126  49.2830325
  63.1356147  70.0067547  48.5309899  61.2641016  70.7099745  51.3227517
  61.1514202  70.2326544  52.2961827  61.6733891  71.7115246  51.4549735
  60.2907776  70.7770351  50.8367042  60.5738680  66.3967124  51.1347709
  59.4012551  66.5121157  50.7611172  61.2050544  65.2288391  51.2471698
  62.1954990  65.2254105  51.4449252  60.5232053  63.9425926  51.0959654
  59.4840789  64.1179894  50.8174849  61.0159453  63.3651520  50.3137448
  60.5607827  63.1518905  52.3919374  60.4294228  63.7245898  53.4823897
  60.7515971  61.8388678  52.2843494  60.8718482  61.4223902  51.3721075
  60.7941022  60.9624478  53.4601501  59.8120507  60.9638431  53.9330900
  61.0383539  59.9514333  53.1341283  61.8285706  61.4185383  54.4699869
  62.9288465  61.8210803  54.0835945  61.4898069  61.3465932  55.7598764
  60.6059230  60.9404228  56.0316747  62.3458202  61.9102352  56.8059409
  63.3811258  61.9457715  56.4668558  61.8882903  63.3370192  57.1341083
  61.7472873  63.8820934  56.2007747  60.9409806  63.2854199  57.6708036
  62.8481238  64.0090728  57.9333564  62.5394112  64.8977098  58.1247214
  62.4061353  61.0965474  58.1054690  63.4949036  60.8842630  58.6693703
  61.2440150  60.6616702  58.5874579  60.3900294  60.8174344  58.0711775
  61.1495550  60.0657792  59.9236769  61.9120291  60.5021261  60.5689162
  59.7669567  60.3192305  60.5544149  59.0535409  59.8063038  59.9094008
  59.7036081  59.9102784  61.5628023  59.4456601  61.7878420  60.5883852
  58.5610669  62.3460747  59.6638161  58.0731892  61.6930448  58.9401956
  58.2984908  63.7106896  59.6559938  57.5922760  64.1410296  58.9459446
  58.9393775  64.5278303  60.5815262  58.6976194  65.8768288  60.5837412
  58.0724367  66.1469774  59.9071571  59.8356695  64.0025839  61.4982825
  60.3403814  64.6497676  62.2155826  60.0886037  62.6364216  61.4972934
  60.7955507  62.2125276  62.2104833  61.4857083  58.5864506  59.9818989
  61.1279102  57.8173498  59.0871400  62.2092083  58.2149263  61.0337271
  62.6241126  58.9288582  61.6153241  62.4645215  56.8146387  61.3669518
  61.7725497  56.1448593  60.8563933  63.9254348  56.3742325  61.0306295
  64.0688006  55.3489000  61.3715676  64.1888353  56.4522647  59.5325109
  64.0461074  57.4774625  59.1908981  65.2127126  56.1403673  59.3263660
  63.4964533  55.7948873  59.0066176  64.9564270  57.2112809  61.8083801
  64.7947714  57.0847102  62.8788703  65.9625016  56.8796041  61.5516622
  64.8432520  58.2632197  61.5462407  62.1929261  56.6108282  62.8575400
  62.1676908  57.5768956  63.6262532  61.9909259  55.3640475  63.2680308
  62.0185822  54.5852783  62.6254944  61.7212223  55.0903648  64.6750769
  62.3993552  55.7057189  65.2663250  60.6921739  55.3875259  64.8772005
  61.9012505  53.6432073  65.0686122  62.2974860  52.8060065  64.2432048
  61.6059359  53.3312934  66.3402757  61.0989586  54.2625025  67.3608053
  60.4100973  54.9731037  66.9040599  61.9298649  54.8029318  67.8142697
  60.4240395  53.3499001  68.3220307  59.3802569  53.2321960  68.0308905
  60.4754374  53.7815498  69.3215996  61.1490299  52.0621769  68.2652173
  60.4336503  51.2522308  68.4077594  61.9335941  51.9900436  69.0184473
  61.7604985  51.9759098  66.8641569  62.8253322  51.7437171  66.8818775
  61.0252354  50.9301450  66.0240538  59.9163917  51.1894610  65.5365070
  61.6660947  49.7658873  65.8867902  62.5845686  49.7404982  66.3061474
  61.2482789  48.6213703  65.0354543  61.8897120  47.7572859  65.2087196
  59.7581378  48.1766714  65.1922865  59.6486421  47.1923709  64.7370246
  59.3228476  48.1108555  66.6657137  59.4316318  49.0949670  67.1215539
  58.2804770  47.7974518  66.7235143  59.9474592  47.3934313  67.1979387
  58.9020957  49.0445089  64.4348454  57.9899099  48.7634757  64.5374990
  61.6009108  48.7586699  63.5503790  61.4152963  47.8118934  62.7821354
  62.1205020  49.9162684  63.1471323  62.1765472  50.7050135  63.7754948
  62.5656608  50.0966594  61.7685320  62.0565896  49.3780785  61.1262025
  62.2544118  51.5100585  61.2649628  62.7953649  52.1996764  61.9129567
  62.6519379  51.5763970  60.2522081  60.7647998  51.8799957  61.2547718
  60.2394773  51.1848578  60.5998516  60.3677227  51.7958909  62.2663834
  60.5235519  53.2972064  60.7537175  61.4642012  54.0124263  60.4119553
  59.2558259  53.7103294  60.7169443  59.0408336  54.6423490  60.3925693
  58.5166934  53.0892370  61.0136407  64.0633274  49.7983342  61.6996797
  64.8792148  50.6716623  61.4003943  64.4183719  48.5450388  61.9662790
  63.7119074  47.8365704  62.1044081  65.8143303  48.1891419  62.2135817
  66.3070875  48.9827740  62.7752201  65.8922024  46.8935906  63.0262788
  65.3634883  46.0999952  62.4982949  66.9419969  46.6208025  63.1340661
  65.2853192  47.0437190  64.4100849  65.6302307  47.9683963  65.1549809
  64.3660502  46.1445687  64.7543977  63.9289804  46.1963943  65.6634543
  64.1098740  45.4146705  64.1049956  66.6958247  48.1153961  60.9708479
  67.9100053  48.3288311  61.0569576  66.0893712  47.8451212  59.8147896
  65.1094382  47.6011640  59.7970289  66.8520891  47.7584300  58.5608498
  67.7645704  47.1865106  58.7293290  66.0353211  47.0658718  57.4631576
  65.1273996  47.6480771  57.3056306  66.6318543  47.0700473  56.5508909
  65.6643738  45.6361185  57.8187312  66.5896144  45.0812859  57.9742673
  65.0958172  45.6613621  58.7483593  64.8402249  44.9537206  56.7397016
  63.8506522  45.4069063  56.6808152  65.3383914  45.0434389  55.7743622
  64.6873133  43.5332014  57.0583270  65.3959451  42.9076860  56.7024184
  63.6945621  43.0223563  57.7787043  62.7288763  43.8047923  58.2461994
  62.7483361  44.7959894  58.0531978  61.9793600  43.4051170  58.7926284
  63.6635958  41.7208168  58.0290205  64.3949101  41.1232691  57.6709476
  62.9088330  41.3328106  58.5766362  67.3926791  49.1094072  58.0812572
  68.5813834  49.2255460  57.7674502  66.5337606  50.1281222  58.0308895
  65.5426773  49.9724560  58.1475999  66.9865030  51.4694628  57.6519545
  67.6320036  51.4360301  56.7742812  65.8003394  52.4656331  57.3914193
  65.1937681  52.0731001  56.5752762  64.9266527  52.6409999  58.6381783
  65.5324688  53.0339651  59.4546744  64.1166387  53.3369378  58.4198927
  64.5085434  51.6770072  58.9280089  66.3078024  53.8214929  56.8841182
  65.4453007  54.4875772  56.8612424  67.0245681  54.1812534  57.6223043
  66.9644857  53.7946617  55.5106441  66.2481369  53.4354211  54.7718001
  67.2886851  54.8002310  55.2426435  67.8274035  53.1290950  55.5328617
  67.9895096  52.0217970  58.6695564  68.9549992  52.6813301  58.2997240
  67.7751013  51.7306860  59.9492460  66.9360011  51.2469176  60.2355646
  68.6992910  52.1859389  60.9844581  68.8757047  53.2560599  60.8757455
  68.1201448  51.9247511  62.3766680  67.8361229  50.8731704  62.3365576
  68.9157910  52.0579653  63.1096762  66.9042406  52.7673742  62.7833822
  66.1756077  52.7612235  61.9727300  66.2700789  52.1921276  64.0380918
  66.9980166  52.1983782  64.8493664  65.4077151  52.7963624  64.3197473
  65.9487984  51.1682702  63.8467929  67.2824751  54.2351516  62.9900275
  67.6878547  54.6404262  62.0629249  66.3969490  54.8021211  63.2772390
  68.0325106  54.3102376  63.7773698  70.0835731  51.5422934  60.8333935
  71.1019509  52.2178390  60.9887121  70.1055478  50.2456496  60.5260160
  69.2349378  49.7359639  60.4774560  71.3563509  49.5026759  60.3496082
  72.0289342  49.7102728  61.1818548  71.0835328  47.9865198  60.3032624
  70.7296016  47.7102195  61.2964845  70.2812707  47.8433800  59.5793933
  72.2873026  47.0970601  59.9199809  73.1999788  47.6300976  60.1864281
  72.2238859  46.1749414  60.4977158  72.3098069  46.7619008  58.4238005
  72.3676254  47.6883108  57.8523809  73.1848774  46.1483131  58.2096479
  71.1114719  46.0301155  58.0106497  70.5898199  45.5749005  58.7460121
  70.6642526  45.9321492  56.7598326  71.3111226  46.5083863  55.7530918
  72.1566121  47.0307224  55.9331264  70.9545673  46.4215991  54.8121158
  69.5623614  45.2414292  56.5106246  69.0682895  44.7936556  57.2692364
  69.2210458  45.1655383  55.5630789  72.1113677  49.9771794  59.1048431
  73.3247685  50.1956351  59.1541536  71.3930508  50.1257796  57.9917287
  70.4236594  49.8428479  57.9735809  71.9971673  50.6100095  56.7513797
  72.8428079  49.9768291  56.4829143  70.9767472  50.5800039  55.6022006
  70.7463134  49.5174827  55.5244307  70.0887594  51.1208317  55.9294360
  71.4208350  51.1082415  54.2320049  71.7107214  52.1523765  54.3496859
  72.6024179  50.3103800  53.6546758  72.3131203  49.2661648  53.5362685
  72.8800848  50.7221993  52.6844146  73.4525393  50.3765866  54.3336536
  70.2376541  51.0981961  53.2742194  69.4451098  51.7343342  53.6683022
  70.5540975  51.4736268  52.3010716  69.8653615  50.0794243  53.1665103
  72.5862929  52.0082081  56.9252582  73.7249185  52.2649273  56.5262556
  71.8149482  52.9121338  57.5251044  70.8662548  52.6806706  57.7829902
  72.2788611  54.2756716  57.7491367  72.5788290  54.6871394  56.7853874
  71.1630488  55.1284366  58.3128342  70.8580384  54.7342376  59.2822030
  71.5133710  56.1537014  58.4320258  70.3128828  55.1124839  57.6308794
  73.5113249  54.3158025  58.6641664  74.4608973  55.0559551  58.4000749
  73.4995341  53.5079908  59.7211822  72.6820490  52.9485725  59.9183334
  74.6211638  53.4551312  60.6628307  74.8301722  54.4577534  61.0358767
  74.3003246  52.5470379  61.8534228  73.3156931  52.8319708  62.2241159
  74.2656747  51.5229647  61.4817059  75.3180535  52.6422304  62.9878567
  76.2907004  52.3311950  62.6066536  75.3723951  53.6798243  63.3173229
  74.9296260  51.7623747  64.1556353  73.9207195  52.0243929  64.4743091
  74.9497045  50.7209488  63.8344994  75.8958253  51.9536751  65.3198175
  76.8732401  51.5708558  65.0262018  75.9732889  53.0193961  65.5350788
  75.4275922  51.2362970  66.5337926  75.3561577  50.2487014  66.3346653
  76.0862451  51.3813926  67.2856062  74.5221021  51.5911739  66.8062797
  75.9050568  52.9889133  59.9670566  76.9823267  53.5520345  60.1951380
  75.7813652  51.9774746  59.1132421  74.8910626  51.5125581  59.0068779
  76.9246055  51.4664642  58.3588470  77.7245308  51.1972857  59.0486017
  76.5404909  50.2271781  57.5481072  76.0404536  49.5317215  58.2222008
  75.8448033  50.5421611  56.7703511  77.7433447  49.5377767  56.9062105
  78.2830647  50.2797112  56.3177072  78.3814043  49.1823982  57.7153368
  77.3588005  48.3743777  56.0198536  77.9100207  48.2861731  54.8978548
  76.5193104  47.5486046  56.4447712  77.5073298  52.5344917  57.4327377
  78.7227481  52.5722211  57.2067448  76.6408428  53.4042325  56.9138260
  75.6519779  53.2726913  57.0717575  77.0636966  54.4868241  56.0225487
  77.9013515  54.1537827  55.4097544  75.9120817  54.9033767  55.0951232
  75.1337312  55.1894924  55.8025182  76.2207835  55.7777078  54.5221063
  75.3662675  53.8320808  54.1395851  75.2041311  52.9092551  54.6965460
  74.0516548  54.2893548  53.5218280  74.2130980  55.2119462  52.9642797
  73.6789067  53.5183898  52.8474596  73.3206406  54.4655048  54.3109349
  76.3870735  53.4596167  53.0509734  77.2916379  53.0703932  53.5182719
  75.9604390  52.6990527  52.3970417  76.6335692  54.3450814  52.4650630
  77.6302476  55.6923554  56.7775879  78.0731708  56.6652971  56.1650616
  77.6165328  55.6199214  58.1056866  77.1943186  54.8207070  58.5563426
  78.1963908  56.6658088  58.9489910  78.6088103  56.1703415  59.8279230
  79.0045083  57.1211956  58.3765676  77.2373397  57.7517136  59.3989441
  77.6724833  58.8324887  59.8140877  75.9378631  57.4615873  59.3315703
  75.6466365  56.5711277  58.9542532  74.9026015  58.4299516  59.7059047
  75.3028467  59.4419173  59.6440317  73.6977218  58.3196482  58.7584876
  73.3401342  57.3068625  58.9442173  72.9439745  59.0361310  59.0850108
  73.9600578  58.5019814  57.2571760  74.7015424  57.7725138  56.9313255
  72.6697880  58.2986597  56.4735549  71.9279202  59.0281184  56.7985489
  72.8658385  58.4300106  55.4094065  72.2909874  57.2921477  56.6511615
  74.5759427  59.8700339  56.9363100  75.5263842  59.9730052  57.4599103
  74.7428013  59.9510380  55.8622067  73.8968255  60.6593847  57.2585275
  74.4595553  58.2778387  61.1609829  74.6408021  57.2199034  61.7665127
  73.8884039  59.3482362  61.7126135  73.7928876  60.1840538  61.1536994
  73.3684499  59.3649838  63.0794231  73.3837117  58.3557831  63.4909813
  74.2220514  60.2698697  63.9712773  74.2825822  61.2308929  63.4605232
  73.6687442  60.3883405  64.9028973  75.6238661  59.7691958  64.2753894
  75.5476655  58.7503487  64.6551852  76.1937701  59.7683671  63.3462457
  76.3286355  60.6393215  65.3000055  76.3471538  61.8795109  65.1281063
  76.8661300  60.0837427  66.2822931  71.9496742  59.9187467  63.0663435
  71.5835445  60.6472932  62.1448940  71.1681265  59.5768141  64.0907859
  71.4959614  58.8958301  64.7607743  69.8207529  60.1286114  64.2631028
  69.5342444  60.7045945  63.3831849  68.7491638  59.0301416  64.5081214
  67.7714450  59.5089518  64.5620382  68.7447649  57.9864961  63.3883577
  69.7220808  57.5068996  63.3341315  67.9827209  57.2348959  63.5944772
  68.5263579  58.4734714  62.4379610  68.9861952  58.3842134  65.7679876
  68.3202133  57.7077525  65.9110579  69.7563957  61.1131460  65.4235422
  70.6595733  61.1648766  66.2710440  68.6847362  61.8980144  65.4449100
  68.1153377  61.9778520  64.6145423  68.3346542  62.7104303  66.6037909
  68.8119759  62.2981589  67.4927764  68.7982586  64.1605483  66.4268620
  68.7695292  64.6234088  67.4132869  69.8300312  64.1121258  66.0787234
  67.9777669  64.9853427  65.4588777  66.9110986  65.7689036  65.9075245
  66.6749613  65.7765828  66.9716108  66.1578820  66.5283852  65.0244772
  65.3277249  67.1355134  65.3854984  66.4693261  66.5148586  63.6801891
  65.7275913  67.2665590  62.8078480  65.0242495  67.7570226  63.2395371
  67.5184118  65.7477508  63.2045395  67.7582984  65.7344115  62.1413476
  68.2694068  64.9893255  64.0965281  69.1009489  64.3856049  63.7329911
  66.8267091  62.6259441  66.8271577  66.0841678  62.2659999  65.9132760
  66.3856269  62.9520025  68.0368842  67.0450213  63.2387000  68.7461817
  64.9735932  62.8563986  68.4015960  64.5096039  62.0288856  67.8649068
  64.8214575  62.6108993  69.9055414  65.4330941  63.3595275  70.4090847
  63.7716442  62.7784980  70.1461713  65.2323008  61.2251835  70.3716459
  64.5952501  60.4808730  69.8938707  66.2710488  61.0452537  70.0946441
  65.0853963  61.1227690  71.8857088  65.8179803  61.7864799  72.3449555
  64.0808845  61.4502642  72.1536687  65.3046188  59.7072030  72.3829975
  64.5650205  59.0544226  71.9193460  66.3049550  59.3851285  72.0936971
  65.1691871  59.6359920  73.8696065  64.2421794  59.9339834  74.1378555
  65.3191484  58.6853936  74.1761588  65.8547096  60.2404759  74.2994403
  64.1845314  64.1006590  68.0089911  64.5921263  65.2239091  68.3090437
  63.0524201  63.8801290  67.3396187  62.8779043  62.9490702  66.9892289
  62.0591743  64.9241133  67.0648882  62.4800457  65.7655502  66.5144788
  60.8709113  64.3303558  66.2385535  60.5058391  63.4419927  66.7539491
  59.7302295  65.3328240  66.0830790  60.0944481  66.2213275  65.5673201
  58.9253393  64.8810949  65.5032573  59.3552476  65.6128743  67.0674885
  61.3574420  63.8722537  64.8776717  62.1222462  63.1059056  65.0037155
  60.5214737  63.4609617  64.3119018  61.7788981  64.7200743  64.3376015
  61.5655327  65.4782042  68.4086360  61.3630996  64.7178739  69.3551891
  61.3953098  66.7963894  68.4994808  61.6093826  67.4031341  67.7209353
  60.9866691  67.4075336  69.7618728  61.6197307  67.0346217  70.5670242
  61.1127007  68.9260667  69.7064882  62.1351083  69.1703259  69.4181838
  60.4208700  69.3312425  68.9680420  60.8221698  69.5663040  71.0417612
  61.4812859  69.2638865  72.0329679  59.8139864  70.4395139  71.0817718
  59.5791742  70.8955696  71.9518156  59.2903082  70.6404050  70.2418286
  59.5753300  67.0362826  70.2180403  58.5952842  67.3599372  69.5427339
  59.4858860  66.3561233  71.3630325  60.3199799  65.9544887  71.7668596
  58.1968140  66.0711226  72.0026739  57.4637486  66.8107751  71.6807601
  57.6773246  64.6664370  71.6284414  58.0051756  64.4503547  70.6116222
  58.1291629  63.9506476  72.3151640  56.1469796  64.5553502  71.7072376
  55.8519074  64.8342422  72.7187971  55.7508171  65.2838954  70.9998649
  55.5936464  63.1804671  71.3801263  56.2606207  62.1583883  71.6551942
  54.4634838  63.1206747  70.8494934  58.2777556  66.2561522  73.5258540
  57.6185267  65.5477724  74.2903664  59.0850572  67.2244745  73.9553781
  59.6241956  67.7599548  73.2900285  59.2700567  67.5017118  75.3844749
  59.3873259  66.5823075  75.9580974  60.5076255  68.4060943  75.6376760
  60.3817541  69.3335487  75.0790312  60.6632339  68.7243350  77.1240779
  60.7896235  67.7973343  77.6833599  61.5374269  69.3586549  77.2707934
  59.7738077  69.2443513  77.4798949  61.7812290  67.7508832  75.1043818
  61.6831210  67.5846318  74.0316109  62.6331509  68.4038799  75.2939181
  61.9370407  66.7961729  75.6067281  58.0192662  68.1507557  75.9839999
  57.5472203  67.7485713  77.0482839  57.4924365  69.1537182  75.2876934
  57.9442620  69.4482724  74.4337666  56.3403145  69.9217833  75.7641353
  56.2641067  69.8491391  76.8490382  56.5045525  71.4018844  75.3811149
  56.3904287  71.4660461  74.2990066  55.6946586  71.9483420  75.8643913
  57.8571039  72.0180365  75.7924498  57.6867316  73.0803530  75.9672578
  58.1565573  71.5402914  76.7252876  58.9661457  71.8439170  74.7513126
  58.7750657  71.1122521  73.7507349  60.0481296  72.4512709  74.9382086
  55.0154952  69.3275909  75.2434674  55.0095118  68.2215871  74.7048611
  53.9040551  70.0502261  75.4071360  53.9623122  70.9894964  75.7738467
  52.5713755  69.4918315  75.1273389  52.5407008  68.4467493  75.4354972
  51.4845904  70.2603840  75.8910557  51.4646241  71.2687643  75.4776916
  50.5391694  69.7618291  75.6772281  51.6898386  70.3339763  77.3987889
  51.5477247  69.3379279  77.8180645  52.7085580  70.6683007  77.5951052
  50.7072208  71.2992086  78.0422382  49.6936218  71.0095909  77.7650420
  50.8164284  71.2457479  79.1254349  50.9331725  72.6800186  77.6160473
  51.7716877  72.8576207  77.0817729  50.1180954  73.6992153  77.8759096
  48.9959871  73.5164454  78.5691139  48.7572287  72.5938127  78.9035439
  48.3887689  74.3012840  78.7573003  50.4289455  74.9115867  77.4457542
  51.2814805  75.0557110  76.9237271  49.8122051  75.6870975  77.6414913
  52.2077393  69.4736281  73.6439434  52.5885502  70.3720414  72.8894644
  51.4630559  68.4428829  73.2468591  51.3022697  67.6850085  73.8948356
  50.8643048  68.3543740  71.9110850  51.5561145  68.7456089  71.1651401
  50.5527347  66.8922852  71.5711374  49.9374142  66.5989044  72.4216711
  49.9383205  66.9199988  70.6712334  51.6881756  65.8729409  71.3847395
  52.3771638  66.2706771  70.6396207  52.4478703  65.5949334  72.6850321
  51.7595847  65.1967111  73.4305391  53.2383809  64.8685655  72.4963964
  52.8871400  66.5213666  73.0549836  51.1260412  64.5735088  70.8164733
  50.6567406  64.7708397  69.8526700  51.9341870  63.8538131  70.6859372
  50.3849936  64.1661424  71.5042232  49.5733811  69.1683751  71.8945513
  49.0325110  69.4864990  72.9525894  49.0774683  69.5103041  70.7077185
  49.5820684  69.2905908  69.8608395  47.8046876  70.2344176  70.5920128
  47.3030667  70.2885101  71.5582166  48.0095949  71.6675364  70.0353040
  48.6509872  71.6140292  69.1556147  46.6677143  72.3017293  69.6511259
  46.0259079  72.3560036  70.5304662  46.8377147  73.3061826  69.2634737
  46.1841224  71.6945363  68.8859104  48.7423719  72.5592804  71.0436345
  48.0319525  72.8201811  71.8280681  49.5552840  71.9721997  71.4709630
  49.3081510  73.8367540  70.4236400  48.4957164  74.4246214  69.9964845
  49.8137196  74.4212601  71.1923092  50.0190467  73.5766397  69.6393774
  46.8266620  69.5026404  69.6763038  47.2043917  69.0788386  68.5851845
  45.5765108  69.3634351  70.1262035  45.3802007  69.5292906  71.1029602
  44.4741195  68.9302990  69.2583864  44.8709522  68.6241695  68.2904464
  43.7178444  67.7421557  69.8777574  44.4226053  66.9396795  70.0955724
  43.2211139  68.0485900  70.7983316  42.6579202  67.1542839  68.9932550
  41.5111185  66.5738335  69.4925586  40.7639864  66.1444165  68.4896745
  39.8127355  65.6474503  68.6800566  41.3797931  66.4319213  67.3576749
  41.0440430  66.2242976  66.4280168  42.5652579  67.0664894  67.6445713
  43.2203695  67.3892989  66.8354211  43.5592007  70.1334446  69.0557777
  43.0352630  70.6917461  70.0200820  43.4069293  70.5536699  67.8014743
  43.8855735  70.0696923  67.0553075  42.5822590  71.7144332  67.4593201
  42.3156517  72.2597704  68.3646526  43.3500655  72.6558777  66.5298447
  44.2956947  72.9017026  67.0130161  43.5462660  72.1978693  65.5603944
  42.6569134  73.9567055  66.2571666  42.8205521  75.0696439  67.0552314
  42.1102305  76.0696226  66.5640951  42.0985778  77.0385258  67.0632843
  41.5032628  75.6522740  65.4671137  40.8943709  76.2017894  64.8777213
  41.8337962  74.3354366  65.2494118  41.4348693  73.8096286  64.3819532
  41.3167713  71.2119238  66.7840851  41.3739878  70.6028215  65.7130639
  40.1792993  71.4578071  67.4250639  40.2025303  71.9317854  68.3166379
  38.8998378  70.9551822  66.9433198  38.8467986  70.8725736  65.8577500
  38.5622312  69.5628019  67.5671501  39.3426684  68.8595556  67.2765272
  38.4772951  69.6274007  69.0901861  37.6967017  70.3301514  69.3815902
  38.2407974  68.6387963  69.4836716  39.4336633  69.9594409  69.4941798
  37.2820125  68.9770016  66.9637455  37.4104508  68.8524508  65.8885280
  37.0752602  68.0084696  67.4190464  36.4480122  69.6526323  67.1536596
  37.8078627  72.0021597  67.1929485  37.7881533  72.6545947  68.2350646
  36.9315143  72.1682836  66.2013370  37.0564924  71.6246384  65.3593574
  35.8748652  73.1945316  66.2196123  35.5026050  73.3499485  65.2070082
  34.7032870  72.7690848  67.1123903  35.1174631  72.4760492  68.0771117
  34.0595797  73.6389532  67.2430424  33.8908758  71.6196220  66.5401601
  33.9697477  71.6458892  65.4533344  34.3057075  70.6825357  66.9114899
  32.4262519  71.7218558  66.9451526  31.9336902  70.7835076  66.6902314
  32.3785041  71.8754934  68.0232134  31.7206801  72.8768091  66.2344570
  32.3513099  73.7621427  66.3156425  31.6041240  72.6094529  65.1842025
  30.3836035  73.1642287  66.8246249  30.4914254  73.4124074  67.7977033
  29.9538556  73.9310380  66.3272113  29.7989510  72.3441199  66.7491127
  36.3982562  74.5849138  66.6035500  35.7800267  75.3144669  67.3868544
  37.5534526  74.9315090  66.0409115  38.0506026  74.2530187  65.4818122
  38.1363615  76.2575056  66.1978424  38.8676703  76.3622306  65.3963941
  37.3223663  76.9652582  66.0410072  38.8089973  76.5642199  67.5233972
  39.1237610  77.7236793  67.7810084  39.0267845  75.5404398  68.3539585
  38.7010879  74.6194406  68.0974795  39.6881443  75.7085728  69.6578555
  40.1341183  76.7014861  69.7155575  38.6851961  75.5551279  70.8050994
  38.2646903  74.5531787  70.7192394  39.2564030  75.6308099  71.7303534
  37.5559645  76.5805816  70.8197500  37.9823188  77.5799317  70.7324450
  36.8946903  76.3930728  69.9737837  36.7631477  76.4788967  72.1154212
  36.3728758  75.4649346  72.2029865  37.4356623  76.6820412  72.9488214
  35.6108219  77.4687871  72.1420681  35.9954631  78.4583459  71.8952380
  34.8758907  77.1685184  71.3951986  34.9667897  77.5075005  73.4841772
  35.6475195  77.7861328  74.1763266  34.2061367  78.1718750  73.4735293
  34.6099272  76.5907493  73.7129028  40.8260347  74.7026950  69.8456964
  40.7308987  73.5685926  69.3650926  41.8716972  75.1160262  70.5618475
  41.8956276  76.0713061  70.8889056  43.0302490  74.2556918  70.8387289
  43.0335087  73.4109430  70.1498979  44.3376782  75.0349349  70.6639654
  44.2535229  75.9894282  71.1835417  45.1549144  74.4574428  71.0960856
  44.5988745  75.2672824  69.2859715  45.4201578  75.7557647  69.1938915
  42.9809798  73.6382491  72.2328989  42.6760643  74.3210069  73.2162272
  43.3097077  72.3490986  72.3010295  43.5553700  71.8731689  71.4447350
  43.3097586  71.5802179  73.5471859  43.1605155  72.2470573  74.3963919
  42.1755362  70.5467999  73.5299558  42.3831696  69.8538208  72.7146231
  42.2142169  70.0123098  74.4791261  40.8011166  71.1441239  73.3447020
  40.2641371  71.3243656  72.0687976  40.8535071  71.0210227  71.2035083
  39.0010191  71.8797952  71.8900892  38.5946352  72.0192718  70.8883406
  38.2597796  72.2577611  72.9966256  37.0130504  72.8037818  72.8010684
  36.7737155  72.8697937  71.8737276  38.7648496  72.0871256  74.2737559
  38.1802647  72.3843935  75.1443837  40.0348023  71.5288375  74.4423098
  40.4398542  71.3885948  75.4444899  44.6569248  70.8727251  73.7215732
  44.9092147  69.8632795  73.0555564  45.5343311  71.4093498  74.5948534
  45.3525619  72.6398790  75.3852481  44.7809665  72.4178926  76.2864146
  44.8204046  73.3835409  74.7920580  46.7526272  73.0472220  75.6824113
  46.7699930  73.5617716  76.6431590  47.0921026  73.7267706  74.9007008
  47.5763186  71.8251161  75.7113736  47.6190282  71.4716652  76.7415908
  48.5889140  71.9769835  75.3376272  46.8435726  70.7969254  74.8366033
  47.3232725  70.6277830  73.8725612  46.7287784  69.4789187  75.5822746
  45.7992070  69.2915748  76.3747444  47.6711774  68.5775306  75.3249178
  48.3766952  68.7656400  74.6270935  47.6646884  67.2667860  75.9663480
  47.4415684  67.3794839  77.0272984  46.5983092  66.3516021  75.3333095
  46.4439282  65.4511944  75.9278948  45.6649040  66.9113064  75.2734263
  46.9189293  65.8920676  73.9264535  47.4706963  64.6330180  73.7008606
  47.6773837  63.9868306  74.5539855  47.7588102  64.1945310  72.4070239
  48.2044618  63.2122906  72.2498641  47.4755693  65.0154318  71.3140777
  47.6930995  64.6803988  70.2999113  46.9091614  66.2746754  71.5273983
  46.6852321  66.9258854  70.6824833  46.6296720  66.6984665  72.8296996
  46.1774786  67.6755770  72.9996292  49.0303565  66.6033420  75.9264029
  49.9383369  67.0666188  75.2288326  49.1549935  65.5151457  76.6822676
  48.3994377  65.2717427  77.3067592  50.3468269  64.6744224  76.6782332
  51.0210102  64.9947542  75.8839010  51.0810749  64.7778719  78.0124678
  50.3737816  64.5195282  78.8005629  51.8929387  64.0506556  78.0009039
  51.6458678  66.1619350  78.2739026  52.2069709  66.4755111  77.3935992
  50.8138207  66.8469607  78.4368126  52.5535738  66.1770228  79.4807187
  51.9992161  65.8361315  80.3551211  53.3996894  65.5124988  79.3058024
  53.0606120  67.5209144  79.7429510  52.5021374  68.1076310  80.3462495
  54.1936509  68.0138795  79.2495575  54.9643442  67.2779012  78.4554608
  54.6891248  66.3343955  78.2227566  55.8217268  67.6654660  78.0883256
  54.5542947  69.2514773  79.5507168  53.9682721  69.8128263  80.1520194
  55.4138087  69.6286573  79.1777965  49.9424036  63.2336769  76.4068622
  48.7966936  62.8483726  76.6583598  50.8889919  62.4428050  75.9031852
  51.8319964  62.7918680  75.8083328  50.6109327  61.0707739  75.4769321
  51.4840524  60.4405646  75.6460398  49.7616620  60.6702024  76.0304491
  50.2800051  61.0692036  73.9951128  50.0501603  62.1357353  73.4178732
  50.2763758  59.8809973  73.3608917  50.5152454  58.5567830  73.9653384
  49.9077472  58.4532622  74.8644100  51.5691835  58.4618638  74.2266883
  50.1072314  57.6049198  72.8824114  49.0509900  57.3578580  72.9892453
  50.7016855  56.6938671  72.9510316  50.3723639  58.3176772  71.6011844
  49.7413503  57.9789076  70.7795057  51.4204692  58.1959184  71.3277802
  50.0797120  59.7922333  71.9099839  50.8413188  60.4325828  71.4650055
  48.6940792  60.2007233  71.3806647  48.6097422  60.7204621  70.2632298
  47.6340306  59.9715533  72.1619861  47.7806104  59.5874797  73.0845376
  46.2510003  60.2498273  71.7321306  46.2367910  60.4989425  70.6710751
  45.3597926  59.0184788  71.9594908  45.3608771  58.7142272  73.0061661
  44.3450176  59.2785033  71.6582950  45.7493352  57.8055828  71.1581315
  46.5781189  56.8265977  71.7083186  46.9536856  56.9610680  72.7226989
  46.9269639  55.6899628  70.9809995  47.5814043  54.9379822  71.4218324
  46.4370778  55.5157426  69.6869864  46.7059346  54.6299517  69.1114948
  45.5985145  56.4825738  69.1292068  45.2130320  56.3551692  68.1176380
  45.2537927  57.6148997  69.8703618  44.5882625  58.3645759  69.4423957
  45.6344188  61.4265973  72.5011434  45.8238429  61.5289995  73.7122125
  44.8796225  62.3119628  71.8108518  44.6753897  62.3981665  70.3531605
  43.9831479  61.6176091  70.0375158  45.6302125  62.2635398  69.8449399
  44.1178467  63.7701853  70.1631386  43.4306651  63.7606265  69.3170954
  44.9356199  64.4611919  69.9585461  43.4189180  64.1330210  71.4274783
  42.3903067  63.7819333  71.3450448  43.4213300  65.1995745  71.6523283
  44.1457574  63.3622769  72.5377048  44.8625738  63.9705262  73.0893435
  43.1308344  62.7532131  73.5174939  42.3981112  61.8417922  73.1394798
  43.1085153  63.2292020  74.7779880  43.9735921  64.2725059  75.3553796
  44.0505405  65.1078931  74.6594575  44.9660965  63.8614502  75.5399522
  43.2631036  64.6426984  76.6233594  42.5399600  65.4347025  76.4287011
  43.9821754  64.9830563  77.3684725  42.5927526  63.3926243  77.0655000
  41.7108431  63.6481182  77.6529160  43.2380551  62.7344819  77.6473358
  42.1702740  62.6966370  75.7675676  42.2981349  61.6147520  75.8032714
  40.7151072  63.0263846  75.4337111  40.4223073  64.1008558  74.9028571
  39.8251513  62.0858064  75.7350649  40.1472747  61.2194708  76.1422485
  38.3957031  62.2449935  75.4885907  38.1642607  63.2372110  75.1012433
  37.8728600  61.1858278  74.4828611  37.9804287  60.1960185  74.9264890
  36.4130464  61.4343571  74.1489461  36.3047425  62.4238637  73.7048200
  36.0678707  60.6797088  73.4422211  35.8168128  61.3782109  75.0596901
  38.7162327  61.1853546  73.2072356  39.7516652  60.9524548  73.4557093
  38.3311990  60.4349525  72.5167680  38.6678346  62.1683215  72.7386905
  37.6685275  62.0963226  76.8201025  37.8209651  61.0761432  77.5006890
  36.8838557  63.1081609  77.1883732  36.7983704  63.9213828  76.5955310
  36.2560743  63.1437803  78.5094980  36.7218065  62.3986046  79.1544056
  36.4175171  64.5228525  79.1585897  36.2359596  65.3029639  78.4192911
  35.7382301  64.6557904  80.0006091  37.8025354  64.7457230  79.6857452
  38.8427923  65.3328027  79.0269918  38.6457797  65.6879234  78.0154706
  39.9634490  65.3467379  79.8245101  40.8620434  65.7305979  79.5690123
  39.6613374  64.7587373  81.0254422  40.4653078  64.5448934  82.1547970
  41.5017114  64.8812594  82.1260905  39.8908454  63.9204201  83.2332065
  40.4866361  63.7343203  84.1267949  38.5424380  63.5116084  83.2137757
  38.0936285  63.0166498  84.0749874  37.7413809  63.7281985  82.0914188
  36.7027077  63.3994652  82.1259603  38.3058633  64.3633185  80.9732594
  34.7961894  62.6924553  78.5563045  34.3768582  62.0810162  79.5408661
  34.0286106  62.9944927  77.5117998  34.3826400  63.5841284  76.7721428
  32.6409111  62.5393261  77.4316042  32.0973214  62.8667986  78.3178160
  31.9456806  63.1142133  76.1893098  31.9787964  64.2014320  76.2597232
  32.4806215  62.7920368  75.2959227  30.4875857  62.6772379  76.0691197
  30.1676002  61.4909940  76.1644395  29.6025750  63.6377841  75.8410933
  28.6232442  63.4072520  75.7524038  29.9118079  64.5956077  75.7571307
  32.5960627  61.0110373  77.4202948  33.2109523  60.3915369  76.5556069
  31.8847274  60.4029914  78.3931915  31.1371576  61.0739440  79.4748348
  30.2245945  61.5121150  79.0706876  31.7537756  61.8591171  79.9123100
  30.8611355  59.9530377  80.4439161  29.9412567  60.1517191  80.9938686
  31.6890507  59.8529318  81.1457968  30.7353175  58.7425846  79.5982121
  29.7477843  58.6642673  79.1435214  30.9488988  57.8336599  80.1606518
  31.7975216  58.9457146  78.5076880  32.7763480  58.5952547  78.8350641
  31.4045093  58.2255425  77.2151252  32.0597058  57.2404311  76.8629732
  30.3744860  58.7086179  76.5119211  29.8438014  59.4937547  76.8612539
  29.9264312  58.0609696  75.2625398  29.8737710  56.9770183  75.3644008
  28.5563336  58.6015228  74.7650947  28.6173351  59.6875981  74.6956700
  28.1872230  58.0175043  73.3834255  28.1255766  56.9314219  73.4521677
  27.2238671  58.4161844  73.0654629  28.9514088  58.2922322  72.6563466
  27.4547295  58.3408822  75.8044214  27.6901661  58.9587886  76.6709444
  26.5191870  58.6805403  75.3600206  27.3105846  56.8808674  76.2430728
  28.2456513  56.5406205  76.6880247  26.5086787  56.7988627  76.9767768
  27.0746743  56.2623716  75.3770999  30.9763816  58.2025396  74.1674091
  31.3320129  57.2184404  73.5047259  31.4743267  59.4238414  73.9985346
  31.0688312  60.1956271  74.5084557  32.5113054  59.7133418  73.0167986
  32.1917292  59.3382020  72.0445638  32.7644942  61.2370913  72.9005713
  33.2468918  61.5826266  73.8149006  33.6523488  61.5512059  71.7108926
  33.1703708  61.2063564  70.7960836  33.8145269  62.6274648  71.6520347
  34.6108620  61.0457650  71.8287170  31.5090454  61.9117377  72.7181828
  31.6612283  62.8568180  72.6456297  33.7884878  58.9307159  73.3515520
  34.4452525  58.3945630  72.4538693  34.1222339  58.8439209  74.6415234
  33.6329420  59.3965225  75.3309610  35.2695798  58.0443324  75.0789986
  36.1601180  58.3969131  74.5586835  35.5158327  58.1397293  76.5956858
  35.7248178  59.1687837  76.8880410  34.5970505  57.8051733  77.0773615
  36.6630051  57.2506199  77.0253530  36.4315946  55.9433550  77.4542480
  35.4044916  55.5813747  77.5003897  37.4796689  55.1075256  77.8186635
  37.2821597  54.0906745  78.1579358  38.7825507  55.5757141  77.7540060
  39.8220846  54.7426878  78.1188762  39.5258607  53.8729306  78.3970370
  39.0413657  56.8694093  77.3208854  40.0651325  57.2400472  77.2696068
  37.9820021  57.6953618  76.9504702  38.1781032  58.7070237  76.5952456
  35.1594434  56.5791019  74.6557109  36.1220246  56.0079560  74.1337378
  34.0000923  55.9662023  74.8950326  33.2731458  56.4398327  75.4120649
  33.7694633  54.5787270  74.4849612  34.5219767  53.9370290  74.9432695
  32.3832082  54.0915161  74.9153194  31.7308243  54.8543201  74.4903198
  32.2030543  53.1401350  74.4148010  32.0886341  53.9442970  76.4149852
  32.2824056  54.8933107  76.9149116  30.6308066  53.5505224  76.6206902
  30.4363785  52.6013075  76.1214032  30.4286268  53.4477714  77.6868357
  29.9832719  54.3204549  76.2011629  33.0149712  52.9409986  77.0911493
  34.0486898  53.2688287  76.9813645  32.7665177  52.8727778  78.1502612
  32.8932825  51.9626830  76.6261877  33.9375487  54.4056684  72.9710180
  34.5452335  53.4258594  72.5185289  33.4171770  55.3657193  72.2096969
  32.8993090  56.1129572  72.6496374  33.4861513  55.3361698  70.7469996
  33.1276592  54.3730287  70.3837619  32.6200924  56.4438430  70.1351041
  31.7326855  56.5697641  70.7553880  33.2085101  57.3611977  70.1531343
  32.1979840  56.1381419  68.6989960  31.8572822  54.9685013  68.3974466
  32.1954394  57.0744304  67.8804697  34.9304667  55.4330397  70.2484585
  35.3524600  54.6262383  69.4115439  35.6804559  56.4103889  70.7664631
  35.2596286  57.0833179  71.3910993  37.1015079  56.5723564  70.4215388
  37.2016584  56.7089943  69.3447848  37.7043771  57.7918509  71.1282559
  37.3064126  57.8822226  72.1389766  38.7879207  57.6823331  71.1734133
  37.4331312  59.0985477  70.4415600  38.4194978  59.8229491  69.8066517
  37.9012506  60.9327385  69.3123510  38.5259663  61.6477737  68.7770437
  36.6095647  60.9502935  69.5948408  35.9540700  61.6743165  69.3375133
  36.2929006  59.8154144  70.3023825  35.2676795  59.6469856  70.6320104
  37.9050608  55.3250091  70.7864584  38.6664247  54.7978479  69.9681680
  37.7262961  54.8435631  72.0154018  37.1298172  55.3213424  72.6757345
  38.4468626  53.6547319  72.4666414  39.5194829  53.8327393  72.3898411
  38.1101348  53.3127347  73.9222558  38.3836940  54.1516262  74.5621977
  37.0367223  53.1371370  73.9933270  38.8426003  52.0648697  74.4132877
  38.2289928  51.0192350  74.6521141  40.1572443  52.1665197  74.5528880
  40.6908224  51.3715429  74.8744563  40.6190049  53.0384575  74.3370120
  38.1674093  52.4510602  71.5723454  39.0949791  51.7362275  71.1817850
  36.8910086  52.2483553  71.2411326  36.1740902  52.8399403  71.6362966
  36.4798404  51.1401632  70.3874921  36.9100399  50.2144685  70.7697446
  34.9553057  50.9915475  70.3471295  34.5738516  50.8545518  71.3589715
  34.5382532  51.9048046  69.9227136  34.5094488  49.8116115  69.4953597
  33.9916626  49.9873309  68.3922939  34.7272863  48.6012123  69.9950173
  34.4503559  47.7841084  69.4698979  35.1689560  48.5029616  70.8979988
  37.0235700  51.2638110  68.9668322  37.3565846  50.2497359  68.3500503
  37.1174460  52.4913696  68.4474209  36.7570182  53.2980850  68.9367074
  37.6475525  52.6791203  67.0948730  37.0629570  52.0662040  66.4088110
  37.5941255  54.1367632  66.6173664  36.5706503  54.3656568  66.3203722
  37.9157652  54.8417993  67.3838989  38.4569811  54.3872958  65.4138903
  38.1064806  53.8584063  64.1694598  37.1833139  53.2863875  64.0764134
  38.9222892  54.0546970  63.0522994  38.6332728  53.6427872  62.0853969
  40.1050190  54.7770939  63.1752549  40.7463325  54.9307767  62.3073848
  40.4688088  55.3048094  64.4126131  41.3927061  55.8741429  64.5144625
  39.6435524  55.1021286  65.5280692  39.9299543  55.5070875  66.4986783
  39.0732851  52.1367417  66.9551160  39.3276450  51.2874459  66.1060644
  39.9948872  52.6335162  67.7803370  39.7407179  53.3346916  68.4614026
  41.3993883  52.2369434  67.6845107  41.7617654  52.4082370  66.6708833
  42.2584726  53.0528574  68.6560138  41.9080910  52.9007263  69.6768900
  43.3037898  52.7527983  68.5826885  42.2173093  54.5422658  68.4021511
  41.5612946  55.4810829  69.1430667  41.0127251  55.1219640  70.0138163
  41.7461189  56.7295067  68.6021831  41.3639054  57.5894681  68.9688963
  42.5373008  56.6213127  67.4875897  43.0030198  57.6107356  66.6100300
  42.7173409  58.6463009  66.7946667  43.7967005  57.2078709  65.5643126
  44.1819759  57.9471175  64.8620468  44.1268010  55.8505159  65.3771252
  44.7555952  55.5387688  64.5431401  43.6614378  54.8673436  66.2492257
  43.9416679  53.8314452  66.0582116  42.8549140  55.2534227  67.3287411
  41.5566631  50.7415480  67.9502594  42.2643809  50.0273723  67.2222666
  40.8686169  50.2698271  68.9864263  40.3435413  50.9129411  69.5615778
  40.8872503  48.8626104  69.3638849  41.9021340  48.5551497  69.6160321
  39.9902951  48.6406471  70.5864926  40.3415088  49.3178890  71.3650114
  38.9783463  48.9193566  70.2925869  39.9892564  47.2194744  71.1159454
  39.5649942  46.5573022  70.3612068  41.0144709  46.9168406  71.3291355
  39.1595531  47.1337300  72.3902791  39.2641471  46.1355713  72.8155300
  39.5265062  47.8721055  73.1031932  37.7401064  47.3899254  72.1382955
  37.4208054  47.3417100  71.1813098  36.8553802  47.6802863  73.0890148
  37.2402654  47.7536839  74.3585621  38.2068579  47.5883940  74.6003848
  36.5644837  47.9744292  75.0759813  35.5878286  47.8963808  72.7702421
  35.2963948  47.8399673  71.8048489  34.9187290  48.1165494  73.4940723
  40.4445065  47.9687842  68.2077627  41.0850027  46.9521308  67.9256963
  39.3643960  48.3627286  67.5355253  38.8632594  49.1828831  67.8458606
  38.7908231  47.5689825  66.4413200  38.7429162  46.5267901  66.7569768
  37.3606454  48.0407799  66.0706070  37.4171387  49.0709391  65.7189245
  36.7477709  47.1658111  64.9830554  36.6905194  46.1355128  65.3342067
  35.7458901  47.5253403  64.7483794  37.3680697  47.2100766  64.0878624
  36.5288490  47.9580174  67.2344657  35.6406960  48.2483993  67.0143225
  39.7191503  47.5353495  65.2239366  39.8631060  46.4899816  64.5743909
  40.3632574  48.6648129  64.9312260  40.1548019  49.5171116  65.4314584
  41.3557022  48.7161827  63.8552797  40.8691699  48.5183630  62.9001604
  42.0220030  50.0944770  63.7892044  42.3920245  50.3158560  64.7902912
  42.8638446  50.0068491  63.1023826  41.1017264  51.2234421  63.3252788
  40.2394811  51.2264093  63.9920808  41.6551306  52.1550165  63.4436634
  40.5291647  51.0844075  61.6118855  42.0842955  51.2841007  60.7530608
  42.7717491  50.4946950  61.0569444  41.9163097  51.2248263  59.6777152
  42.5143720  52.2547135  61.0001358  42.4121437  47.6362939  64.0692060
  42.7419253  46.8895977  63.1443461  42.9201152  47.5453379  65.2967100
  42.6610844  48.2186253  66.0035950  43.9445226  46.5566997  65.6242019
  44.6799491  46.5096581  64.8210616  44.6626870  46.9317229  66.9241436
  43.8952923  47.0989533  67.6799468  45.2901802  46.0923237  67.2237457
  45.5216287  48.1843559  66.7864598  46.1239618  48.4050501  65.7032946
  45.6081861  48.9479441  67.7691509  43.3863061  45.1315572  65.6845298
  44.0540291  44.1912991  65.2449691  42.1632792  44.9780695  66.2019075
  41.6883651  45.7825477  66.5857966  41.4758029  43.6768259  66.2419867
  42.0393393  42.9858370  66.8689320  40.0582492  43.8198899  66.8197082
  39.6009075  44.6785786  66.3281886  39.5025473  42.9174834  66.5648398
  40.0293416  44.0246089  68.3311630  41.0790452  43.9097417  69.0057071
  38.9142667  44.2966410  68.8379494  41.3607591  43.0753106  64.8335787
  41.7166171  41.9149964  64.5950643  40.8411221  43.8781583  63.9071496
  40.4808073  44.7816348  64.1791841  40.7053895  43.4700166  62.5103454
  40.1369004  42.5418814  62.4513153  39.9693546  44.5488209  61.7013170
  40.4973012  45.4902837  61.8530389  40.0258846  44.2664834  60.6500369
  38.5005339  44.7159473  62.1068825  37.9949346  43.7804031  61.8676605
  38.4830429  44.8723151  63.1854674  37.6406938  46.0789047  61.2960391
  37.0774310  45.3413881  59.7783543  36.4182817  44.5030807  60.0038801
  36.5338416  46.0831253  59.1931729  37.9345528  44.9854157  59.2067538
  42.0687651  43.1672480  61.8929603  42.2127532  42.1967178  61.1521550
  43.0622953  43.9989540  62.2089729  42.8742865  44.7918381  62.8057030
  44.4349994  43.8057451  61.7181882  44.4131739  43.9368879  60.6363267
  45.0512960  44.5854318  62.1658115  45.0424269  42.4487165  62.0401792
  45.7708049  41.8821748  61.2167801  44.7414974  41.9249644  63.2301234
  44.1842019  42.4598779  63.8808065  45.2908591  40.6316707  63.6784560
  46.3745627  40.6369487  63.5615898  44.9581522  40.3705939  65.1527976
  43.8855345  40.5147546  65.2824443  45.2142103  39.3342839  65.3732420
  45.7098607  41.2894460  66.0988806  46.7712847  41.1995873  65.8677846
  45.3795321  42.3083349  65.8967653  45.4808996  40.9635185  67.5727737
  44.4183739  40.8213612  67.7700791  46.0255754  40.0615118  67.8517210
  45.9646384  42.0745777  68.3906473  46.9588580  42.1078230  68.5653510
  45.1985133  43.0421531  68.8918909  43.8874582  43.0321967  68.7030932
  43.4621932  42.2843241  68.1740032  43.3191133  43.7725243  69.0890968
  45.7488061  44.0134114  69.6091699  46.7456591  44.0144002  69.7715985
  45.1682882  44.7472454  69.9894138  44.8509849  39.4524359  62.8137745
  45.4918406  38.4030018  62.8175058  43.7705323  39.6355576  62.0602251
  43.2246099  40.4793630  62.1605268  43.2785637  38.5966844  61.1640033
  43.5912500  37.6178257  61.5275446  41.7448603  38.6269617  61.0934044
  41.4633297  39.6463301  60.8293441  41.4547084  37.9505983  60.2893867
  41.0237545  38.2148438  62.3991702  41.2883759  38.9571906  63.1521625
  39.9518271  38.2595307  62.2066239  41.3936646  36.8154323  62.9088396
  41.8541690  35.9554096  62.1160769  41.2147739  36.5684491  64.1195565
  43.8954530  38.6681518  59.7610874  43.6087876  37.8205226  58.9072603
  44.7586629  39.6599672  59.5432165  44.9846976  40.2854653  60.3033216
  45.3605442  39.9145634  58.2315837  44.9302116  39.2724127  57.4631076
  45.1892731  41.4053259  57.8172898  45.6981198  42.0358027  58.5464499
  45.7827828  41.6492128  56.4320348  45.2740920  41.0193801  55.7022094
  45.6534039  42.6967736  56.1600455  46.8452094  41.4058619  56.4433954
  43.7101718  41.8096243  57.8652609  43.2161092  41.2991900  57.0385447
  43.3119515  41.4396294  58.8100486  43.4573245  43.3085006  57.7601135
  43.8548850  43.6791597  56.8153080  42.3852251  43.5005210  57.8028951
  43.9507295  43.8195995  58.5868113  46.8517657  39.5530071  58.2049485
  47.6638591  40.2290784  58.8370568  47.2186291  38.4829890  57.4735645
  46.3591973  37.5320734  56.7449594  46.1283574  37.9242476  55.7544986
  45.4328723  37.3713855  57.2965030  47.2151305  36.2994768  56.6920229
  46.9314674  35.6743888  55.8453238  47.1165485  35.7273168  57.6145281
  48.6166321  36.8334142  56.5370702  48.7885364  37.0588588  55.4845861
  49.3907780  36.1540101  56.8937323  48.6385339  38.1309690  57.3594137
  49.0373034  37.9858357  58.3634145  49.4410461  39.2235636  56.6448293
  49.0251221  39.7042432  55.5815929  50.5698499  39.6187107  57.2334740
  50.8320267  39.2185693  58.1229962  51.4128857  40.6813451  56.6729682
  50.8255339  41.5925965  56.5601060  52.6007703  40.9760996  57.5892253
  53.0786198  40.0347643  57.8606051  53.3128496  41.6029415  57.0524645
  52.1755739  41.6435270  58.7611125  52.9343156  41.8194199  59.3223367
  51.9139955  40.3723336  55.2672261  52.0014870  41.2705667  54.4214362
  52.2369714  39.1058654  55.0193275  52.1846127  38.4150222  55.7542382
  52.7957790  38.7037620  53.7272730  53.2351837  39.5711555  53.2346767
  53.8886247  37.6331185  53.9059820  54.2754774  37.3984184  52.9143369
  54.6847508  38.0634631  54.5135071  53.3778916  36.3564178  54.5676338
  52.2356363  36.3305389  55.0764707  54.1390383  35.3617391  54.5863956
  51.7501590  38.2427604  52.7120023  52.0968497  37.8844675  51.5819450
  50.4742154  38.2598391  53.1061611  50.2479491  38.5549878  54.0451979
  49.3846201  37.7973913  52.2415194  49.5440441  38.2020092  51.2420358
  49.3926131  36.2642726  52.1572341  49.2250440  35.8444650  53.1490921
  48.6016137  35.9327263  51.4845548  50.3568634  35.9257363  51.7781382
  48.0160289  38.3016277  52.7285644  47.1738487  37.5015585  53.1512306
  47.7789726  39.6277121  52.6656500  48.6688184  40.6848490  52.1561206
  49.1962691  40.3229309  51.2735611  49.3919752  40.9545529  52.9257979
  47.7313413  41.7954311  51.8453263  47.3615266  41.6871663  50.8257113
  48.2492460  42.7494387  51.9440455  46.6161984  41.6834147  52.8489665
  45.6715967  42.0441774  52.4419322  46.8588835  42.2423367  53.7527418
  46.5072215  40.1843730  53.1726871  46.4970221  40.0038288  54.2475815
  45.2354531  39.5974180  52.5437823  44.1846061  39.5579928  53.1969349
  45.3365108  39.1488663  51.2954720  46.2066903  39.2862648  50.8014998
  44.2198167  38.5324558  50.5762714  43.3363684  39.1673378  50.6436744
  44.5837406  38.3525168  49.0926750  43.8410140  37.7147357  48.6134135
  44.6325181  39.3081038  48.5705884  45.9201677  37.6832885  48.8932636
  46.1635016  36.3401509  48.8339333  45.3008622  35.6802581  48.9260989
  47.5072736  36.1078836  48.6628960  47.9398991  35.1990646  48.5793333
  48.1647249  37.3098877  48.6156742  49.5272654  37.5899343  48.4539730
  50.2195564  36.7552098  48.3441239  49.9067684  38.9065606  48.4440410
  50.9597722  39.1605867  48.3225761  48.9676397  39.9430967  48.5872648
  49.2792127  40.9875669  48.5770825  47.6094102  39.6662157  48.7466434
  46.9210174  40.5033208  48.8627083  47.1927776  38.3283810  48.7573492
  43.8040854  37.1908768  51.2009708  42.7680214  36.6247446  50.8373091
  44.6057527  36.6890536  52.1402110  45.4947854  37.1306660  52.3264871
  44.2882278  35.4413584  52.8430855  43.6049448  34.8466528  52.2368274
  45.5520664  34.6179437  53.1060878  46.2705043  35.2840645  53.5838212
  45.2748006  33.8250785  53.8007737  46.1796367  34.0042110  51.8590299
  45.4348832  33.3945484  51.3474103  46.5119567  34.8031590  51.1961969
  47.3692797  33.1357170  52.2423480  48.0568932  33.7387725  52.8353157
  47.0057143  32.3027785  52.8441229  48.0926497  32.5986961  51.0197591
  47.4739863  31.8218457  50.5704710  48.2193043  33.4169074  50.3108247
  49.4310914  32.0300556  51.3684965  49.3139198  31.2715845  52.0250726
  49.8785942  31.6847055  50.5314932  50.0046630  32.7498508  51.7844406
  43.5111434  35.6535261  54.1445042  43.1844371  34.6852262  54.8417246
  43.2126623  36.9077553  54.4814657  43.5873729  37.6906747  53.9650080
  42.3762514  37.1836473  55.6481047  42.8438724  36.7816326  56.5468895
  42.1777572  38.6881568  55.8319279  41.7020364  39.1036210  54.9435702
  41.5442852  38.8681428  56.7005005  43.1452115  39.1670269  55.9829738
  41.0266231  36.4655868  55.4800375  40.4882476  36.4008095  54.3666069
  40.4855901  35.8948425  56.5736019  41.0447409  35.8522269  57.9387390
  40.9474088  36.8327038  58.4048847  42.0978347  35.5745124  57.8943867
  40.2026481  34.8038477  58.6160092  40.1368328  35.0121178  59.6839001
  40.6430865  33.8182904  58.4650385  38.8777833  34.8952379  57.9653433
  38.2827987  35.7120773  58.3738355  38.3193890  33.9628231  58.0483975
  39.2107116  35.1775900  56.4915627  39.3999172  34.2580020  55.9377962
  38.0789158  35.9605933  55.8106206  37.2931030  35.3697042  55.0678357
  38.0119386  37.2693421  56.0492432  38.6685599  37.6854532  56.6940682
  36.9786557  38.1217691  55.4666655  36.2470363  37.5090937  54.9399198
  36.2557056  38.9131454  56.5652498  37.0397508  39.5613463  56.9566677
  35.4819981  39.5216306  56.0970376  35.6432438  38.1028586  57.7125387
  36.4273996  37.5009400  58.1717713  35.0306255  39.0093532  58.7530224
  34.2460128  39.6112992  58.2946090  34.6038876  38.4067147  59.5547844
  35.7990815  39.6654008  59.1618954  34.6117707  37.1119906  57.1944154
  35.0876412  36.4227799  56.4968228  34.1939889  36.5511150  58.0304646
  33.8135650  37.6510951  56.6841869  37.5520797  39.0725124  54.4181189
  37.0316159  40.1740637  54.2210625  38.6040632  38.6281491  53.7337193
  38.9798119  37.7137896  53.9407436  39.3146206  39.4683383  52.7666416
  39.7697245  40.2658722  53.3539400  40.4214176  38.6825358  52.0716705
  39.9807638  37.8858662  51.4723027  40.9909111  39.3502862  51.4252288
  41.0848167  38.2489810  52.8200228  38.3936448  40.1296135  51.7418999
  38.4782182  41.3367072  51.5191931  37.5095714  39.3494966  51.1250023
  37.4817573  38.3563784  51.3067770  36.6512457  39.8847472  50.0723362
  37.2537837  40.4704438  49.3780692  35.9574355  38.7638617  49.2929005
  35.4202660  38.1436653  50.0104689  35.2459059  39.2262781  48.6087975
  36.9342206  37.8962279  48.5012569  37.7650909  38.5309421  48.1932095
  37.3007080  37.1187216  49.1715330  36.3070956  37.2537964  47.2762194
  35.1197773  36.8602482  47.3380679  37.0119634  37.1454567  46.2457739
  35.6514385  40.9054668  50.6182833  35.5218135  42.0009871  50.0732561
  34.9804733  40.5563059  51.7145608  35.0784279  39.6181748  52.0756899
  34.0633048  41.4696487  52.3962836  33.2117864  41.6933322  51.7536475
  33.5475636  40.8262367  53.6848910  33.0966657  39.8741472  53.4050409
  34.4162166  40.6442260  54.3176738  32.5341053  41.6613683  54.4455396
  33.0121596  42.6085750  54.6952681  31.6853851  41.8458431  53.7869485
  32.0493343  40.9868908  55.7200130  31.5511453  41.7063578  56.6120628
  32.1717045  39.7466365  55.8334275  34.7297490  42.8107794  52.7181321
  34.1737462  43.8728758  52.4288896  35.9181960  42.7537325  53.3109383
  36.3132412  41.8646023  53.5820215  36.6293017  43.9718996  53.6901740
  35.9306577  44.6798773  54.1360028  37.7311639  43.6652597  54.7077818
  38.3634016  42.8826157  54.2884455  38.3391287  44.5418995  54.9313473
  37.2182167  43.1436773  56.0345828  35.9150851  43.0710134  56.4471286
  35.1568101  43.4120768  55.7422920  35.8479654  42.5570043  57.7261124
  35.0015070  42.3906404  58.2514035  37.1220339  42.3101952  58.1696895
  37.5677737  41.7977120  59.3951866  36.8262532  41.5395511  60.1512282
  38.9224216  41.6521297  59.5670026  39.3045150  41.2547041  60.5072991
  39.8338955  42.0047437  58.5550145  40.9076904  41.8877001  58.7011810
  39.3911231  42.5142703  57.3353013  40.1344010  42.7522305  56.5743718
  38.0134817  42.6759646  57.1337245  37.1962143  44.7436544  52.4945161
  37.2517840  45.9784407  52.5218052  37.6082643  44.0243990  51.4501869
  37.5896189  43.0154717  51.4928170  38.1669542  44.6611789  50.2481903
  38.8540581  45.4557492  50.5391293  38.9305528  43.6402296  49.3995480
  39.4184384  42.9238160  50.0604704  38.1895584  43.1243006  48.7889380
  39.9707391  44.2864050  48.4961362  40.6064604  45.2850359  48.9206051
  40.1681935  43.7738747  47.3722743  37.1089700  45.3512885  49.3907784
  37.4287314  46.2677313  48.6254874  35.8570244  44.9102053  49.5214798
  35.6735834  44.1402359  50.1488520  34.7468954  45.4330869  48.7199672
  35.1143101  45.7900387  47.7578388  33.7172259  44.3231558  48.4704583
  33.4345896  43.8878745  49.4289708  32.8388124  44.7638303  47.9989758
  34.2491621  43.2135514  47.5691393  35.3298007  43.3227406  46.9750922
  33.4836112  42.1312516  47.4651977  33.7800448  41.3607449  46.8833503
  32.6092303  42.0846827  47.9685765  34.0813635  46.6640205  49.3419148
  33.0427591  47.1457979  48.8660027  34.7149077  47.1636277  50.3979789
  35.6334634  46.7872596  50.5842629  34.2421536  48.2599674  51.2192759
  33.2517278  48.5940982  50.9102248  34.1556916  47.7362314  52.6501717
  34.1369816  46.6495183  52.5676857  35.0803474  48.0473231  53.1363134
  32.9963980  48.1906235  53.4564770  32.9359668  49.2789390  53.4607585
  32.0688672  47.7773036  53.0603012  33.2346378  47.6006167  55.1530322
  33.1255341  45.8372717  54.9440542  33.9060641  45.5028825  54.2606394
  33.2544142  45.3478036  55.9094099  32.1491794  45.5792043  54.5338910
  35.3236663  49.3314123  51.1930819  36.5099156  48.9960827  51.2190972
  34.9371109  50.6071324  51.1508666  33.9775135  50.8637041  50.9679924
  35.9227129  51.6839791  51.3462509  36.8911155  51.3775319  50.9507946
  35.5114721  53.0117531  50.6712671  36.3261039  53.7261016  50.7903528
  35.2152644  52.8163064  49.1717713  34.4003713  52.1023883  49.0518964
  34.9293146  53.7708315  48.7299415  36.1062809  52.4372469  48.6712675
  34.3537046  53.5489906  51.3298180  34.1000364  54.3736771  50.9089322
  36.1205018  51.9452296  52.8436035  35.3032146  51.5220556  53.6690194
  37.1870294  52.6613633  53.2000195  37.9412995  52.8519357  52.5559246
  37.3445112  53.0748498  54.5941028  37.2340538  52.2026995  55.2385034
  38.7174765  53.7056288  54.8544432  38.9906322  54.2731902  53.9648595
  38.6101218  54.3853891  55.6997248  39.8124241  52.6791597  55.1609850
  39.9330316  52.0603125  54.2718378  40.7326828  53.2336860  55.3446327
  39.4644578  51.6145549  56.5847709  39.4807150  52.8196459  57.9194665
  38.7130655  53.5722629  57.7395193  39.2812930  52.3170690  58.8659060
  40.4576573  53.3010812  57.9631161  36.2119752  53.9964028  55.0530267
  35.8634622  53.9912473  56.2363090  35.6285166  54.7646301  54.1331724
  35.9988080  54.8254511  53.1954708  34.4764171  55.6111406  54.4849334
  34.7477234  56.2517153  55.3240735  34.0384096  56.4986010  53.3121178
  34.9196880  57.0386006  52.9659271  33.6826561  55.8392727  52.5203945
  32.9341638  57.5019587  53.6771446  32.1115510  56.9513536  54.1334813
  33.3422423  58.2090719  54.3993391  32.4258049  58.2557947  52.4641642
  33.2448542  58.8543793  52.0654741  32.1108913  57.5279576  51.7163795
  31.2519043  59.1677773  52.8121674  30.7593010  59.4483995  51.8812036
  30.5590263  58.5988074  53.4320808  31.6756210  60.4002755  53.5420642
  32.3173285  60.9278578  52.9676356  30.8642917  60.9657918  53.7470910
  32.1317207  60.1404753  54.4049524  33.3072392  54.7584422  54.9755020
  32.7008916  55.0556797  56.0101210  32.9920590  53.7016016  54.2292271
  33.4668094  53.5380387  53.3528947  31.9332441  52.7732612  54.6286569
  30.9886052  53.3106086  54.7124087  31.7705521  51.6608015  53.6035131
  32.7224411  51.1314876  53.5606934  31.0000685  50.9913917  53.9860645
  31.3934998  52.1217515  52.2286027  30.4436413  52.6535038  52.2843629
  32.1691861  52.8007641  51.8745521  31.2650975  50.9625373  51.2714092
  30.4264356  50.0671230  51.5474026  31.9912040  50.9570397  50.2522080
  32.2034815  52.1479787  55.9890622  31.2821571  52.0043152  56.7991105
  33.4567188  51.7655889  56.2350137  34.1618580  51.8273448  55.5145525
  33.8160138  51.1372473  57.5033843  33.0932063  50.3526420  57.7270875
  35.2202966  50.5148095  57.4652809  35.1431226  49.7843563  56.6599352
  35.9461701  51.2806982  57.1921103  35.6789764  49.8103025  58.7540348
  35.7546399  50.5584210  59.5431448  34.6990293  48.7062079  59.1868914
  34.6231901  47.9574299  58.3984253  35.0618114  48.2354642  60.1006147
  33.7167789  49.1423366  59.3687601  37.0785612  49.2456754  58.6056007
  37.7757319  50.0542924  58.3860764  37.3730146  48.7545200  59.5330514
  37.0943556  48.5217967  57.7908313  33.6730615  52.1151956  58.6665472
  33.1159886  51.7559908  59.7030614  34.1496668  53.3486216  58.4883658
  34.6805700  53.5724221  57.6588150  34.0174175  54.3751002  59.5269965
  34.3799016  53.9773938  60.4749069  34.8280180  55.6345402  59.1805550
  34.4163366  55.9290652  58.2152195  34.5948874  56.3981418  59.9226214
  36.3492700  55.4845223  59.0626860  36.5793620  54.8308609  58.2213268
  36.9971499  56.8448988  58.8402597  36.7678715  57.4990099  59.6814904
  38.0773620  56.7244128  58.7582492  36.6105260  57.2862046  57.9216349
  36.9493596  54.8003638  60.2868704  36.5159886  53.8063165  60.3971383
  38.0288065  54.7138308  60.1627431  36.7327004  55.3913675  61.1767425
  32.5548610  54.7287381  59.8087426  32.1766692  54.9233685  60.9689870
  31.7382151  54.7861329  58.7547805  32.1226292  54.6952558  57.8252287
  30.3015862  55.0469475  58.8905383  30.1490686  55.9936486  59.4087994
  29.6262431  55.1274335  57.5111820  29.9763350  54.2800767  56.9216726
  28.5498506  55.0447392  57.6616512  29.9380480  56.4259153  56.7704656
  30.4534610  57.3830979  57.3900395  29.6593548  56.4842446  55.5507715
  29.6190192  53.9833364  59.7527341  28.7049356  54.2901015  60.5171793
  30.0727262  52.7368388  59.6334882  30.7875668  52.5276435  58.9513301
  29.5322243  51.6353855  60.4326724  28.4501331  51.7371712  60.5152401
  29.8483695  50.2877720  59.7781871  30.9186559  50.2781212  59.5720483
  29.6130340  49.5158608  60.5109015  29.0833402  50.0167381  58.4942416
  28.0157215  50.0622058  58.7092388  29.3401314  50.7870648  57.7670847
  29.4275215  48.6501835  57.9266885  30.4927080  48.6237175  57.6969575
  29.1988426  47.8915568  58.6752143  28.6283896  48.3708070  56.6606431
  27.6419255  48.8217222  56.7686458  29.1461722  48.8284265  55.8176812
  28.4813723  46.9055744  56.4177599  28.0012243  46.4814135  57.1985576
  27.9480819  46.7561822  55.5731396  29.3953261  46.4876261  56.3172276
  30.0713240  51.6346480  61.8646015  29.3358949  51.3685484  62.8149330
  31.3579448  51.9336308  62.0075881  31.8830378  52.2491189  61.2045663
  32.0695216  51.7451943  63.2704678  31.6696891  50.8837894  63.8054583
  33.5565261  51.4988539  62.9865925  33.5104147  50.6911732  62.2560962
  33.8976500  52.4113125  62.4975589  34.5319784  51.1230528  64.0994016
  34.5877139  51.9476441  64.8100658  34.0742936  49.8597104  64.8217531
  34.0187599  49.0345140  64.1117772  34.7858821  49.6131023  65.6097423
  33.0907580  50.0275768  65.2605913  35.9188982  50.9270983  63.4878843
  36.2402128  51.8528714  63.0105998  36.6272891  50.6579853  64.2713776
  35.8797237  50.1304888  62.7449322  31.9114246  52.8982826  64.2593103
  31.8366713  52.6716139  65.4731465  31.8724149  54.1242551  63.7455420
  31.9055530  54.2492060  62.7438492  31.8732259  55.3146858  64.5924134
  32.2744631  55.0686584  65.5755606  32.7408238  56.4132290  63.9705784
  32.3530345  56.7025166  62.9938331  32.7773774  57.2878813  64.6199991
  34.4696695  55.9134660  63.6993403  34.8687877  57.0704294  63.1787266
  30.4603810  55.8173656  64.8582770  29.7562870  56.2446275  63.9416884
  30.0555652  55.7508411  66.1255227  30.6479447  55.3071173  66.8127600
  28.7282231  56.1986803  66.5407912  28.0420066  56.1489996  65.6953694
  28.1853367  55.3101603  67.6649534  28.9645187  55.1131637  68.4012733
  27.3356847  55.7862658  68.1543562  27.7066534  53.9731685  67.1780026
  28.4614635  52.9983274  66.5860056  29.5233200  53.2100673  66.4605998
  27.6770075  51.9161204  66.2649728  27.9956125  51.0710213  65.8128691
  26.3880084  52.1725153  66.6562437  25.2369137  51.3798164  66.5469940
  25.3238849  50.3950009  66.0880026  24.0614611  51.9008435  67.0304979
  23.1461743  51.3122012  66.9684482  24.0100459  53.1815931  67.6064450
  23.0706531  53.5875678  67.9817117  25.1522427  53.9693097  67.7156383
  25.0584369  54.9567220  68.1676539  26.3681483  53.4615042  67.2352550
  28.6934100  57.6733532  66.9412644  27.6169428  58.2197395  67.1922671
  29.8647429  58.3044900  66.9948894  30.7194448  57.7749550  66.8990940
  29.9643329  59.7472185  67.2400553  28.9666205  60.1851674  67.2695499
  30.6922823  60.0754203  68.5791633  30.6559539  61.1528688  68.7400521
  30.0326018  59.3644068  69.7538780  30.0689623  58.2868219  69.5939147
  30.5623641  59.6127591  70.6735367  28.9937940  59.6841730  69.8359043
  32.0725964  59.6804495  68.5052098  32.5095207  59.8874159  69.3345845
  30.6939929  60.4405294  66.0923126  31.5728910  59.8426177  65.4633502
  30.3270029  61.6954804  65.8264640  29.5057919  62.0821214  66.2694320
  31.0357673  62.5162355  64.8377507  31.1222254  61.9604027  63.9041158
  30.2922495  63.8308088  64.5592108  29.9514728  64.2130677  65.5214211
  31.0182783  64.5218024  64.1308301  29.1004957  63.6954227  63.6148870
  28.3670975  63.0525978  64.1017176  28.6748801  64.6888232  63.4730909
  29.4732999  63.1051590  62.2610470  30.3433635  63.6742757  61.5645899
  28.8865591  62.0677288  61.8982914  32.4732952  62.8033725  65.2688097
  33.3674454  62.8726689  64.4288101  32.6818933  62.9607659  66.5757815
  31.8903144  62.9624617  67.2030767  34.0122467  63.1977838  67.1370046
  34.4195033  64.1308152  66.7475259  33.9316807  63.2982916  68.6637060
  33.3767744  64.2002870  68.9217421  33.3992464  62.4247062  69.0398208
  35.2235549  63.3536547  69.2503634  35.1392385  63.4160452  70.2046160
  34.9963247  62.0985168  66.7204596  36.0825491  62.3862512  66.2104923
  34.6016425  60.8441981  66.9188920  33.7278793  60.6520399  67.3876270
  35.4511957  59.7129520  66.5436072  36.4340013  59.8797130  66.9844961
  34.8897306  58.4109690  67.0878279  33.9095468  58.2256119  66.6485300
  35.5617216  57.5909418  66.8346803  34.7943862  58.4805921  68.1714152
  35.6394445  59.6234854  65.0316198  36.7624158  59.4216891  64.5568579
  34.5478149  59.7827531  64.2833681  33.6432383  59.8992325  64.7172724
  34.6115678  59.6982926  62.8213876  35.0738857  58.7538534  62.5343408
  33.2142648  59.7702565  62.1944981  32.5895406  59.0406852  62.7098084
  32.8277015  60.7727885  62.3777964  33.1974722  59.4841024  60.6895862
  33.9927493  60.0659757  60.2236907  33.3917522  58.4216102  60.5430670
  31.8629922  59.8482127  60.0530716  31.5739216  60.8419282  60.3952217
  31.9854545  59.8587765  58.9700246  30.7881826  58.8539724  60.4285771
  31.1747499  57.8499864  60.2534246  30.5639130  58.9766652  61.4881756
  29.5443204  59.0532468  59.6313999  29.7518288  58.9391744  58.6495509
  28.8527411  58.3722117  59.9107012  29.1857201  59.9833556  59.7938880
  35.5239665  60.7777946  62.2391040  36.2758920  60.5149723  61.2964236
  35.4632334  61.9817616  62.8054792  34.7595795  62.1790485  63.5026510
  36.3343479  63.0751309  62.3695525  36.2457403  63.2064794  61.2911298
  35.9462868  64.3842484  63.0542233  35.7477197  64.1546628  64.1011047
  36.8054432  65.0515293  62.9857634  34.7314612  65.0602141  62.4457103
  35.0144762  65.4779656  61.4795390  33.9481199  64.3157020  62.3036532
  34.1854838  66.1795695  63.3178958  34.7549440  66.5115603  64.3619601
  33.0705865  66.7669080  62.8937644  32.6620646  67.5169982  63.4328154
  32.6373299  66.4602771  62.0344813  37.8206497  62.7782367  62.5842399
  38.6310338  63.0018438  61.6828280  38.1737211  62.2735732  63.7672232
  37.4877285  62.1578089  64.4994199  39.5721436  61.9604168  64.0700342
  40.2028942  62.7924608  63.7570558  39.7848924  61.7212027  65.5730833
  39.3821399  62.6260774  66.0281563  39.1940793  60.8617955  65.8900362
  41.2449360  61.5308316  66.0168326  41.6604054  60.6827518  65.4725470
  42.0923288  62.7795582  65.7413034  41.6777171  63.6280126  66.2856573
  43.1168319  62.6036767  66.0692666  42.0853975  62.9955154  64.6729332
  41.3107440  61.1449599  67.4872793  40.7697064  60.2116326  67.6430928
  42.3517314  61.0146039  67.7830052  40.8580005  61.9318406  68.0905545
  40.0457702  60.7605131  63.2525784  41.1736635  60.7472887  62.7546349
  39.1698146  59.7667509  63.1001200  38.2812173  59.8044814  63.5787332
  39.4754344  58.5801581  62.2933667  40.3758315  58.1070592  62.6852362
  38.3319308  57.5796165  62.3609835  37.4252995  58.0358347  61.9635106
  38.5837904  56.6987658  61.7704168  38.1660297  57.2861790  63.3975502
  39.7517779  58.9645276  60.8411173  40.6454218  58.4042452  60.1999651
  38.9790546  59.9236169  60.3317025  38.2057548  60.2793394  60.8753644
  39.1442107  60.4076658  58.9630736  39.1721791  59.5649016  58.2723743
  37.9728563  61.3368238  58.5624811  37.9140493  62.1512635  59.2845129
  38.1724188  61.9119233  57.1622296  38.2308575  61.0980400  56.4395412
  37.3323950  62.5598247  56.9118642  39.0966741  62.4890449  57.1342377
  36.7478517  60.5802302  58.5908677  36.0148566  61.1486940  58.3435474
  40.5019698  61.0886084  58.7869299  41.2136280  60.8241448  57.8172151
  40.8638846  61.9415852  59.7433724  40.2087255  62.1801853  60.4740815
  42.1668811  62.6003576  59.7397701  42.2920064  63.1773005  58.8234843
  42.2748841  63.5552034  60.9402792  41.4029922  64.1927714  60.7939546
  42.1413750  62.9596104  61.8433541  43.5319980  64.4311257  61.0850505
  43.8963170  64.7012880  60.0938972  43.2022914  65.6935575  61.8647802
  42.8383197  65.4241959  62.8562780  44.0987136  66.3060878  61.9613957
  42.4330698  66.2569694  61.3366083  44.6945722  63.6926539  61.7352740
  44.9605779  62.8269462  61.1287342  45.5529273  64.3601855  61.8109665
  44.4034079  63.3615794  62.7321251  43.2890366  61.5534291  59.7597859
  44.2542028  61.6478936  59.0032387  43.1414325  60.5547106  60.6325972
  42.3855668  60.6077019  61.3003984  44.0809026  59.4249239  60.7297464
  45.0638496  59.7770174  61.0427072  43.5682712  58.4195405  61.7658542
  43.5931531  58.8329383  62.7741113  42.5406206  58.1708006  61.5009721
  44.3286360  57.1176266  61.8143464  45.6720627  57.0794595  62.1754613
  46.1865969  58.0119653  62.4073825  46.3646637  55.8598149  62.2430272
  47.4195595  55.8452019  62.5170382  45.7008229  54.6653470  61.9588515
  46.2323828  53.7147821  62.0032408  44.3505359  54.6930702  61.6168379
  43.8217267  53.7641498  61.4033712  43.6718579  55.9179773  61.5474122
  42.6150450  55.9411922  61.2815035  44.3285295  58.7507479  59.3740670
  45.4793187  58.5400066  58.9886928  43.2541468  58.4289210  58.6518239
  42.3263590  58.5320579  59.0374039  43.3925992  57.8120909  57.3266629
  44.0697293  56.9586868  57.3626546  42.0271835  57.3391868  56.7517171
  41.3332703  58.1795910  56.7691693  42.1747277  56.8301913  55.3174322
  42.8681853  55.9894259  55.2992437  41.2029122  56.5070879  54.9442307
  42.5584155  57.6307039  54.6849253  41.4314847  56.2473636  57.6424085
  41.2791308  56.6406297  58.6475115  40.4756019  55.9233341  57.2308352
  42.1146757  55.3990793  57.6844155  44.1065710  58.7641631  56.3629841
  45.0873079  58.3779356  55.7194398  43.6480856  60.0132063  56.3020226
  42.8555481  60.2861853  56.8654639  44.2556981  61.0218882  55.4152791
  44.1181835  60.7172777  54.3777814  43.6153666  62.4085490  55.6099410
  43.7644493  62.7162307  56.6449317  44.1336762  63.1015155  54.9471797
  42.1121273  62.4586466  55.2943848  41.4395891  63.4106918  55.7006006
  41.5862719  61.4654944  54.5706660  40.6009969  61.4733787  54.3486955
  42.1766059  60.7117073  54.2490892  45.7601362  61.1744673  55.6519384
  46.5350186  61.3006292  54.7042331  46.1575124  61.1809686  56.9241051
  45.4631003  61.0836140  57.6510255  47.5499319  61.3957292  57.3191794
  47.9920751  62.1973362  56.7275421  47.6048136  61.7911883  58.7974900
  46.9900502  62.6909222  58.8228679  47.0961703  60.9890256  59.3322022
  48.9489884  62.0745823  59.4643692  49.5136065  61.1432920  59.5091543
  49.7562850  63.1251951  58.6893891  49.1924703  64.0569697  58.6445795
  50.7060891  63.2998000  59.1948455  49.9443841  62.7659330  57.6776333
  48.6811549  62.5416378  60.8860243  48.1486581  61.7620970  61.4308753
  49.6275611  62.7509589  61.3846236  48.0749310  63.4472197  60.8633727
  48.4429876  60.1818277  57.0631114  49.6198195  60.3364602  56.7112744
  47.8869161  58.9833346  57.2598083  46.9293595  58.9284771  57.5763132
  48.6227416  57.7388632  57.0629026  49.5768337  57.7903350  57.5874578
  47.8298087  56.5464087  57.6053411  46.7707350  56.6710183  57.3796544
  48.1911092  55.6231508  57.1523986  47.9351272  56.3045153  59.3789480
  47.1501618  55.2316408  59.4197891  48.9374259  57.4800855  55.5957350
  50.0502642  57.0675833  55.2619000  47.9536060  57.7143646  54.7231476
  47.0790482  58.1117679  55.0351070  48.0467666  57.2396928  53.3401882
  49.0747730  57.0536148  53.0292589  47.2098713  55.9321446  53.1132745
  47.2848862  55.6437949  52.0647868  47.7321068  54.7919777  53.9950934
  47.6569751  55.0794277  55.0438205  47.1369435  53.8955425  53.8210673
  48.7742372  54.5891622  53.7482499  45.7167807  56.1630491  53.3450087
  45.3546220  56.9238032  52.6534912  45.1743775  55.2325754  53.1773273
  45.5550839  56.4976681  54.3696965  47.7292785  58.3021115  52.2726041
  47.5220821  57.9712919  51.0999877  47.6960225  59.5678225  52.6951332
  47.6789445  59.7227029  53.6930408  47.5103291  60.7304813  51.8025664
  47.1027021  61.5669236  52.3702843  48.8400762  61.1827778  51.1374960
  48.6352581  62.0123203  50.4607324  49.8424855  61.6296680  52.2023016
  50.0481668  60.8004575  52.8792098  50.7687819  61.9435250  51.7210867
  49.4260472  62.4640207  52.7666908  49.3932585  60.1026611  50.3786659
  50.2141892  60.3863572  49.9697777  46.3905222  60.5289720  50.7742166
  46.5185987  60.8819932  49.5960551  45.2802139  59.9786803  51.2562090
  45.2391607  59.7310450  52.2345192  44.1308532  59.6696492  50.4169720
  44.0715411  60.3734397  49.5867551  44.2520412  58.2509543  49.8488240
  44.3032649  57.5340003  50.6682465  43.3827483  58.0318216  49.2288151
  45.1563990  58.1768973  49.2448771  42.8479897  59.8223949  51.2303390
  42.8748394  59.7989618  52.4684465  41.7257022  59.9872316  50.5361066
  41.7509493  60.0123659  49.5267354  40.4318111  60.1621246  51.2037586
  40.5577731  60.7771943  52.0947816  39.4334786  60.8496991  50.2727787
  39.2628350  60.1672889  49.4401346  38.5099752  60.9687809  50.8394013
  39.8791707  62.2090543  49.7339476  40.8728490  62.0533966  49.3138585
  39.1937122  62.5110079  48.9420702  39.9418283  63.2994729  50.7930960
  39.1608106  63.2666114  51.7717591  40.7595474  64.2229281  50.6348528
  39.8765964  58.8113301  51.6340654  40.2033845  57.7876070  51.0433823
  39.0251267  58.8074761  52.6545386  38.7558921  59.6651665  53.1149507
  38.5092190  57.5435158  53.1844485  39.3390133  56.8843210  53.4394050
  37.6483905  57.7592263  54.4416026  37.1898920  56.8104124  54.7202270
  38.4985858  58.2737581  55.6019620  38.9570700  59.2228414  55.3242340
  37.8677897  58.4184535  56.4790358  39.2783510  57.5476041  55.8316732
  36.6136382  58.7061119  54.1508081  36.0752199  58.8422747  54.9338571
  37.7040241  56.7794833  52.1421412  37.7092035  55.5444507  52.1269554
  37.0136707  57.5208659  51.2736081  36.9683714  58.5222173  51.3974740
  36.2251983  56.9157239  50.1882757  35.7485748  56.0018321  50.5428614
  35.1341222  57.8854064  49.7129225  34.5489893  57.4037392  48.9295225
  34.4744164  58.1810804  50.5286830  35.6790940  59.1466866  49.1252363
  35.7161640  60.3342505  49.8240972  36.2590276  61.2688661  49.0641125
  36.3683246  62.2883424  49.4340060  36.5885329  60.7276281  47.9055458
  37.0281438  61.2044858  47.1313050  36.2370402  59.4003123  47.9158715
  36.4297958  58.7786633  47.0415152  37.0566138  56.4359760  48.9881139
  36.5153235  55.7818598  48.0903222  38.3521926  56.7650291  48.9622380
  38.7332915  57.3446881  49.6963077  39.2335968  56.3719371  47.8588743
  38.6593692  56.3043178  46.9348670  40.3561664  57.4092758  47.6660666
  40.7779039  57.6109982  48.6507213  41.1144323  56.9464147  47.0344873
  39.8926487  58.7304610  47.0262924  39.5875399  58.4848163  46.0091060
  39.0309958  59.0951128  47.5854727  40.9691602  59.8133934  46.9870974
  41.9501887  59.7469791  47.7621008  40.8152234  60.7610072  46.1802810
  39.8490261  54.9768727  48.0444165  40.1928288  54.3137817  47.0610453
  39.9897642  54.5491045  49.3023375  39.5859982  55.0818526  50.0594715
  40.8108335  53.3792210  49.6352800  41.2703738  52.9426836  48.7485123
  41.9369930  53.7368641  50.6561556  42.6084194  52.8831053  50.7477081
  42.7249560  54.9540799  50.1998112  42.0542369  55.8084180  50.1084699
  43.5019967  55.1793149  50.9302750  43.1844480  54.7485551  49.2329977
  41.3692272  53.9750907  52.0578375  40.8641904  53.0732867  52.4039434
  42.1810194  54.2216373  52.7421677  40.6576580  54.8002003  52.0267824
  40.0123721  52.1788771  50.1511066  38.9848628  52.3403302  50.8311717
  40.5023250  50.9823494  49.8283952  41.2858070  50.9304728  49.1931283
  39.9547815  49.7363927  50.3546926  38.8920848  49.6643349  50.1232135
  40.6767725  48.5461229  49.7155745  40.2279122  48.3471417  48.7424197
  41.7275204  48.8046439  49.5844420  40.5726935  47.3868262  50.5308257
  41.0321009  46.6568828  50.1092485  40.1308020  49.6549498  51.8711325
  41.1936473  50.0036323  52.3958669  39.0982787  49.1664955  52.5619828
  38.1988730  49.0495924  52.1175703  39.2059612  48.8865330  53.9922952
  39.5749657  49.7980370  54.4625029  37.8483273  48.5478521  54.5878038
  37.4698558  47.6322395  54.1333668  37.9484800  48.4043971  55.6636711
  37.1521386  49.3638141  54.3938282  40.2238972  47.7793361  54.2891286
  41.0338698  47.9240887  55.2053743  40.1859612  46.6876516  53.5195614
  39.4502107  46.5585897  52.8397720  41.1756849  45.6114023  53.6895275
  41.0930040  45.2090711  54.6991773  40.9626603  44.4685500  52.6871194
  39.9780380  44.0792038  52.9460164  40.9393818  44.8692806  51.6737226
  42.0006298  43.3328575  52.7661579  42.9964889  43.7673087  52.6788783
  41.8919014  42.5654775  54.0910213  40.8963959  42.1303215  54.1788096
  42.6382688  41.7714286  54.1138865  42.0637168  43.2489624  54.9225431
  41.8503114  42.3920878  51.5725966  42.0033590  42.9494473  50.6484612
  42.5903327  41.5948312  51.6422512  40.8498013  41.9595642  51.5739717
  42.6064965  46.1315868  53.5650672  43.4427065  45.8683253  54.4346000
  42.8804256  46.8688861  52.4868976  42.1949704  46.9978296  51.7564019
  44.2270132  47.3967721  52.2747275  44.9427364  46.5773727  52.3412416
  44.3776814  48.0705401  50.9005503  44.3823176  47.2995058  50.1301063
  43.6056652  48.8057364  50.6734436  45.6917746  48.7840422  50.8009714
  46.9119615  48.2368436  50.5008874  46.9352250  47.1695321  50.2808767
  47.8875690  49.2079899  50.5465702  48.8696375  49.0672488  50.3572739
  47.3066974  50.4000242  50.8937479  47.8788702  51.6626821  51.0701456
  48.9535251  51.7730562  50.9251175  47.0420711  52.6923788  51.4180982
  47.4543106  53.6915162  51.5591053  45.6655913  52.4932218  51.5978703
  45.0111117  53.3188969  51.8771846  45.0956998  51.2396893  51.4256585
  44.0186927  51.1382433  51.5593188  45.9253256  50.1671064  51.0688001
  44.6633552  48.3396149  53.4087051  45.7814107  48.2392417  53.8987744
  43.7847757  49.2479019  53.8391326  42.8787253  49.3701917  53.4099274
  44.1806170  50.1755416  54.9043384  45.1447910  50.6147551  54.6482932
  43.1675293  51.3026055  55.1016991  43.0557980  51.8408533  54.1604739
  42.1945706  50.9338893  55.4265065  43.6078511  52.3110624  56.1236724
  44.5292172  53.3010738  55.7908423  44.9110399  53.3534154  54.7712484
  44.9649546  54.2221001  56.7488635  45.6863782  54.9935730  56.4796453
  44.4750168  54.1514840  58.0480075  44.8014238  54.8744147  58.7956235
  43.5682637  53.1577223  58.3925165  43.1925729  53.0923718  59.4136364
  43.1377431  52.2418798  57.4301463  42.4255694  51.4620734  57.6999808
  44.4326028  49.4587995  56.2306408  45.3721238  49.7905781  56.9602518
  43.6016037  48.4646984  56.5331713  42.7986229  48.2625988  55.9548315
  43.7871796  47.6866453  57.7598509  43.8757768  48.3604374  58.6120563
  42.6007545  46.7572537  57.9946097  42.5040885  46.2065546  57.0589359
  42.8650773  46.0673372  58.7960140  41.2678838  47.4387052  58.3262139
  41.1275879  48.3021493  57.6759201  40.1365983  46.4572691  58.1118792
  40.2759642  45.5937065  58.7622141  39.1875144  46.9390432  58.3468991
  40.1301165  46.1309700  57.0718853  41.2528970  47.9691541  59.7537689
  42.0535556  48.6980102  59.8795229  40.2934745  48.4458260  59.9547511
  41.4009202  47.1438060  60.4501801  45.0968149  46.8969329  57.7141919
  45.7850598  46.7799106  58.7254020  45.4355977  46.3786957  56.5353055
  44.7849946  46.4061121  55.7632541  46.7244607  45.7173744  56.3328720
  46.8337538  44.9125748  57.0598189  46.8384481  45.1235147  54.9234269
  46.2274166  44.2242823  54.8451912  46.5209921  45.8445484  54.1701460
  48.2644801  44.7151638  54.5634667  48.9083764  43.5610963  54.9262350
  48.3450678  42.8540384  55.5352114  50.1930445  43.5502527  54.4133918
  50.8699528  42.8106556  54.5354194  50.3990413  44.7109009  53.7116567
  51.5332801  45.1573855  53.0215119  52.4184017  44.5213501  53.0106778
  51.4570528  46.3812463  52.3957419  52.3195271  46.7603856  51.8475709
  50.2847546  47.1596494  52.4471108  50.2337332  48.1292420  51.9517459
  49.1544690  46.7141854  53.1326371  48.2679324  47.3483407  53.1334338
  49.2059320  45.4700412  53.7833933  47.8586374  46.7026044  56.5715223
  48.8089309  46.3978178  57.2952518  47.7446773  47.8813497  55.9550164
  46.9344329  48.0572517  55.3782479  48.7910063  48.9046842  56.0132232
  49.7075526  48.5261475  55.5607279  48.3482066  50.1565627  55.2485516
  47.9325214  49.8242815  54.2972922  47.5695611  50.6460192  55.8335675
  49.4740754  51.1321216  54.9927330  50.2930981  50.9960061  53.8672183
  50.1027675  50.1747734  53.1762403  51.3364686  51.8859660  53.6210348
  51.9748220  51.7603522  52.7464904  51.5755129  52.9246005  54.5120399
  52.6012512  53.8115835  54.2609325  53.0770735  53.6151438  53.4506213
  50.7767852  53.0867311  55.6340434  50.9591320  53.9076319  56.3275648
  49.7299517  52.1869765  55.8733660  49.1016555  52.3042357  56.7563123
  49.1728042  49.2518569  57.4504088  50.3535471  49.3053848  57.7886765
  48.1684998  49.4707540  58.2957576  47.2173685  49.4609392  57.9561222
  48.4001258  49.8119410  59.6983516  49.1503063  50.5954099  59.8056122
  47.0972767  50.2833988  60.3686656  46.3237537  49.5371956  60.1871662
  47.2826222  50.4684397  61.8733845  48.0557217  51.2148878  62.0556846
  46.3445623  50.8017844  62.3172600  47.5800464  49.5208894  62.3225936
  46.6300203  51.5848574  59.7208986  46.4510042  51.4187627  58.6586050
  45.7074137  51.9173276  60.1966719  47.3976349  52.3488099  59.8443701
  49.0129996  48.6325219  60.4572398  49.9891731  48.8019992  61.1955614
  48.4540882  47.4399939  60.2559438  47.6414206  47.3545854  59.6623312
  48.9327653  46.2415633  60.9581242  48.9086240  46.4034963  62.0357578
  48.0325729  45.0474935  60.6219992  47.0294047  45.3149931  60.9539585
  48.0417610  44.9508467  59.5363312  48.4391868  43.7220599  61.2528343
  49.0255386  43.9309365  62.1476320  47.5351909  43.1797019  61.5298563
  49.2688894  42.8710075  60.2861314  48.6619043  42.6476838  59.4087520
  50.1469299  43.4419089  59.9841117  49.7101692  41.5717075  60.9407217
  50.2623518  40.9869865  60.2049934  50.3654341  41.8141533  61.7773502
  48.5555505  40.7845410  61.4305204  47.9484637  40.5594134  60.6553670
  48.8866959  39.9313179  61.8576657  48.0439963  41.3260137  62.1125899
  50.4085259  45.9324869  60.6496774  51.1772089  45.5594593  61.5499595
  50.8037129  46.1056283  59.3910407  50.1301407  46.3410560  58.6762165
  52.1724753  45.7708864  58.9751617  52.5142825  44.8969695  59.5297213
  52.2428990  45.4566323  57.4694048  53.2745878  45.1753261  57.2582547
  51.5911550  44.5995893  57.2996780  51.8290706  46.6003399  56.5477818
  51.3337795  46.1848024  55.6702192  51.1302847  47.2356795  57.0919730
  52.9995481  47.4499749  56.0873118  54.1086831  46.9479481  55.8773220
  52.7555087  48.7411748  55.9169576  53.4963241  49.3560006  55.6115346
  51.8298038  49.1045892  56.0933146  53.2137353  46.8128817  59.4257039
  54.4214633  46.6124585  59.2522201  52.7410202  47.9117879  60.0141933
  51.7530566  48.1164456  59.9679051  53.6197957  48.8749727  60.6852025
  54.6329203  48.7783692  60.2948879  53.1393289  50.3117607  60.4505353
  52.0863863  50.3968257  60.7191897  53.7257299  51.0004838  61.0587247
  53.2726441  50.9094875  58.7441705  52.7773742  52.1206940  58.9820465
  53.7152262  48.6052123  62.1897767  54.4852705  49.2704237  62.8973829
  52.9339911  47.6405877  62.6756584  52.3271620  47.1283757  62.0515618
  52.9220968  47.2917036  64.0949165  52.9780896  46.2053298  64.1638797
  53.8123577  47.7302309  64.5457253  51.6949050  47.7731625  64.8534175
  51.6301851  47.6388469  66.0778478  50.7244190  48.3363724  64.1322757
  50.8488884  48.4802315  63.1403527  49.4572219  48.7620733  64.7448294
  48.6618279  48.4100384  64.0879284  49.3890873  48.2491856  65.7042059
  49.2886175  50.2536885  64.9691412  50.2066392  51.0466099  64.7020481
  48.1122289  50.6291671  65.4790035  47.4278418  49.9223601  65.7073399
  47.7234817  52.0402083  65.6016591  47.8412280  52.5347504  64.6374687
  46.2539162  52.2286984  66.0814610  46.0676375  53.2922750  66.2304750
  45.2652127  51.6770834  65.0487625  45.4505853  50.6133762  64.8995526
  44.2461101  51.8209183  65.4077062  45.3946811  52.2040342  64.1034259
  46.0587778  51.5602718  67.3330132  45.1513168  51.6808618  67.6221028
  48.6655829  52.8549956  66.4833127  49.1205164  53.9123024  66.0623178
  48.9611317  52.3744862  67.6927674  48.5384746  51.5202197  68.0269665
  49.8331553  53.1229928  68.6058854  49.4025227  54.1117617  68.7639705
  49.9680294  52.4210871  69.9701183  50.4359021  51.4476462  69.8231210
  50.8232921  53.2589041  70.9217555  50.3557832  54.2323891  71.0696143
  50.9078198  52.7476096  71.8806779  51.8166896  53.3946803  70.4941731
  48.6671928  52.2662366  70.5431449  48.7425434  51.8291085  71.3945212
  51.2148345  53.3715359  67.9950148  51.7213735  54.4945655  68.0237503
  51.8150090  52.3318250  67.4232598  51.3767040  51.4218891  67.4254297
  53.1561299  52.4544631  66.8509630  53.8343109  52.8759775  67.5929167
  53.6926121  51.0805261  66.4197436  53.5422711  50.4049957  67.2618573
  53.0814555  50.7533680  65.5785806  55.1708628  51.0679867  66.0124603
  55.3725546  50.1299434  65.4952601  55.3425334  51.9018061  65.3317428
  56.1040345  51.1953344  67.2210637  57.0975988  51.4829547  66.8772561
  55.7167901  51.9612689  67.8929905  56.2092102  49.9365929  67.9567897
  55.7812739  49.1274523  67.5298688  56.8229430  49.7866453  69.1284052
  57.3956958  50.8255059  69.7276354  57.3654859  51.7359382  69.2914011
  57.8585343  50.6997737  70.6164952  56.8581286  48.5876892  69.7028982
  56.4198200  47.7998661  69.2475737  57.3229944  48.4705041  70.5918673
  53.1853069  53.4373254  65.6725677  54.1126018  54.2409125  65.5534754
  52.1660739  53.3874136  64.8179363  51.4585092  52.6721747  64.9067336
  52.1475085  54.2389347  63.6250788  53.1291000  54.4009282  63.1797301
  51.1650218  53.6892944  62.5364299  51.2518641  52.6029470  62.5162276
  49.6962376  54.0840481  62.8282112  49.6085088  55.1703300  62.8481111
  49.0496154  53.6820574  62.0482214  49.3953247  53.6779983  63.7939618
  51.6192491  54.0882780  61.1264274  51.5357264  55.1726370  61.0536929
  52.6651871  53.7975674  61.0284459  50.7982190  53.4345457  60.0018396
  49.7521751  53.7251875  60.0988933  51.1782317  53.7644328  59.0349559
  50.8816341  52.3501171  60.0736478  51.9121440  55.7275462  63.9379516
  52.4605478  56.5987584  63.2594182  51.1208677  56.0178821  64.9703847
  50.6741010  55.2789383  65.4942748  50.7721377  57.4133886  65.2938269
  50.9381107  58.0850600  64.4515623  49.2989798  57.5650545  65.7990075
  49.0895189  58.6236721  65.9524848  48.3145117  56.9951536  64.7914424
  48.5230644  55.9363831  64.6377818  47.2985950  57.1138862  65.1681605
  48.4147132  57.5258186  63.8446301  49.1076507  56.9480328  67.1922779
  48.3034005  56.2162799  67.1159888  50.0363337  56.4405685  67.4532899
  48.7695554  57.9556472  68.2592736  47.8406797  58.4632261  67.9991707
  48.6493248  57.4465154  69.2155312  49.5736125  58.6875165  68.3364702
  51.7111305  58.0984808  66.2788321  51.6133784  59.3124614  66.4818612
  52.6045685  57.3336034  66.8994164  52.6655533  56.3470007  66.6920634
  53.4418584  57.8693892  67.9700667  52.9197411  58.6858736  68.4689113
  53.7634284  56.7827222  69.0108860  54.1838230  55.9163831  68.5001764
  54.4927813  57.1755071  69.7193098  52.5869050  56.3964221  69.7080186
  52.8046851  55.7190190  70.3524538  54.7219101  58.5217538  67.4716641
  55.3478478  58.0534309  66.5093223  55.0870730  59.6232541  68.1248732
  54.4007284  60.1144540  68.6796282  56.4095456  60.2187900  67.9752167
  56.7706782  60.0277368  66.9646817  56.3662536  61.7510907  68.2042719
  55.9566787  61.9386861  69.1968225  57.7515200  62.3752594  68.1008336
  58.1615771  62.1884650  67.1083314  57.6796701  63.4500704  68.2673205
  58.4062093  61.9346161  68.8527086  55.5281021  62.3381236  67.1959071
  55.4909764  63.2887725  67.3243156  57.3514438  59.4628365  68.9209441
  58.0407258  58.5414756  68.4817113  57.3435692  59.7978597  70.2133134
  56.8661496  60.6282363  70.5336952  58.0649574  58.9889065  71.1971898
  59.1286571  58.9895527  70.9591945  57.8788884  59.5357478  72.6356612
  56.8162323  59.5226122  72.8779208  58.6437561  58.6893026  73.6534474
  59.7066196  58.7023374  73.4120951  58.4935770  59.0979595  74.6527196
  58.2771642  57.6632743  73.6221934  58.3588989  60.8835813  72.7002499
  58.2435458  61.2219832  73.5911921  57.5558216  57.5448880  71.1037361
  56.3454201  57.3085473  71.1682287  58.4900870  56.6053060  70.9290598
  59.4352166  56.9282714  70.7789840  58.2097709  55.1656145  70.7719442
  59.1453580  54.6406007  70.5792360  57.5586634  54.5640281  72.0268975
  58.0103988  55.0252361  72.9051467  56.4895421  54.7760248  72.0151899
  57.7553450  53.0528646  72.1139497  58.8473764  52.5323876  71.8350102
  56.6954128  52.3391248  72.4912140  56.7676234  51.3345011  72.5661589
  55.8245845  52.8059738  72.7005244  57.4239512  54.7696734  69.5112353
  56.8082722  53.6942211  69.4485312  57.4599794  55.6260572  68.4956597
  57.9678333  56.4969194  68.5571639  56.7563098  55.3212436  67.2528714
  56.6099254  54.2415654  67.2217936  55.7870583  55.8175484  67.3011673
  57.4703463  55.7575082  65.9931595  58.6467628  56.1381420  66.0260864
  56.7330403  55.7196253  64.8812550  55.7531221  55.4864492  64.9553394
  57.2808464  56.0015335  63.5534070  58.0509244  55.2525642  63.3686800
  56.4644448  55.8650556  62.8442091  57.8793600  57.3847349  63.3582937
  58.7086128  57.5837234  62.4704061  57.4684683  58.3492994  64.1811165
  56.7462567  58.1729867  64.8648003  57.9639858  59.7236607  64.0303501
  58.5023519  59.8199171  63.0874844  56.7935836  60.7244279  64.0331027
  56.1729447  60.4823938  64.8958460  57.2262480  61.7162502  64.1642141
  55.9295207  60.7060304  62.7581154  55.2003467  61.5141125  62.8165055
  56.5903809  60.8744100  61.9078130  55.1880591  59.3976907  62.5449413
  55.4370351  58.6875074  61.5685133  54.2842475  59.0653660  63.4636093
  53.7640421  58.2049606  63.3677435  54.1227087  59.6750973  64.2524275
  59.0279255  60.1191528  65.0699911  59.3156986  61.3060722  65.2451799
  59.6427043  59.1333865  65.7265075  59.4377374  58.1656068  65.5228157
  60.5638285  59.4327527  66.8316048  60.0647610  60.0822999  67.5507148
  61.0104303  58.1549056  67.5528693  60.1414349  57.5047799  67.6542727
  61.7606856  57.6637175  66.9332313  61.5997641  58.4395011  68.9390750
  62.4413407  59.1210281  68.8150970  60.8240810  58.9248325  69.5314165
  62.0650653  57.1890232  69.6471010  61.3148720  56.6797370  70.5085322
  63.1794170  56.7080938  69.3390618  61.7951723  60.2317509  66.4189700
  62.2555845  61.1091147  67.1639307  62.3345789  59.9256164  65.2419440
  61.8639832  59.3006023  64.6031981  63.6614822  60.4201408  64.8767231
  63.9051952  61.3074153  65.4610580  64.7160778  59.3403439  65.1609743
  64.3620085  58.4127550  64.7111821  65.6399162  59.6507438  64.6728406
  64.9755604  59.1182966  66.6398312  65.6299736  59.9128737  66.9982881
  64.0233582  59.1664957  67.1681208  65.6255067  57.7772170  66.8945632
  65.0199994  56.9946094  66.4374143  66.6205310  57.7726092  66.4495858
  65.7506555  57.4973496  68.3268554  64.9670002  57.0414031  68.7719357
  66.8163646  57.7975213  69.0680674  67.8663263  58.4060477  68.5297542
  67.8594425  58.6448918  67.5484255  68.6671615  58.6273519  69.1040251
  66.8317039  57.4901536  70.3602360  66.0347685  57.0297136  70.7761555
  67.6402306  57.7182975  70.9208906  63.7942099  60.8882694  63.4348143
  62.9888538  60.5258440  62.5792091  64.8272769  61.6918291  63.1912461
  65.3263186  62.0751608  63.9812546  65.2750682  62.0521760  61.8479580
  64.7644059  61.4313626  61.1118099  64.9638308  63.5234562  61.5485940
  65.3671189  64.1024195  62.3794125  65.5022744  63.7761066  60.6351684
  63.4791356  63.8507659  61.3723164  63.1723027  63.5146726  60.3818642
  62.9183226  63.3044724  62.1307057  63.1985171  65.3523106  61.5120397
  62.1232295  65.4986594  61.4098747  63.5127379  65.6559112  62.5106344
  63.9303341  66.1999706  60.4671596  64.1260792  67.1748124  60.9137779
  64.8762969  65.7052128  60.2470043  63.1610339  66.3774229  59.2104719
  62.2846338  66.8362482  59.4141924  63.6950381  66.9425213  58.5657989
  62.9799163  65.4742564  58.7962428  66.7884698  61.8210884  61.7613149
  67.4681228  61.6915450  62.7873033  67.3175579  61.7803038  60.5448941
  66.7234219  61.7990902  59.7283472  68.7609339  61.6582532  60.3490111
  69.1909030  61.0741889  61.1627032  69.0795564  60.9585216  59.0218195
  68.5090515  61.4227141  58.2173640  70.1442644  61.0299835  58.7995805
  68.7338402  59.4947429  59.0054151  67.7398991  59.0117614  58.1615975
  67.2140373  59.7067880  57.5069929  67.4119584  57.6523108  58.1460068
  66.6327527  57.2852363  57.4780281  68.0806523  56.7701284  58.9830711
  67.8328966  55.7086909  58.9748536  69.0751733  57.2483279  59.8386698
  69.5992825  56.5608180  60.5025521  69.3968216  58.6002659  59.8439665
  70.1758420  58.9725343  60.5092810  69.4444271  63.0236124  60.3798849
  68.9704011  63.9786880  59.7675582  70.5578177  63.1091182  61.1077550
  70.8421128  62.3395840  61.6969009  71.3761806  64.3142962  61.1030464
  70.7828382  65.1992105  61.3331996  72.5419056  64.2232171  62.1166454
  73.1316041  63.3339909  61.8938635  73.4384033  65.4647601  62.0335561
  72.8494684  66.3544058  62.2566864  74.2500839  65.3764404  62.7556882
  73.8537314  65.5470920  61.0291529  72.0087713  64.0461700  63.5332735
  71.4206798  63.1301141  63.5888791  72.8437484  63.9842039  64.2311796
  71.3800156  64.8973792  63.7944439  71.9217857  64.5131703  59.6915235
  72.5946724  63.6350896  59.1503887  71.6012602  65.6544115  59.0904196
  71.0308335  66.3377066  59.5677250  72.0558277  65.9565947  57.7381282
  72.2149670  67.0340803  57.6957185  73.0086440  65.4436842  57.6071194
  71.1164002  65.5504447  56.6132517  71.3906310  65.8541621  55.4557560
  70.0281159  64.8508788  56.9490280  69.9059289  64.5513678  57.9058262
  68.9871820  64.4951405  55.9666614  68.0209710  64.6914683  56.4314096
  69.1154231  65.1507717  55.1053825  69.0260137  63.0521878  55.4989076
  70.0967471  62.4345252  55.4630347  67.8623599  62.5198145  55.1192399
  67.0206466  63.0754247  55.1732342  67.7464032  61.1172745  54.6862044
  68.3195698  60.4795694  55.3591914  66.2873865  60.6567381  54.7005395
  66.2527271  59.5860881  54.4990288  65.8640194  60.8544690  55.6853049
  65.5390232  61.3444273  53.7200381  64.6277833  61.0432737  53.7434514
  68.3383123  60.8626199  53.3026396  68.6743704  59.7218769  52.9696587
  68.4468350  61.9167417  52.4956624  68.1310176  62.8227078  52.8112317
  69.0139413  61.8095040  51.1515952  68.3718909  61.1584759  50.5582717
  69.0331867  62.8040754  50.7059980  70.4272486  61.2411125  51.1565447
  70.8823013  60.6705233  50.1595773  71.1171694  61.3979487  52.2857916
  70.7027110  61.9293763  53.0380603  72.4716293  60.8752240  52.4697984
  73.1280290  61.2706767  51.6946495  73.0238917  61.2856978  53.8330392
  72.3068957  60.9467804  54.5808033  73.9660682  60.7541444  53.9666595
  73.2564566  62.7724798  53.9949828  74.0330495  63.0781263  53.2938519
  72.3378623  63.3182288  53.7794729  73.7081898  63.1199591  55.4000755
  74.8551151  63.5263057  55.6156718  72.8179710  62.9450360  56.3690617
  73.0664226  63.1609817  57.3239129  71.8962674  62.5968021  56.1470323
  72.5596629  59.3613658  52.3472048  73.6216910  58.8323830  52.0212179
  71.4656781  58.6577056  52.6319444  70.6422994  59.1081831  53.0050624
  71.4567708  57.2007487  52.4930810  72.2833380  56.7677218  53.0564402
  70.1368433  56.5626884  52.9834648  69.3029491  57.0230954  52.4536109
  70.1380015  55.0642555  52.7219334  70.9714032  54.6030545  53.2518732
  69.2009354  54.6327629  53.0738167  70.2424988  54.8816528  51.6524297
  69.9360487  56.8221760  54.4696750  69.8966222  57.8965380  54.6493801
  69.0017460  56.3652345  54.7958386  70.7657745  56.3908579  55.0296934
  71.7343221  56.8202714  51.0391183  72.6818059  56.0790656  50.7585075
  70.9362592  57.3512054  50.1156760  70.1443975  57.9176773  50.3843091
  71.1186727  57.0434559  48.7005005  71.2416158  55.9684416  48.5688633
  69.9019580  57.4986386  47.8934774  69.7606457  58.5708491  48.0294724
  70.0703569  57.2858986  46.8377864  68.7433499  56.8094592  48.3354784
  67.9840072  57.0999059  47.8249500  72.4116633  57.6396939  48.1401431
  73.0875301  57.0063435  47.3185244  72.7688682  58.8361566  48.6104948
  72.1745615  59.3080395  49.2769972  73.9698953  59.5306274  48.1364684
  73.9581616  59.5842924  47.0478539  74.0267675  60.9565626  48.6966678
  73.8712548  60.8872751  49.7732895  75.0269417  61.3419554  48.4986177
  72.9871956  61.9019681  48.0913649  73.3490587  62.2095385  47.1102653
  72.0596220  61.3411506  47.9765163  72.7320957  63.1330762  48.9457851
  73.3324228  63.2479926  50.0406127  71.9284413  63.9919155  48.5196000
  75.2421723  58.7624446  48.5011774  76.1308105  58.5710580  47.6581742
  75.3232578  58.3064672  49.7472744  74.6157468  58.5469889  50.4267424
  76.5146660  57.5932980  50.2090851  77.4043603  58.1021453  49.8381167
  76.5829324  57.5403704  51.7383295  75.6273232  57.1739792  52.1133863
  77.3745169  56.8476722  52.0240974  76.8697491  58.9128983  52.3347944
  77.7387621  59.3178462  51.8162056  76.0023544  59.5420883  52.1351732
  77.1386665  58.8838844  53.8191355  76.2880877  58.4487386  54.3437903
  78.0320887  58.2943139  54.0248123  77.3498220  60.2433419  54.3154728
  77.0854869  60.9937975  53.6933452  77.8475413  60.5540398  55.5090792
  78.2047648  59.6057058  56.3645884  78.0989256  58.6341005  56.1098704
  78.5810054  59.8594614  57.2668914  77.9981164  61.8300039  55.8463382
  77.7341746  62.5557554  55.1954008  78.3758558  62.0685549  56.7521556
  76.6634894  56.2115361  49.5716390  77.7928414  55.7350998  49.3724841
  75.5412234  55.5779753  49.2251700  74.6435535  55.8907892  49.5663963
  75.5965917  54.3300738  48.4572037  76.3845648  53.7073329  48.8807500
  74.2569561  53.5495376  48.4726873  73.4675828  54.1965861  48.0901715
  74.3520847  52.2915915  47.6029407  75.1409926  51.6437902  47.9851428
  73.4013447  51.7590874  47.6281105  74.5816842  52.5757826  46.5759945
  73.9112921  53.1390302  49.9078936  74.6587182  52.4087973  50.2180792
  74.0003837  54.0336003  50.5242590  72.5115478  52.5399719  50.0772399
  72.4218495  51.6450392  49.4614887  72.3519194  52.2781887  51.1232263
  71.7635147  53.2698420  49.7676661  76.0875765  54.6045793  47.0314500
  76.9041817  53.8410369  46.4998533  75.6297672  55.7047689  46.4317305
  74.8857822  56.2414668  46.8542717  76.1272223  56.1214025  45.1178417
  75.9505304  55.3249339  44.3949882  75.4204089  57.3900456  44.6308402
  74.3718567  57.1388989  44.4709566  75.4986057  58.1327986  45.4247566
  76.0072171  57.9570646  43.3467718  76.9763407  58.3869053  43.6000250
  76.1490108  57.1203978  42.6626773  75.0024028  59.2018189  42.5517870
  74.9406701  60.5165391  43.7757530  75.9515387  60.8662389  43.9854048
  74.3430615  61.3433179  43.3918241  74.4899177  60.1385124  44.6933691
  77.6437414  56.3245059  45.1555906  78.3582868  55.9054064  44.2345008
  78.1280997  56.9502709  46.2276808  77.4936595  57.3372621  46.9116564
  79.5650807  57.1652921  46.4134725  79.9577898  57.7406061  45.5750856
  79.8469332  57.9353938  47.7119965  79.3775460  57.3829802  48.5260076
  80.9259124  57.9595097  47.8647135  79.3050427  59.3618907  47.6868507
  79.0318295  59.8895920  46.5861896  79.1628367  59.9559826  48.7759950
  80.3199597  55.8349377  46.4001016  81.3651941  55.7117249  45.7512375
  79.7766600  54.8388063  47.0956689  78.9479746  55.0120805  47.6464464
  80.3717008  53.5014394  47.1385882  81.4149094  53.5732552  47.4462530
  79.6279477  52.6098022  48.1358181  78.6001692  52.6748779  47.7786965
  80.0044488  51.5995251  47.9755462  79.6702518  52.9384359  49.6293000
  79.3784666  53.9775964  49.7813125  78.7101320  52.0290083  50.3759107
  79.0015687  50.9896281  50.2247413  78.7402895  52.2631833  51.4400316
  77.6984405  52.1805521  49.9995928  81.0835973  52.8051799  50.1963991
  81.7510546  53.4912558  49.6749587  81.0734109  53.0465062  51.2593003
  81.4355137  51.7826274  50.0598697  80.3932042  52.8121097  45.7748176
  81.3561917  52.1148334  45.4442185  79.3316376  53.0003384  44.9948251
  78.5714816  53.5808678  45.3192445  79.1784276  52.3085571  43.7163263
  79.6488979  51.3268047  43.7703559  77.6932887  52.1226768  43.3766690
  77.3051856  53.1394083  43.4377609  77.6169209  51.7662905  42.3494120
  76.8764620  51.2082751  44.2963616  77.0855673  51.4739620  45.3325982
  75.3793945  51.3608721  44.0234641  75.1694316  51.0948966  42.9874760
  74.8195061  50.7025198  44.6876915  75.0807497  52.3941134  44.2004501
  77.3034284  49.7500056  44.1600393  78.3562414  49.6528345  44.4250713
  76.7028511  49.1311911  44.8267302  77.1566845  49.4226103  43.1307786
  79.9077819  52.9924855  42.5591033  80.1430148  52.3701571  41.5219081
  80.2489754  54.2682224  42.7370713  80.0028563  54.7326751  43.5995145
  80.9754396  55.0324072  41.7191773  81.1712760  56.0253123  42.1240066
  81.9212064  54.5238811  41.5320256  80.2238888  55.1727190  40.4112300
  79.0374792  55.5210516  40.3966119  80.9139470  54.8740518  39.3104560
  81.8792977  54.5885817  39.3923349  80.3579176  55.0637530  37.9703206
  79.8146929  56.0078595  37.9294658  81.4772120  55.0935086  36.9117813
  81.0211670  55.3759855  35.9629247  82.1975678  55.8555616  37.2092082
  82.1925283  53.7499467  36.7535852  81.8703890  52.7804053  37.4782573
  83.0968765  53.6647937  35.8916447  79.2823540  54.0428635  37.5920820
  78.7610681  54.0832155  36.4814368  78.9675548  53.1282804  38.5094812
  79.4892460  53.0933054  39.3736076  77.9364971  52.1117443  38.2783422
  78.0523854  51.6926455  37.2788297  78.0522320  50.9790363  39.2997412
  78.0178156  51.4365136  40.2884925  77.1804852  50.3385610  39.1657671
  79.3236390  50.1417304  39.1703538  79.2858549  49.5881410  38.2321576
  80.1850181  50.8096191  39.1630891  79.4491211  49.1662860  40.3290377
  79.3412229  49.7148264  41.2647516  78.6561582  48.4224998  40.2509904
  80.7406274  48.4761962  40.3359971  80.7757719  47.5713856  39.8885800
  81.8548723  48.9555315  40.8909467  81.8664002  50.1396407  41.4920495
  81.0206574  50.6902585  41.5325367  82.7208573  50.4841422  41.9059595
  82.9730481  48.2444841  40.8395338  82.9750248  47.3446297  40.3808854
  83.8175541  48.6060585  41.2592626  76.5204799  52.6915009  38.2997838
  75.5915991  52.0831971  37.7658655  76.3633441  53.8537954  38.9266480
  77.1320528  54.2529330  39.4461433  75.0796416  54.5619365  38.9307906
  74.2496762  53.8710582  38.7826556  74.8418977  55.3481342  40.2499672
  75.6429257  56.0765845  40.3757190  73.4887056  56.0764846  40.2120886
  72.6870938  55.3485934  40.0868132  73.3421372  56.6206281  41.1451085
  73.4760108  56.7774196  39.3774446  74.9114024  54.4155428  41.4544348
  75.8951079  53.9479127  41.4962409  74.7421633  54.9868227  42.3671763
  74.1466896  53.6443204  41.3620694  75.0324136  55.5136091  37.7389979
  75.9047807  56.3762701  37.5920091  74.0172391  55.3358998  36.8951057
  73.3488939  54.6028909  37.0851377  73.8413644  56.1369631  35.6867950
  74.7281429  56.7494323  35.5236860  73.6300180  55.2413772  34.4561799
  72.5957145  54.9000027  34.4983585  73.7658228  55.8805804  33.5837830
  74.5625005  54.0316115  34.3521264  74.4866582  53.4634021  35.2792115
  74.2260766  53.4139060  33.5194434  76.0121394  54.4426513  34.1259066
  76.0639240  55.0682197  33.2347941  76.3534923  55.0128956  34.9898505
  76.9005478  53.2233993  33.9408933  76.7551293  52.5472186  34.7833503
  76.6207007  52.7173052  33.0169596  78.3326859  53.6281989  33.8708810
  78.5923171  54.0967946  34.7270991  78.9088013  52.8077721  33.7480362
  78.4677315  54.2544291  33.0900497  72.6450030  57.0629269  35.8610369
  71.4981160  56.6077803  35.8722104  72.9209340  58.3570102  35.9910964
  73.8843645  58.6594424  36.0119699  71.8728169  59.3650508  36.1652971
  71.0334851  58.9314283  36.7089815  72.4007401  60.5664989  36.9567397
  73.2199141  60.9145738  36.3275362  71.6123853  61.3189995  36.9751668
  72.9154072  60.3312942  38.3811103  73.7270205  59.6043238  38.3511317
  73.4240286  61.6348114  38.9813402  72.6127995  62.3621775  39.0120780
  73.7864249  61.4525353  39.9930443  74.2375060  62.0242493  38.3692185
  71.8381721  59.7068872  39.2703963  71.5315880  58.7482423  38.8519403
  72.2376266  59.5540328  40.2729795  70.9768089  60.3729382  39.3206798
  71.3138427  59.8345473  34.8286150  72.0101244  59.7987910  33.8118415
  70.0589348  60.2875382  34.8505976  69.5501914  60.2367138  35.7216294
  69.3344303  60.7135912  33.6438901  68.2840483  60.8690002  33.8901521
  69.9040456  62.0209219  33.0790302  70.9746309  61.8800266  32.9303866
  69.4251526  62.2037443  32.1170855  69.6723315  63.2123806  33.9947205
  68.6106435  63.2300273  34.2409072  70.2535997  63.0680479  34.9054316
  70.0623231  64.5250837  33.3504853  71.2544567  64.8852907  33.4174668
  69.1702710  65.1960392  32.7939066  69.2644147  59.6040832  32.5950107
  69.4549793  59.8369077  31.3961367  68.9888148  58.3935710  33.0797827
  68.9636983  58.2787487  34.0829199  68.7549407  57.2222415  32.2439890
  68.7774879  57.5089744  31.1926208  69.8383599  56.1620891  32.4866673
  70.1913859  56.3080440  33.5075341  69.3462524  55.1926817  32.4080566
  71.0261749  56.2096719  31.5253603  71.5829296  55.2778870  31.6248685
  70.6397050  56.2947066  30.5097264  71.9430206  57.3781356  31.8153009
  71.4654386  58.3003145  31.4842412  72.1295018  57.4309423  32.8879312
  73.2226820  57.2393614  31.1239648  73.2661248  56.5684031  30.3702891
  74.3173924  57.9343626  31.4186382  74.3071569  58.8310706  32.4018142
  73.4607327  58.9866966  32.9304414  75.1458582  59.3519159  32.6148866
  75.4305208  57.7277078  30.7273851  75.4396978  57.0451257  29.9830078
  76.2637566  58.2538921  30.9486243  67.3762694  56.6267292  32.5343533
  67.2828039  55.5811905  33.1863640  66.2972268  57.2854845  32.0596938
  66.1974228  58.5851089  31.3685631  66.3703015  58.4481867  30.3011056
  66.9404039  59.2736456  31.7710492  64.7991666  59.0143317  31.6729008
  64.4307296  59.6527749  30.8699415  64.7836848  59.5672306  32.6121369
  63.9979950  57.7552011  31.7810819  63.6348181  57.5240839  30.7796897
  63.1544324  57.8106441  32.4691428  64.9833588  56.6665542  32.2446725
  64.8662733  56.3921924  33.2930593  64.8488257  55.4201471  31.3755516
  65.1352748  55.4696410  30.1805574  64.4391491  54.3119586  31.9881604
  64.3341040  54.3164153  32.9926727  64.2187898  53.0561048  31.2740834
  64.9471497  52.8920113  30.4799397  64.2620043  51.8471705  32.2434118
  63.5867281  52.0473851  33.0752865  63.8403246  50.5512718  31.5445509
  64.5154642  50.3501355  30.7127867  63.8825026  49.7248994  32.2540790
  62.8224654  50.6551665  31.1686916  65.6592731  51.7091076  32.8636751
  65.9031617  52.6162370  33.4166097  65.6736232  50.8559054  33.5418636
  66.3946621  51.5570042  32.0736318  62.8983336  53.1064776  30.5016385
  61.8641000  53.5070525  31.0482176  62.9526199  52.7100302  29.2280580
  63.8370213  52.3917493  28.8584220  61.7998045  52.7716436  28.3196784
  60.8949830  53.0971444  28.8329487  62.0756005  53.7139278  27.1015527
  61.2644275  53.6058921  26.3815340  62.1636378  55.1665264  27.5527164
  62.9749449  55.2754471  28.2724509  62.3558517  55.8044499  26.6900414
  61.2231905  55.4603698  28.0188861  63.3437962  53.2824756  26.3430815
  64.1975079  53.5869458  26.9485359  63.3191010  52.1951064  26.2715429
  63.4730030  53.8828901  24.9410354  63.4982317  54.9702976  25.0118054
  64.3930918  53.5280837  24.4766561  62.6198229  53.5784597  24.3348129
  61.3687222  51.4015895  27.7825875  60.2400533  51.2533905  27.3081777
  62.2651097  50.4159852  27.8619510  63.1195699  50.5554953  28.3820799
  62.0800413  49.1455450  27.1594843  61.0332203  48.8435238  27.1918615
  62.4995483  49.3097908  25.6867229  61.9153788  50.1334292  25.2762778
  63.5505418  49.5957731  25.7282759  62.3425474  48.0860570  24.7990516
  61.0790079  47.5796589  24.4790674  60.1957994  48.0695077  24.8890556
  60.9373008  46.4636551  23.6477820  59.9460858  46.0777181  23.4097747
  62.0661039  45.8489816  23.1227066  61.9242364  44.7459807  22.3028184
  61.0076110  44.4953767  22.1664538  63.3284263  46.3337347  23.4191109
  64.2154405  45.8503860  23.0096229  63.4615932  47.4525417  24.2508510
  64.4518414  47.8452123  24.4817584  62.8630160  48.0226781  27.8242208
  64.0479035  48.1739116  28.1328499  62.1839063  46.9033716  28.0610686
  61.1801780  46.8944277  27.9490473  62.8343239  45.6990972  28.5677214
  63.9154435  45.7840356  28.4578804  62.4863228  45.4174391  30.0532207
  61.4023631  45.4073799  30.1673726  63.0592670  44.0632590  30.4929095
  64.1433073  44.0727150  30.3794727  62.8053314  43.8825971  31.5374088
  62.6366613  43.2713262  29.8745681  63.0174308  46.5433627  30.9500005
  64.1043336  46.5222079  30.8706552  62.6415550  47.4789157  30.5358055
  62.6159105  46.4391083  32.4061631  62.9918573  45.5039572  32.8212009
  63.0373287  47.2775432  32.9607195  61.5290779  46.4606627  32.4863509
  62.4685344  44.5122412  27.6811907  61.2887167  44.2345764  27.4576520
  63.4969664  43.8313165  27.1770298  64.4339503  44.1097785  27.4312332
  63.3341920  42.7220110  26.2408526  62.2762592  42.5505535  26.0421575
  64.0372698  43.0541983  24.9110849  63.6669815  44.0308563  24.5994363
  65.1101996  43.1143052  25.0935923  63.7650710  42.0317962  23.8097317
  63.4192796  40.8684927  24.1058519  63.9251944  42.4027388  22.6237708
  63.9141196  41.4560215  26.8662338  65.1092606  41.3963389  27.1677717
  63.0564248  40.4557124  27.0707092  62.0789573  40.5891678  26.8542695
  63.4705802  39.1763351  27.6560367  64.5220704  39.2239858  27.9392270
  62.6428566  38.8621747  28.9021534  61.6151088  38.7306460  28.5637248
  63.0202853  37.9168036  29.2919241  62.6840457  39.9094859  29.9931587
  63.7166985  40.2312268  30.1281103  62.0712011  40.7656198  29.7110981
  62.1725210  39.3606076  31.3082162  62.9021629  38.6886974  32.0399576
  60.9059312  39.6297976  31.6082560  60.5115751  39.2886342  32.4732370
  60.3436747  40.1742727  30.9698863  63.3676012  37.9935640  26.6837858
  63.3412313  36.8363286  27.1139136  63.3221049  38.2761903  25.3845870
  63.3453363  39.2356466  25.0699393  63.1456923  37.2177029  24.3804133
  62.4890912  36.4421265  24.7746916  62.5342492  37.7618480  23.0605714
  62.4590722  36.9429052  22.3451825  61.1476026  38.3528643  23.3047250
  61.2220463  39.1722261  24.0197103  60.7409665  38.7270171  22.3651742
  60.4885676  37.5818298  23.7038232  63.3854947  38.7707924  22.5080015
  63.0014852  39.1022706  21.6929805  64.4353082  36.4596485  24.0582964
  64.3948528  35.4247230  23.3885392  65.5698523  36.9727010  24.5315447
  65.5433378  37.8304500  25.0641448  66.8791734  36.3884981  24.2181644
  66.7491807  35.4856073  23.6215161  67.7297663  37.3849253  23.4204171
  67.9108903  38.2482100  24.0607552  68.6775934  36.8977762  23.1914856
  67.0679320  37.8433725  22.1244624  66.9897121  36.9795744  21.4642840
  66.0691072  38.2054482  22.3680852  67.8516659  38.9476564  21.4249688
  68.1212524  39.7139724  22.1517300  68.7575251  38.5260814  20.9893164
  67.0627653  39.5694300  20.3577446  66.5682083  40.4177299  20.5941764
  66.9600567  39.0985628  19.1145664  67.5957986  37.9885276  18.7536631
  68.1638317  37.4940291  19.4266488  67.5079400  37.6446232  17.8080891
  66.2118002  39.7404766  18.2247215  65.7236694  40.5827913  18.4936721
  66.1343211  39.3833854  17.2831369  67.6071503  35.9106934  25.4770322
  67.0976195  36.0650247  26.5917345  68.7901037  35.3239265  25.2911455
  69.1458135  35.2284869  24.3506876  69.5582819  34.7263652  26.3895041
  68.9789872  33.9256953  26.8493351  70.8795694  34.1415497  25.8736085
  70.6355776  33.4312433  25.0836515  71.4592750  34.9643877  25.4553036
  71.6954342  33.4426290  26.9485948  71.8462772  34.1496063  27.7643952
  71.1024561  32.5998480  27.3038360  73.0398584  32.9430527  26.4583498
  73.6278796  33.5567740  25.5381349  73.5112528  31.9295394  27.0098233
  69.8236252  35.7019096  27.5343932  69.6163470  35.3676240  28.7017346
  70.2951513  36.8977255  27.1891738  70.5551722  37.0635208  26.2274044
  70.4869043  37.9762337  28.1535249  70.4619532  37.5756187  29.1669272
  71.8389367  38.6567008  27.9299367  71.8773617  39.0159316  26.9015516
  71.9270845  39.5016050  28.6129206  73.0144132  37.7196840  28.1617031
  72.9868074  36.8745029  29.0574848  74.0590152  37.8715465  27.3557047
  74.8676527  37.2762516  27.4644662  74.0399655  38.5816300  26.6377080
  69.3665853  39.0041162  28.0369023  68.8641857  39.2582420  26.9418165
  68.9801190  39.5903973  29.1674947  69.3743384  39.2909360  30.0478431
  67.9473626  40.6261496  29.1866692  67.1235290  40.3705771  28.5202758
  67.3795492  40.8464809  30.6164002  68.1867517  41.1878554  31.2644640
  66.2601152  41.8856119  30.6076001  65.4522914  41.5447001  29.9600657
  65.8808211  42.0204092  31.6205493  66.6472424  42.8343314  30.2358940
  66.8678555  39.5370802  31.1976854  67.6854132  38.8180748  31.2499613
  66.4744592  39.7125850  32.1989532  66.0765405  39.1410469  30.5612273
  68.5136586  41.9332555  28.6334253  69.6362331  42.3183030  28.9694059
  67.7369374  42.5986873  27.7809256  66.8600224  42.1929596  27.4868093
  68.1366955  43.8799668  27.2015453  69.1755094  44.0875135  27.4582342
  68.0038607  43.8591564  25.6706740  66.9525376  43.6054875  25.5347652
  68.1817506  44.8730013  25.3121024  68.8740574  42.8756310  24.8758581
  68.7947743  41.8864529  25.3267924  68.4116193  42.8103622  23.4213420
  68.4910580  43.7991449  22.9695710  69.0387175  42.1087150  22.8713059
  67.3746564  42.4765908  23.3838575  70.3545157  43.2398213  24.9542845
  70.6792446  43.2209325  25.9946180  70.9372000  42.5201962  24.3792019
  70.5056527  44.2387372  24.5451101  67.2989909  45.0096245  27.7981603
  66.0665537  44.9508178  27.7838615  67.9767902  46.0262213  28.3303866
  68.9863190  45.9987664  28.3444336  67.3044379  47.1779671  28.9385223
  66.2222060  47.1086200  28.8286855  67.6429641  47.3157491  30.4513195
  68.7097542  47.5128994  30.5571021  66.8465742  48.4627419  31.0836639
  65.7796178  48.2660638  30.9786749  67.0987295  48.5410532  32.1412014
  67.0942677  49.3978806  30.5814040  67.3682036  46.0093509  31.1888664
  67.9812228  45.2151170  30.7628359  67.6120213  46.1292409  32.2444605
  66.3147215  45.7487147  31.0871559  67.7079660  48.4538468  28.2059310
  68.8893584  48.8086829  28.1724596  66.7231152  49.1394350  27.6283691
  65.7771473  48.7866339  27.6562175  66.9855327  50.3633600  26.8683095
  68.0598345  50.4829581  26.7280562  66.3142443  50.3073388  25.4895366
  66.5468761  49.3354045  25.0544211  65.2387608  50.3855835  25.6486376
  66.7701726  51.4138394  24.5376670  66.4166461  52.3630560  24.9402929
  67.8601270  51.4053114  24.5325881  66.2560821  51.2433230  23.1180935
  65.2520485  50.5294895  22.9118114  66.8645074  51.8378110  22.2026484
  66.5432545  51.6066208  27.6334066  65.5248558  51.5918145  28.3329814
  67.3215000  52.6782364  27.4940404  68.1832790  52.5970585  26.9736112
  67.0173463  53.9544140  28.1345576  66.1621593  53.8381263  28.8003141
  68.2174667  54.4748388  28.9582990  67.9287817  55.4043349  29.4490110
  68.6408733  53.4542416  30.0112464  68.9301631  52.5245687  29.5212266
  69.4868226  53.8446898  30.5769487  67.8084366  53.2635728  30.6885905
  69.3239830  54.7348306  28.0878049  70.0671420  55.0577354  28.6026326
  66.5777779  55.0159397  27.1151462  66.7881406  54.8569831  25.9124549
  65.9715420  56.0930002  27.6133195  65.7933977  56.1308629  28.6067632
  65.4658481  57.1830626  26.7748585  64.8090806  56.7817277  26.0030516
  64.6717925  58.1857728  27.6213317  63.9889417  57.5301842  28.1617182
  65.3772351  58.6319985  28.3222835  63.8718359  59.2951667  26.9252250
  64.5594158  59.8729193  26.3075383  62.7500181  58.7350228  26.0510347
  62.0617337  58.1574927  26.6681428  62.2117191  59.5569114  25.5789816
  63.1754988  58.0906577  25.2817101  63.3076878  60.2593516  27.9530413
  64.1248664  60.7094601  28.5167087  62.7423918  61.0415446  27.4463699
  62.6501428  59.7203683  28.6351193  66.5738239  57.8950851  25.9910074
  66.3467907  58.3549754  24.8715830  67.7574240  57.9882871  26.5936003
  67.8313621  57.7284020  27.5667869  68.9249712  58.6004088  25.9456206
  68.5901630  59.3515092  25.2301831  69.8453318  59.2800927  26.9790881
  70.6372681  59.8166552  26.4565587  69.2394235  59.9880429  27.5445805
  70.4851439  58.2957660  27.9561466  71.7012464  58.3264513  28.1734808
  69.6723722  57.4366780  28.5626413  70.0488816  56.7662273  29.2174973
  68.6819566  57.4582403  28.3658858  69.6913022  57.6249856  25.0413914
  70.8817518  57.8231638  24.7582518  68.9875268  56.5720719  24.6168282
  68.1817941  56.3348107  25.1777215  69.4068332  55.6284853  23.5566299
  68.5783427  54.9618303  23.3173104  69.8233927  56.3734549  22.2774585
  70.6154799  57.0916688  22.4892744  70.1726826  55.6568381  21.5341168
  68.7064660  57.1426606  21.6397546  68.8855997  58.3890229  21.0794707
  67.7315149  58.8237501  20.6027930  67.6633801  59.7955118  20.1137779
  66.8110032  57.9055661  20.8387722  65.8345936  57.9652862  20.5874602
  67.3938907  56.8447886  21.4862737  66.7918324  55.9812126  21.7688750
  70.4237208  54.5348042  23.9241898  70.8328824  53.7476196  23.0596250
  70.7985180  54.4579723  25.1980198  70.4558111  55.1319364  25.8676642
  71.7706761  53.4616687  25.6514452  72.5455988  53.3338645  24.8956277
  72.4316728  53.9065796  26.9599053  71.6344843  54.1142188  27.6736809
  73.0338011  53.0727799  27.3209032  73.3123863  55.1409480  26.8093223
  74.1341010  54.8657415  26.1481513  72.7131984  55.9202448  26.3383981
  73.8726884  55.6584221  28.1257946  73.4097631  55.2317313  29.2067595
  74.7838330  56.5121456  28.0760602  71.1449384  52.0764515  25.8160989
  69.9594756  51.9544726  26.1344210  71.9521694  51.0428336  25.5857403
  72.8931591  51.2184789  25.2635811  71.5281970  49.6556056  25.7630726
  70.4753471  49.6317595  26.0442091  71.7087453  48.8495983  24.4726233
  72.7495297  48.9848311  24.1783797  71.5410886  47.8074921  24.7446638
  70.7995972  49.2227756  23.3083762  70.9381482  50.2924340  23.1511012
  71.1795011  48.6768793  22.4447951  69.0352415  48.8739790  23.5032890
  68.9954646  47.4548936  24.6052180  69.4703462  47.7153180  25.5511385
  67.9607828  47.1640125  24.7866636  69.5311061  46.6234109  24.1471504
  72.3331991  48.9893696  26.8701946  73.5651494  49.0825812  26.9007742
  71.6349633  48.3065537  27.7715243  70.6261940  48.3559424  27.7648389
  72.2824533  47.5531869  28.8369435  73.3627862  47.5689661  28.6929609
  71.9616955  48.1631161  30.2069835  70.8762173  48.2265890  30.2831911
  72.3421938  47.5034159  30.9868019  72.5594139  49.5399932  30.3767926
  71.8977143  50.6769500  29.9016843  70.9275902  50.5597306  29.4187575
  72.4586156  51.9425353  30.0374694  71.9380803  52.8244230  29.6640811
  73.6927539  52.0761355  30.6584708  74.2592585  53.3187632  30.8035052
  73.7171249  54.0228720  30.4402951  74.3666761  50.9659110  31.1345760
  75.3366099  51.0745566  31.6198852  73.7995940  49.7070383  30.9908702
  74.3252484  48.8269776  31.3613843  71.8887195  46.0865744  28.7740494
  70.7294051  45.7536759  28.5283554  72.8721791  45.2150356  28.9763175
  73.8037797  45.5591950  29.1600942  72.6705119  43.7772352  28.9036102
  71.6326783  43.5534840  28.6567581  73.5684116  43.1895120  27.8166040
  73.6373992  43.9332987  27.0228022  74.5524926  43.0409842  28.2611533
  73.0739951  41.8832314  27.2406965  73.1391971  41.1280612  28.0240020
  72.0315094  42.0175804  26.9521258  73.8786355  41.4317010  26.0344627
  74.2260056  40.2351249  25.9766194  74.1645487  42.2682650  25.1478470
  72.9732067  43.1422197  30.2584671  74.0186594  43.4143099  30.8605133
  72.0553292  42.3044791  30.7385772  71.2177403  42.1132435  30.2075658
  72.1825941  41.7124785  32.0697045  73.2496590  41.6326800  32.2773196
  71.5469663  42.6294559  33.1192257  70.4766955  42.7119666  32.9299841
  71.7085597  42.2118480  34.1130021  72.0026942  43.6179915  33.0625798
  71.5911339  40.3097743  32.1656468  70.7967347  39.8991638  31.3202464
  71.9868767  39.5819708  33.2076595  72.7299804  39.9217446  33.8013345
  71.4131955  38.2717580  33.4984024  71.2908556  37.7110865  32.5716988
  72.3262809  37.4746237  34.4361325  72.4754839  38.0879542  35.3247625
  71.7836153  36.5690270  34.7072574  73.6830957  37.0969699  33.8448658
  73.5226017  36.4931286  32.9517152  74.2162465  38.0087039  33.5754339
  74.5106049  36.3029320  34.8540181  74.6469466  36.9169093  35.7442662
  73.9578091  35.4009344  35.1165378  75.8752262  35.9166620  34.2887480
  76.3448604  35.2269358  34.9900482  75.7122261  35.4112080  33.3368832
  76.7668750  37.0972450  34.0791266  76.9183894  37.5655015  34.9611010
  77.6528150  36.7878961  33.7056113  76.3320773  37.7362822  33.4289870
  70.0207003  38.4137259  34.1202812  69.1077153  37.6499071  33.7879649
  69.8772273  39.3907998  35.0173520  70.6755498  39.9716881  35.2303059
  68.6167745  39.6552972  35.7210864  67.7870173  39.2302959  35.1563068
  68.6284986  39.0296337  37.1195272  69.3879855  39.5535988  37.6998198
  67.6457659  39.2231172  37.5495281  68.9067263  37.5493057  37.1493833
  70.2056788  37.0735157  37.2990669  71.0215099  37.7905287  37.3907810
  70.4723820  35.7076612  37.3326657  71.4949795  35.3477445  37.4460512
  69.4314268  34.8062371  37.2176612  69.6970599  33.4539386  37.2509583
  70.6308023  33.2575743  37.3566270  68.1264323  35.2542228  37.0731167
  67.3033937  34.5449075  36.9860548  67.8726364  36.6219120  37.0397121
  66.8508232  36.9839901  36.9261452  68.3743020  41.1532760  35.8669062
  69.3014589  41.9575376  35.7454631  67.1233386  41.5123904  36.1480135
  66.4083738  40.8002069  36.1894807  66.7311342  42.9023271  36.3754195
  67.5925818  43.5616197  36.4819117  65.8417438  43.4308377  35.2162943
  65.0156857  42.7347255  35.0708462  65.2873195  44.8221809  35.5221140
  66.1128441  45.5189942  35.6672394  64.6702740  45.1591412  34.6891595
  64.6829448  44.7819187  36.4283214  66.6186203  43.4439985  33.9008394
  66.9444861  42.4319759  33.6605817  65.9767928  43.8175288  33.1029471
  67.4896374  44.0918924  33.9991429  65.9672296  43.0144895  37.6941653
  65.1573667  42.1448807  38.0264943  66.2417423  44.0768144  38.4499309
  67.0616528  44.6368474  38.2649733  65.3911302  44.4446799  39.5833857
  64.6431967  43.6680724  39.7433090  66.1922191  44.6643371  40.8870580
  67.0142878  45.3517053  40.6874873  65.2871809  45.2527115  41.9789240
  64.4650782  44.5656426  42.1793840  65.8661866  45.4014248  42.8903720
  64.8868633  46.2093554  41.6432494  66.8127161  43.3463481  41.3721995
  65.9837805  42.6875072  41.6308405  67.3583219  42.9280743  40.5263503
  67.7610745  43.4774809  42.5809975  67.2160239  43.8952852  43.4274366
  68.1479577  42.4941321  42.8482909  68.5905646  44.1358546  42.3229469
  64.6288056  45.7253610  39.2375211  65.2360435  46.7451297  38.9197556
  63.3018106  45.6539996  39.2928081  62.8555844  44.7567807  39.4192189
  62.4536380  46.8345002  39.1418922  62.9506889  47.5687033  38.5078691
  61.1166022  46.4530332  38.4945251  61.3171350  46.0480437  37.5026233
  60.6417584  45.6884664  39.1093918  60.2519325  47.5738479  38.3819034
  59.4266199  47.3015797  37.9740691  62.2368821  47.4443913  40.5258105
  61.5342647  46.8661786  41.3531876  62.8522942  48.6001006  40.7749086
  63.4347006  49.0197115  40.0643955  62.7893611  49.2435199  42.0922054
  62.2415862  48.5723765  42.7537252  64.1989667  49.4417491  42.6546636
  64.7569116  50.1188315  42.0078584  64.1346073  49.8673392  43.6560782
  64.7106650  48.4804477  42.7011798  62.0204614  50.5697621  42.0567244
  62.3542447  51.5182175  42.7759150  60.9876467  50.6141657  41.2188902
  60.7943705  49.7927597  40.6638804  60.1592838  51.8089553  41.0066767
  60.5106867  52.6520610  41.6014776  60.1409176  52.2101448  39.4927484
  59.5457446  53.1151194  39.3707218  61.5663508  52.4659780  38.9945562
  62.1620451  51.5612465  39.1158406  61.5391493  52.7439379  37.9409438
  62.0138102  53.2750888  39.5718075  59.4465386  51.1360842  38.6382986
  59.9912453  50.2052188  38.7960482  58.4320433  51.0325114  39.0232290
  59.3942558  51.4487300  37.1409439  60.4084654  51.5519921  36.7551776
  58.8877509  50.6378870  36.6174121  58.8492650  52.3792866  36.9823587
  58.7285054  51.5619266  41.5349340  58.3144529  50.4066525  41.6782669
  57.9693048  52.6373229  41.8446503  58.3660551  54.0568293  41.9049123
  58.5985627  54.4095960  40.9001257  59.2473354  54.1587416  42.5382037
  57.1568671  54.7357002  42.4905597  57.0502435  55.7259190  42.0476183
  57.2851896  54.8323905  43.5686532  55.9921641  53.8697366  42.1705113
  55.6569650  54.1046397  41.1602831  55.1531060  53.9572904  42.8607398
  56.5585013  52.4459403  42.2137144  56.5212384  51.9866417  43.2015173
  55.8246265  51.5529151  41.2080585  56.0452013  51.6891392  40.0137387
  54.9689162  50.6266242  41.6884657  54.5721746  50.3896429  43.0871240
  53.9334575  51.2044587  43.4280286  55.4617923  50.3389958  43.7149092
  53.8390491  49.0664040  43.0167978  53.0626647  49.0336665  43.7811632
  54.5402165  48.2472868  43.1765247  53.2592953  49.0085082  41.6533842
  52.3246684  49.5643382  41.5783862  53.0961718  47.9794967  41.3330318
  54.3285171  49.6663759  40.7745942  55.0942644  48.9456510  40.4877408
  53.7167137  50.2883496  39.5158145  53.9654187  49.7948765  38.4101517
  52.9501872  51.3718286  39.6645029  52.7124762  51.7123920  40.5851600
  52.2910137  51.9865935  38.5017237  51.8330709  51.2137042  37.8844476
  51.1949373  53.0162858  38.9040298  50.5537142  52.5569900  39.6563466
  51.8007607  54.3015741  39.4673752  52.4417895  54.7617155  38.7154100
  51.0020998  54.9931471  39.7356411  52.3910298  54.0677176  40.3533741
  50.3919302  53.3269360  37.7590031  49.7153866  53.9619064  38.0053803
  53.2821443  52.5798894  37.4911565  52.9780068  52.6925601  36.3008835
  54.4644635  52.9658378  37.9672469  54.6358629  52.9840150  38.9624309
  55.4853142  53.5243744  37.0759839  55.0164026  54.2190213  36.3790716
  56.5610932  54.2737001  37.8633717  56.8370306  53.5867758  38.6634297
  57.4252729  54.4508649  37.2231326  56.0937548  55.6016558  38.4691931
  55.3714495  55.3995781  39.2601043  57.2780814  56.3590078  39.0466215
  58.0006532  56.5618675  38.2561553  56.9342171  57.3007940  39.4742859
  57.7500107  55.7583246  39.8241579  55.3550648  56.4698000  37.4684325
  54.4747820  55.9388389  37.1061040  55.0464581  57.3978012  37.9497609
  56.0123835  56.6974870  36.6292724  56.0889975  52.4883325  36.1230712
  56.8181235  52.8433160  35.1947830  55.7591839  51.2151083  36.3390717
  55.2749931  50.9545904  37.1862960  56.0810494  50.1638898  35.3723968
  57.1615521  50.1369305  35.2313780  55.7431044  49.2070402  35.7703057
  55.4118246  50.4048766  34.0268202  55.8710490  49.8945316  33.0073311
  54.3370557  51.1959470  34.0263278  53.9590641  51.5087136  34.9091635
  53.6324223  51.5731455  32.7946529  53.3475999  50.6768845  32.2435706
  52.3637369  52.3708264  33.1226566  52.6331338  53.1137393  33.8733930
  52.0528124  52.8755751  32.2079683  51.2249405  51.5205560  33.6410655
  51.6223064  50.8332069  34.3878937  50.4906238  52.1776531  34.1070103
  50.4272579  50.5755262  32.3315625  49.4925196  51.8681052  31.5044973
  50.1764054  52.6328144  31.1362323  48.9420579  51.4398379  30.6668341
  48.7912471  52.3168968  32.2079916  54.5051646  52.3693985  31.8237418
  54.2267778  52.4032677  30.6242370  55.5525696  53.0037644  32.3492476
  55.7221369  52.9472988  33.3433089  56.4424725  53.8394032  31.5392193
  55.8589809  54.4010529  30.8097083  57.2021597  54.8309774  32.4265755
  57.7618209  54.2442985  33.1550578  57.8977966  55.3686231  31.7822725
  56.3133789  55.8259821  33.1534588  55.4025958  55.9781338  32.5742999
  56.0571382  55.4237037  34.1335683  57.0339305  57.1556922  33.3237950
  57.4559620  57.1859950  34.3283199  57.8390895  57.2010030  32.5904702
  56.1032774  58.3438986  33.1288839  55.3911017  58.3206415  33.9537266
  56.7201235  59.2391393  33.2072686  55.3662506  58.3621252  31.8390815
  54.7942754  57.5328679  31.7664415  54.7774611  59.1817887  31.7993513
  56.0259826  58.3841084  31.0746408  57.4323538  53.0108154  30.7286577
  58.2047033  53.5536691  29.9312838  57.4078585  51.6996686  30.9486124
  56.7612634  51.3312276  31.6314486  58.2962456  50.7686917  30.2660718
  59.0236866  51.2863392  29.6407960  59.0402896  49.8527584  31.2749273
  58.3021350  49.3115083  31.8667690  59.9410980  48.8539514  30.5466726
  60.6798596  49.3944936  29.9549413  60.4506837  48.2244629  31.2761706
  59.3356197  48.2300928  29.8891806  59.8410597  50.6840065  32.2904113
  60.6809809  51.1237901  31.7526162  59.1824739  51.4766868  32.6454072
  60.3638269  49.8825721  33.4846355  61.0229005  49.0899399  33.1304375
  60.9170764  50.5432747  34.1520830  59.5243929  49.4428345  34.0232274
  57.4792033  49.9133832  29.2978140  56.4066745  49.4066387  29.6535315
  57.9787601  49.7789352  28.0711422  58.7867945  50.3197953  27.7979203
  57.3610262  48.9075756  27.0767966  56.2981898  48.8011561  27.2939435
  57.5174157  49.4900665  25.6646093  58.5717217  49.6593092  25.4457600
  57.0981864  48.8082258  24.9247175  56.8225332  50.8082807  25.4765701
  55.7699995  50.9798190  24.6040528  55.3604011  52.2363075  24.6478559
  54.5377341  52.5751757  24.0181844  56.1016073  52.8844278  25.5283646
  56.0101298  53.8578268  25.7817934  57.0291712  52.0171352  26.0533270
  57.7463664  52.3694328  26.7946897  58.0184562  47.5393184  27.2041811
  59.2486738  47.4397150  27.2714265  57.2019164  46.4924720  27.2963241
  56.2005092  46.6136186  27.2452708  57.7269413  45.1492141  27.5581888
  58.7919621  45.2090783  27.7823451  57.0103709  44.5082741  28.7520937
  55.9300242  44.5880503  28.6313211  57.2897036  43.4578635  28.8340149
  57.3432161  45.1449445  30.0693222  56.5758030  46.1996512  30.5590566
  55.7286428  46.5569656  29.9736115  56.8805515  46.7984229  31.7845340
  56.2742332  47.6233352  32.1586977  57.9666662  46.3359200  32.5303354
  58.2122603  46.7993616  33.4858485  58.7379265  45.2782531  32.0497354
  59.5861643  44.9098523  32.6266874  58.4193927  44.6904658  30.8231139
  59.0182418  43.8625232  30.4436528  57.6501093  44.2097220  26.3602554
  56.6436367  44.1694767  25.6527080  58.7338002  43.4559481  26.1620561
  59.5684648  43.6649797  26.6909607  58.7893069  42.3776390  25.1781443
  57.7804824  42.1338738  24.8450516  59.6200671  42.7928390  23.9599881
  59.2938847  43.7780035  23.6265886  60.6672628  42.8392807  24.2588598
  59.4888154  41.8200369  22.8007836  58.5111205  41.0764240  22.7009697
  60.4757117  41.8286319  21.9106990  60.4425722  41.2030670  21.1184427
  61.2543142  42.4606906  22.0306193  59.3724595  41.1227418  25.8396996
  60.5080419  41.1541637  26.3193351  58.5841989  40.0295163  25.9219807
  59.0849357  38.7607260  26.4869718  59.6165407  38.9639342  27.4165969
  59.7644955  38.2915396  25.7755215  57.8370264  37.9570318  26.7009976
  57.4487867  38.1375436  27.7033870  58.0563153  36.8959144  26.5824917
  56.8881858  38.4201536  25.6618765  55.8815322  38.2799775  26.0557018
  56.9726482  37.9217394  24.6961907  57.1839263  39.9213544  25.5052029
  57.0916811  40.2825335  24.4809282  56.2791544  40.7524815  26.4229510
  56.7553337  41.2637380  27.4469276  54.9906871  40.9048419  26.0624469
  54.3191418  40.3994341  24.8474259  54.1656324  39.3241556  24.9385922
  54.9421490  40.6044613  23.9768371  53.0357360  41.1615828  24.8211039
  52.2561778  40.5439262  24.3751349  53.1639926  42.0676101  24.2288488
  52.7224697  41.4930576  26.2384305  52.1930732  40.6372290  26.6572333
  52.1248652  42.3936979  26.3791982  54.0803187  41.6538204  26.9284525
  54.4320519  42.6831353  26.9984019  54.0222632  41.0399802  28.3267242
  54.2650445  39.8410027  28.4921329  53.7051968  41.8538349  29.3271094
  53.5843839  42.8441517  29.1697044  53.5398435  41.3433574  30.6856148
  54.4479654  40.8274378  30.9974492  53.2675291  42.4874011  31.6632521
  52.4280985  42.9970095  31.1902247  52.9410391  42.0488598  32.6062186
  54.3882320  43.4919614  31.9299345  54.7188875  43.9288082  30.9876327
  53.8707169  44.5929121  32.8453653  53.5402857  44.1568601  33.7881128
  54.6678729  45.3110670  33.0374504  53.0329541  45.1001449  32.3668585
  55.6356487  42.8194402  32.5179545  56.0092257  42.0711211  31.8189850
  56.4062807  43.5705054  32.6915305  55.3788875  42.3382426  33.4616820
  52.3769479  40.3511267  30.7380370  51.4483095  40.4511706  29.9325980
  52.4174563  39.3981285  31.6886449  53.5220853  39.0523860  32.6034114
  53.5881994  39.7982342  33.3955224  54.4608441  39.0265903  32.0500892
  53.1249107  37.7050371  33.1151889  53.5144601  37.5666382  34.1237503
  53.5275665  36.9313975  32.4613912  51.6429593  37.6912261  33.1007946
  51.3200567  38.1755208  34.0223647  51.1792709  36.7076032  33.0261036
  51.2466819  38.5478673  31.8966936  51.0501846  37.9816662  30.9862523
  50.0241131  39.4039329  32.2383165  50.1729285  40.4983565  32.7907403
  48.8366353  38.9081126  31.8918044  48.8099115  38.0087463  31.4329737
  47.5769605  39.6368448  32.0663485  47.5197468  40.4659336  31.3610559
  46.3981282  38.6930414  31.8090243  46.2688996  38.6490841  30.7276053
  46.7013920  37.7133645  32.1782995  45.0771449  39.0975091  32.4637348
  45.2934466  39.5079842  33.4500535  44.6077857  39.8638014  31.8468068
  43.9485020  37.7027306  32.6368714  44.5209208  36.6966476  31.2749501
  45.5707888  36.4447847  31.4247547  43.9315475  35.7810307  31.2261094
  44.4100029  37.2497127  30.3422565  47.4071909  40.3143651  33.4320302
  47.0259927  41.4827936  33.5118592  47.6706858  39.5775598  34.5021939
  47.9535723  38.6119160  34.4149776  47.4028292  40.1010596  35.8349725
  46.4046586  40.5385317  35.8542783  47.4766459  39.0029771  36.9002456
  48.4531046  38.5258832  36.8165255  47.3891920  39.4817499  37.8755551
  46.3746760  37.9431724  36.7497620  46.5145154  37.4675613  35.7790201
  46.5247188  37.2069837  37.5394552  44.6823151  38.5972122  36.8563807
  44.6163579  38.9708021  38.5860669  45.3909201  39.6974994  38.8311454
  43.6387977  39.3857171  38.8316727  44.7786994  38.0594740  39.1615908
  48.2880287  41.2977824  36.1744403  47.7857068  42.2974874  36.6864341
  49.5825596  41.2199952  35.8702481  50.0102312  40.3499264  35.5870933
  50.4511040  42.3864759  36.0833315  50.2332664  42.8025146  37.0669766
  51.9507173  42.0489602  36.0133302  52.1417866  41.1482801  36.5967401
  52.2293938  41.8740482  34.9741742  52.7774054  43.2027610  36.5740560
  52.6084123  44.0411058  35.8982451  52.3437593  43.4288900  37.5481806
  54.2833557  42.9670014  36.7281340  54.4891641  42.0850154  37.3346343
  54.7721726  42.8633095  35.7594207  54.8332673  44.1432869  37.4081211
  55.1694110  44.8922499  36.8197664  54.9077181  44.2908254  38.7282216
  54.5261493  43.3112518  39.5377318  54.1764606  42.4468524  39.1496189
  54.5871376  43.4344972  40.5383270  55.3776906  45.4226505  39.2453008
  55.6771353  46.1679532  38.6329636  55.4329472  45.5315631  40.2478892
  50.1086422  43.5447100  35.1370146  50.1150865  44.7107014  35.5519993
  49.8028050  43.2163937  33.8798718  49.8783175  42.2533067  33.5851504
  49.4166247  44.2216719  32.8816010  50.2658183  44.8696498  32.6645896
  48.9696227  43.5466558  31.5787885  49.7825444  42.9154986  31.2197646
  48.0940753  42.9300016  31.7819001  48.6160119  44.5497781  30.4907816
  49.3896970  45.4698633  30.2014329  47.4356451  44.3810181  29.8824853
  47.1513041  45.0187855  29.1527575  46.8347457  43.6166844  30.1560080
  48.3086292  45.1417060  33.3973532  48.3966688  46.3683117  33.2800090
  47.2704345  44.5430036  33.9773559  47.1889893  43.5364132  33.9618035
  46.1630706  45.3182192  34.5268156  46.0157023  46.2196317  33.9319734
  44.8679926  44.5030470  34.5084767  45.0972818  43.5125039  34.9013509
  44.1573408  44.9997814  35.1690287  44.2583453  44.3688353  33.1134360
  44.4254511  45.2972814  32.5673917  44.7534277  43.5483226  32.5940573
  42.7627695  44.0889424  33.1506921  42.3071593  43.1702913  33.8412219
  41.9917752  44.8830157  32.4066569  40.9916620  44.7426519  32.3935028
  42.4115223  45.6211189  31.8597405  46.4434563  45.8874912  35.9252011
  45.9606646  46.9792578  36.2518919  47.2014613  45.1583167  36.7443457
  47.5273949  44.2475530  36.4538700  47.5245311  45.6136207  38.1075270
  46.5993116  45.7252399  38.6728670  48.4336972  44.6242248  38.8461161
  47.9104374  43.6683743  38.8715765  49.3434133  44.5241844  38.2540784
  48.8011120  45.0492196  40.2877567  47.9176951  45.5310654  40.7066839
  49.0111057  44.1332836  40.8400843  50.2230424  46.1755046  40.4342803
  51.5751629  45.0444598  40.1150593  51.4603747  44.6113717  39.1214007
  52.5209459  45.5836327  40.1687968  51.5680167  44.2492258  40.8604807
  48.1711319  46.9903164  38.0991523  47.8174610  47.8439131  38.9169814
  49.1025587  47.2067959  37.1707242  49.3705881  46.4665855  36.5379935
  49.8902492  48.4462832  37.1657487  50.0981014  48.7969411  38.1766570
  51.2265630  48.3013050  36.3825267  51.7251692  49.2697562  36.3425949
  52.1417568  47.2823130  37.0824928  51.6439847  46.3134314  37.1223935
  53.0743284  47.1884520  36.5260748  52.3564297  47.6219198  38.0957460
  50.9797552  47.9358329  34.9104724  50.5016092  46.9564846  34.8916561
  50.2986891  48.6800854  34.4977537  52.2628379  47.8946092  34.0691089
  52.9442522  47.1502015  34.4809723  52.0154042  47.6305087  33.0409422
  52.7413335  48.8738023  34.0870719  49.0946892  49.6843063  36.7181358
  49.6119720  50.8019530  36.7685184  47.8375710  49.4708731  36.3137992
  47.5224372  48.5160673  36.2182174  46.8923423  50.5561664  35.9847186
  47.4204891  51.4989207  35.8419796  46.0755170  50.2451753  34.7000062
  45.5073519  51.1341815  34.4262243  46.9915882  49.8490072  33.5409761
  47.5597784  48.9597410  33.8138590  46.3895836  49.6378687  32.6571717
  47.6791561  50.6666878  33.3247603  45.1365805  49.1936762  34.9741118
  44.6314676  49.0009019  34.1808279  45.8833205  50.8184598  37.1095178
  45.0249180  51.6966159  36.9830584  45.9981713  50.0646422  38.2043695
  46.7793132  49.4298703  38.2879247  44.9848239  50.0577027  39.2560048
  44.1899027  50.7653454  39.0205448  44.3730740  48.6505087  39.3680148
  45.1952307  47.9357053  39.3331763  43.8787563  48.5879556  40.3374667
  43.3688761  48.3256932  38.2626187  42.4115051  48.7742494  38.5278334
  43.7301082  48.7648652  37.3327040  43.1912262  46.8157527  38.0784710
  43.9862460  46.4482899  37.4296154  43.2673938  46.3348021  39.0536553
  41.8965264  46.4652930  37.4809056  41.2036376  46.0729446  38.1022487
  41.5759152  46.6377408  36.1977224  42.4454029  47.1603951  35.3348263
  43.3649292  47.4327875  35.6516444  42.1812674  47.2819643  34.3675864
  40.3752972  46.2706036  35.7765982  39.7172818  45.8657585  36.4271490
  40.1231421  46.3971255  34.8067999  45.5084189  50.5242410  40.6148934
  44.8035289  50.4136809  41.6242237  46.7305656  51.0606206  40.6323933
  47.2193872  51.1995644  39.7595546  47.4524127  51.3144513  41.8799060
  46.7797563  51.4081420  42.7324637  48.5014926  50.1852092  42.1894307
  49.1717718  50.5349148  42.9746257  47.8060717  48.9054693  42.6470773
  47.1359233  48.5548785  41.8621644  48.5533544  48.1396646  42.8549531
  47.2317236  49.1068784  43.5513230  49.4054496  49.9006234  40.9925106
  49.9497413  50.8060831  40.7241987  50.1145517  49.1141846  41.2509440
  48.7983698  49.5781304  40.1466068  48.0931298  52.7190323  41.9322008
  49.2981551  52.8750362  41.7275652  47.2708099  53.7477149  42.2130764
  45.8274173  53.6451964  42.4976707  45.6725414  52.9483849  43.3214228
  45.3116893  53.2782868  41.6102582  45.4323687  55.0512496  42.8494036
  45.3902105  55.1458906  43.9344680  44.4483618  55.2581459  42.4286593
  46.4591598  55.9529654  42.2655487  46.5707873  56.8203739  42.9161183
  46.2336555  56.2859128  41.2524379  47.7518914  55.1286505  42.2696585
  48.3935686  55.2963983  41.4046676  48.5303752  55.4239540  43.5423363
  48.4173966  54.6764812  44.5239118  49.3125291  56.5053336  43.5195479
  49.5099591  56.9586320  42.6388429  49.9565018  57.0255349  44.7280952
  49.9439212  56.2547331  45.4986829  51.4141771  57.4374435  44.4693230
  51.3566538  58.0006489  43.5378779  51.7272064  58.1007465  45.2756367
  52.4341434  56.3007929  44.3173031  52.1367834  55.4788289  44.9684966
  52.5052054  55.8068412  42.8756585  52.8029766  56.6281941  42.2238836
  53.2366807  55.0020545  42.8024258  51.5268028  55.4368525  42.5691670
  53.8169646  56.7441467  44.7921398  53.7661904  57.0315937  45.8423281
  54.5228858  55.9219582  44.6747398  54.1497750  57.5956429  44.1985992
  49.1623968  58.2062766  45.2810811  48.4206716  58.8748764  44.5495246
  49.3241223  58.4615208  46.5801678  49.9642621  57.8992847  47.1225799
  48.6010365  59.5377010  47.2576573  47.5452702  59.4209159  47.0130801
  48.7429375  59.3970935  48.3291950  49.0437054  60.9415734  46.8802390
  49.9399542  61.1201868  46.0523378  48.4084474  61.9325507  47.5047309
  47.7398539  61.7057852  48.2269909  48.6222923  63.3459481  47.1736794
  49.4297358  63.4397308  46.4474982  47.3435861  63.9489093  46.5675382
  46.5570855  63.8991849  47.3205611  47.5454817  64.9915458  46.3220845
  46.9229044  63.2595118  45.3968824  46.1248057  63.6683867  45.0541586
  49.0116158  64.1350431  48.4207228  48.2912968  64.1163480  49.4228590
  50.1421920  64.8358842  48.3567843  50.7213244  64.7973285  47.5302139
  50.6274904  65.5943533  49.5081570  49.8421012  66.1621881  50.0069823
  51.3111295  64.6597952  50.5573285  50.5806449  63.9258650  50.8976782
  52.5217906  63.9335755  49.9503525  53.2529676  64.6668955  49.6101719
  52.9762405  63.2909796  50.7044389  52.1961099  63.3270089  49.1053018
  51.7087778  65.4237755  51.8230520  50.8198621  65.8588909  52.2797855
  52.1808424  64.7393831  52.5279363  52.4091446  66.2177615  51.5638737
  51.5713063  66.7258018  49.0967551  52.3382033  66.5941732  48.1389388
  51.4683756  67.8493385  49.8084345  50.6665406  67.9787185  50.4087850
  52.4751285  68.9133098  49.7547066  53.2634087  68.6784868  49.0394643
  51.8598979  70.3045857  49.4115204  51.2407288  70.6339206  50.2459475
  52.9728098  71.3393806  49.1585691  53.5921587  71.0109407  48.3239226
  52.5251840  72.3042981  48.9205229  53.5896274  71.4360929  50.0520354
  50.8953717  70.2154178  48.2165625  51.4869121  69.9034232  47.3558418
  50.1667057  69.4409328  48.4559749  50.1539796  71.5372600  47.8825551
  50.8820264  72.3121497  47.6425685  49.4966335  71.3796887  47.0274723
  49.5618215  71.8496605  48.7427031  53.1296123  68.9735882  51.1390904
  52.4303424  69.1235860  52.1454264  54.4530536  68.8188710  51.1901559
  54.9609676  68.5543835  50.3581889  55.1995285  68.9567549  52.4471974
  54.5254310  68.7947287  53.2882915  56.3452401  67.9340669  52.5314900
  55.9172923  66.9559080  52.3120246  57.0658316  68.1968655  51.7570322
  57.0520517  67.8890998  53.8936663  57.5729919  68.8348231  54.0430972
  56.2970254  67.7641935  54.6698337  58.0598381  66.7322847  53.9692668
  57.5349162  65.7965967  53.7767987  58.8244355  66.8827621  53.2071337
  58.7190621  66.6721760  55.3469077  59.2693207  67.6020752  55.4904469
  57.9248576  66.6021283  56.0901653  59.6495406  65.5144321  55.5024996
  60.3857856  65.5793815  54.8141504  60.0523057  65.5283355  56.4286135
  59.1397684  64.6526532  55.3699534  55.7209980  70.3837918  52.5558992
  56.4151001  70.8612247  51.6554405  55.3741011  71.0607293  53.6553037
  54.8842235  70.5877699  54.4012451  55.6593305  72.4864759  53.8081299
  56.2714848  72.8347436  52.9762189  54.3530923  73.2881184  53.8242570
  53.8127366  73.0981190  54.7516270  54.5704668  74.3531028  53.7426695
  53.1980808  72.9073498  52.4832224  52.2607119  73.7737280  52.8568889
  56.4300724  72.7641639  55.0923730  56.0432941  72.2966750  56.1682233
  57.5168404  73.5280047  54.9916530  57.8613751  73.8202080  54.0883189
  58.3053533  73.8705668  56.1811620  57.7514523  73.5631460  57.0681713
  59.7168958  73.1945160  56.1876563  60.3135814  73.6104691  55.3758375
  60.4192407  73.4449748  57.5119172  59.8233377  73.0288657  58.3242309
  61.3993564  72.9681855  57.4998382  60.5394772  74.5177616  57.6628172
  59.6124447  71.6779943  55.9586129  60.4167773  71.2114625  56.5273816
  58.6510558  71.3582647  56.3606128  59.7144340  71.2653098  54.5154983
  60.6758188  71.5843111  54.1129099  59.6313845  70.1810779  54.4403763
  58.9100980  71.7311155  53.9461405  58.4229898  75.3881013  56.3327256
  58.9635771  76.0675035  55.4626411  57.9001104  75.9030924  57.4453407
  57.4435910  75.2851669  58.1009758  57.9269978  77.3369514  57.7454033
  58.2341177  77.9286910  56.8830688  56.5327560  77.8445059  58.2272489
  56.2572319  77.2970234  59.1286082  56.5590718  79.3415839  58.5293184
  56.8340869  79.8897996  57.6282484  55.5722587  79.6629352  58.8625356
  57.2896782  79.5418470  59.3130344  55.4370508  77.5317693  57.1936479
  55.3793645  76.4543013  57.0392547  54.4774313  77.8978894  57.5585944
  55.6769207  78.0212185  56.2497185  58.9786371  77.6135055  58.8209807
  58.9486327  77.0089905  59.8991085  59.8951459  78.5327930  58.5162138
  59.8443789  78.9962655  57.6202700  61.0249404  78.8477626  59.3999918
  61.1408027  78.0565597  60.1407165  62.3343551  78.9669993  58.5984415
  62.1430237  79.6898155  57.8053285  63.1305912  79.3384591  59.2435196
  62.7535254  77.6512457  57.9891642  62.2033406  77.2152396  56.7805513
  61.4837413  77.8539445  56.2683674  62.5593736  75.9906958  56.2309267
  62.1221842  75.6599171  55.2888266  63.4677335  75.1822214  56.8947042
  63.8167916  73.9709569  56.3433435  63.3734847  73.7965156  55.5098875
  64.0311223  75.5879289  58.0938491  64.7540188  74.9559920  58.6097724
  63.6649553  76.8181646  58.6401714  64.0920757  77.1417736  59.5893528
  60.7938848  80.1143568  60.2057538  60.2167458  81.0837883  59.6993121
  61.2771514  80.0994402  61.4505690  61.7460232  79.2638211  61.7699424
  61.1214533  81.2102559  62.3909836  60.8117039  82.1091729  61.8579708
  60.0541181  80.8690583  63.4379414  60.3603439  79.9406359  63.9199754
  60.0628404  81.6774713  64.1690313  58.6519579  80.7092972  62.8771499
  58.0905990  79.4411826  62.6823869  58.6789523  78.5586897  62.9336756
  56.7914643  79.2963601  62.1721579  56.3619197  78.3054093  62.0251551
  56.0514088  80.4289827  61.8531219  54.7673821  80.3157229  61.3485095
  54.4796193  79.4045231  61.2562747  56.5899707  81.6929799  62.0365560
  56.0086470  82.5797547  61.7839817  57.8828709  81.8276562  62.5472176
  58.3098240  82.8195840  62.6951713  62.4441651  81.5469279  63.0850436
  63.3857644  80.7551220  63.0608114  62.5112534  82.7235230  63.7049768
  61.7442642  83.3776032  63.6416835  63.7314846  83.1476648  64.4003706
  64.5866228  83.0369187  63.7336073  63.6381340  84.6148619  64.8382933
  63.3514040  85.1989819  63.9638284  62.8536566  84.6813025  65.5921373
  64.9421228  85.1641718  65.4115411  65.1698201  84.6218090  66.3291997
  65.7358355  84.9952558  64.6838121  64.8401641  86.6506864  65.7138551
  64.7076160  87.1855475  64.7734012  63.9703365  86.8143381  66.3500292
  66.0933599  87.1675548  66.4215819  65.8764763  88.1689965  66.7933031
  66.2978976  86.5048332  67.2624527  67.2881151  87.2172675  65.5247132
  67.0989494  87.8316455  64.7457037  68.0831305  87.5644090  66.0419590
  67.4895119  86.2893371  65.1804988  64.0724190  82.2475240  65.5897092
  65.2496480  81.9575561  65.8330329  63.0404320  81.8143219  66.3150980
  62.1121595  82.1008328  66.0388354  63.1805117  80.9622970  67.4951485
  64.1218055  80.4149078  67.4458508  63.1729437  81.8091693  68.7718552
  62.2560755  82.3983976  68.7556640  63.1435462  81.1153495  69.6120040
  64.3737120  82.7406882  68.9231233  65.2354617  82.1192399  69.1666197
  64.5397903  83.2316327  67.9642225  64.1855116  83.7951201  70.0075152
  63.2541149  83.6688650  70.8333589  64.9751947  84.7646356  70.0262083
  62.0309056  79.9576117  67.5440681  60.9733835  80.2123417  66.9535016
  62.2304884  78.8126016  68.2324398  63.4844907  78.3266974  68.8493687
  63.8290396  79.0582184  69.5803019  64.2401757  78.2056735  68.0732292
  63.0968845  77.0199254  69.4798515  62.9631272  77.1705529  70.5510748
  63.8945349  76.2962604  69.3120298  61.8302554  76.5761691  68.8300484
  61.2472748  76.0620014  69.5941585  61.9459909  75.9257062  67.9630980
  61.1240169  77.8718110  68.4205243  60.5696801  77.7731659  67.4872086
  60.1871472  78.3897157  69.5182875  60.1234866  77.8337587  70.6238083
  59.4663893  79.4603079  69.1875532  59.5149527  79.8009687  68.2379790
  58.6866102  80.2325026  70.1661352  59.3268277  80.5325303  70.9957159
  58.1087883  81.4914220  69.5139291  57.5686328  82.0863269  70.2504204
  58.9126634  82.0889018  69.0839258  57.1411417  81.2054124  68.3983788
  57.5743303  81.1736725  67.0800047  58.6253668  81.3649537  66.8635938
  56.6864840  80.9020535  66.0396196  57.0415296  80.8827074  65.0092464
  55.3419144  80.6548148  66.3190055  54.6427654  80.4362595  65.5118350
  54.8939248  80.6884708  67.6400742  53.8444290  80.5023025  67.8681092
  55.7948403  80.9617370  68.6716569  55.4489393  80.9865308  69.7050193
  57.5743177  79.4424833  70.8614999  57.1950810  79.7613939  71.9881238
  57.0620142  78.4145116  70.1891032  57.3373777  78.2555921  69.2304484
  56.0241025  77.5483529  70.7693491  55.1653344  78.1519103  71.0631773
  55.5603546  76.4985691  69.7534840  54.9748340  75.7246859  70.2498403
  54.9528889  76.9761015  68.9846873  56.6896968  75.7935800  69.0365603
  57.2613315  74.6014315  69.3764792  56.8696107  74.1037857  70.2636112
  58.2558630  74.2765552  68.4774750  58.8193701  73.4387064  68.5013224
  58.3466557  75.2699039  67.5383945  59.1965150  75.3899934  66.4331056
  59.9208688  74.5974966  66.2450654  59.0617655  76.5110360  65.6476968
  59.7090275  76.6423185  64.7805655  58.0976066  77.5034759  65.9401118
  57.9968256  78.3912876  65.3158257  57.2472496  77.3747409  67.0365685
  56.5173965  78.1637178  67.2180366  57.3684701  76.2433543  67.8559622
  56.4551055  76.8674742  72.0677830  55.6271114  76.6342022  72.9487381
  57.7479630  76.5603204  72.1828309  58.3717288  76.7417777  71.4094688
  58.2869934  75.8865181  73.3663517  57.7268148  74.9708214  73.5555572
  59.7579200  75.5251336  73.1576120  60.3023685  76.4527193  72.9808074
  60.1167115  75.0635483  74.0775618  59.9851798  74.5717067  71.9884537
  59.3859472  73.6761423  72.1527261  59.6574864  75.0646682  71.0731897
  61.4480824  74.1848189  71.8587973  62.0521504  75.0846463  71.7425587
  61.7624829  73.6500409  72.7550474  61.6646961  73.3217656  70.6979013
  60.8449763  73.0567598  70.1707099  62.8491046  72.8676740  70.2998633
  63.9568904  73.1935427  70.9626010  63.8984510  73.7908230  71.7749686
  64.8506166  72.8419741  70.6499466  62.9292667  72.0851174  69.2292018
  62.0904220  71.8392161  68.7232648  63.8286813  71.7397114  68.9261395
  58.1159144  76.7204296  74.6340483  57.9003819  76.1743163  75.7096188
  58.1953015  78.0443157  74.4868440  58.4440235  78.4242247  73.5846766
  57.9868363  78.9804018  75.6056827  58.6613385  78.7330548  76.4254177
  58.2658694  80.4155653  75.1596410  57.5745646  80.6298417  74.3446057
  58.0349676  81.0577835  76.0095469  59.6885409  80.6787202  74.6985939
  60.3722162  80.3909048  75.4972498  59.8862510  80.0713996  73.8153191
  59.8964833  82.1625952  74.3566305  59.6246463  82.7578978  75.2283062
  60.9502949  82.3179759  74.1254653  59.0424721  82.5918283  73.1588622
  59.3587017  81.9823390  72.3123268  58.0081229  82.3562121  73.4092738
  59.1501709  84.0349468  72.7996034  60.1084685  84.2533839  72.5671153
  58.5582079  84.2290463  72.0046159  58.8567850  84.5998814  73.5837417
  56.5779503  78.9102964  76.2000071  56.3813228  79.2224015  77.3807471
  55.6098614  78.5170739  75.3697903  55.8330187  78.3874308  74.3933207
  54.2189854  78.3259746  75.7968958  54.0172074  78.9298149  76.6816341
  53.2562790  78.7504559  74.6849691  53.5873237  78.2555957  73.7719401
  52.2689707  78.3800601  74.9608844  53.1870293  80.2516640  74.4510292
  53.0466053  80.7545141  75.4078592  54.1217219  80.5846965  73.9998738
  52.0323071  80.5898124  73.5285162  52.2586361  80.1960262  72.5376547
  51.1335556  80.1082039  73.9137414  51.8020107  82.0992459  73.4365597
  50.8270642  82.2645423  72.9780219  51.7997618  82.5025733  74.4491905
  52.8470366  82.7817867  72.6351829  52.8489972  82.4085007  71.6966983
  52.6531788  83.7724873  72.6030654  53.7504719  82.6291005  73.0601426
  53.9170675  76.8842364  76.2143184  52.7566058  76.5315590  76.4428622
  54.9691555  76.0678677  76.3186355  55.8710967  76.4252944  76.0378376
  54.8684123  74.6550699  76.6963949  55.8661145  74.2162611  76.7080722
  54.2372048  74.4788247  78.0892319  54.5978512  75.2842514  78.7290140
  53.1567394  74.5638159  77.9731674  54.5743679  73.1397066  78.7227695
  55.6908817  72.6259848  78.4881468  53.7220055  72.6027028  79.4635598
  54.1277411  73.8443449  75.6275450  53.3575771  72.9314208  75.9344813
  54.3806895  74.2016687  74.3688446  54.9277247  75.0340443  74.2015046
  53.9274107  73.4293626  73.2180033  53.2630248  72.6324016  73.5519848
  53.1707661  74.3133607  72.2309278  53.8760541  75.0641076  71.8744909
  52.9128369  73.6405893  71.4130334  51.9163518  74.9984479  72.7359343
  51.6088250  76.2875050  72.3100517  52.2973422  76.7876939  71.6289829
  50.4556346  76.9368542  72.7329270  50.2417733  77.9525993  72.4003204
  49.5900112  76.2968855  73.5976704  48.4469744  76.9605222  73.9934206
  48.3698318  77.8367734  73.6089308  49.8582163  75.0096886  74.0344772
  49.1723222  74.4998355  74.7110121  51.0238981  74.3626628  73.5987735
  51.2425268  73.3489848  73.9345687  55.1458205  72.8571537  72.4999165
  56.1150891  73.5799219  72.2598842  55.1026948  71.5786689  72.1356340
  54.3143736  70.9913047  72.3672639  56.2633177  70.9606704  71.4941566
  57.1745946  71.3997311  71.9002344  56.3003005  69.4500025  71.7323810
  57.2393827  69.0423837  71.3581208  56.2153022  69.2446065  72.7994741
  54.9895686  68.5010101  70.9342523  55.3855334  67.3129898  71.3822679
  56.3444743  71.2850200  70.0029624  57.4234537  71.2213110  69.4121549
  55.2063847  71.6395521  69.4061977  54.3529548  71.6917708  69.9438127
  55.1483846  71.9604033  67.9795959  54.7704114  72.9770751  67.8718280
  56.1585566  71.9039896  67.5740476  54.2490635  71.0130494  67.2011797
  53.9547426  71.2521657  66.0227873  53.8183401  69.9407289  67.8593463
  54.1542920  69.7683635  68.7961098  52.8793947  68.9852968  67.2727912
  53.1334662  68.8037602  66.2284774  52.8957854  67.6380476  68.0257692
  52.6435974  67.8151003  69.0713092  51.8852938  66.6657455  67.4156019
  52.1371190  66.4878319  66.3701210  51.9129277  65.7224417  67.9610498
  50.8845887  67.0929773  67.4801223  54.2104020  67.0696508  67.9629166
  54.2195032  66.2318251  68.4314949  51.4661870  69.5597132  67.3227388
  50.9748093  69.9153571  68.3928908  50.8175756  69.6289076  66.1631822
  51.3031787  69.3878005  65.3110342  49.4269150  70.0759977  66.0667992
  48.9930814  70.1315429  67.0651991  49.3346810  71.4616195  65.4143614
  49.7797381  71.3761864  64.4230367  48.2748527  71.6970374  65.3171894
  50.0356858  72.5776856  66.1936937  49.5283939  72.6899366  67.1518980
  51.0684473  72.2732148  66.3634089  50.0185895  74.1631719  65.3223621
  51.6860578  74.2038479  64.6529437  51.8350643  73.3475424  63.9951922
  51.8288078  75.1247770  64.0876007  52.4070125  74.1639280  65.4694803
  48.6230355  69.0637637  65.2531058  49.0297658  68.6886175  64.1538253
  47.5044661  68.6107845  65.8179538  47.3075172  68.8633066  66.7758385
  46.5565408  67.7432905  65.1210300  46.9624718  67.4279147  64.1598551
  46.2000636  66.4928946  65.9666470  45.7869326  66.8211023  66.9204305
  45.1707860  65.6112765  65.2385412  45.5834089  65.2822808  64.2848091
  44.9378059  64.7412941  65.8525050  44.2608529  66.1847305  65.0617037
  47.4649633  65.6846355  66.2837066  47.6178030  64.9929679  65.4552522
  48.2937289  66.3914864  66.3238173  47.3997821  64.9063573  67.5875730
  46.5714836  64.1989268  67.5480304  48.3336408  64.3637551  67.7345079
  47.2474071  65.5974458  68.4165956  45.3225026  68.6133981  64.8615928
  44.6135592  68.9854436  65.7931009  45.0940713  68.9606166  63.5967685
  45.6155021  68.5254859  62.8491921  44.1365059  70.0203392  63.2529929
  43.6224928  70.3892638  64.1405651  44.8367274  71.2037724  62.5313389
  45.1974861  70.8600668  61.5618957  43.8617202  72.3761393  62.3289564
  43.5008672  72.7207138  63.2980561  44.3751240  73.1929243  61.8216305
  43.0172725  72.0467289  61.7235672  46.0799985  71.6645475  63.3060810
  45.7276406  72.2179384  64.1765425  46.6033222  70.7665612  63.6344898
  47.0370479  72.5452759  62.4939880  46.5145293  73.4437399  62.1656034
  47.8877077  72.8266965  63.1146970  47.3902092  71.9923629  61.6235489
  42.9957991  69.4986769  62.3849967  43.1970698  69.1785797  61.2131768
  41.8010836  69.4336017  62.9660665  41.7003676  69.7262682  63.9274728
  40.6258014  68.9102690  62.2748831  40.9277886  68.1845226  61.5197704
  39.6955165  68.2156125  63.2783210  40.3177192  67.6335384  63.9581392
  39.1723836  68.9904085  63.8387880  38.6796288  67.2993624  62.6105338
  38.5175329  67.3567827  61.3739510  38.0381223  66.5164434  63.3339024
  39.8937258  70.0423636  61.5591846  40.0083613  71.2065053  61.9481456
  39.1554556  69.7056557  60.5075103  39.1738588  68.7603827  60.1522363
  38.3004361  70.6814889  59.8358705  37.2906396  70.2712819  59.8240229
  38.3155846  71.5909167  60.4365459  38.7108282  71.0199324  58.4200046
  39.9047565  71.1699552  58.1185904  37.7056951  71.1652951  57.5588901
  36.7623798  71.0467610  57.8997790  37.9011333  71.4088783  56.1301259
  38.5047774  70.6144055  55.6913481  36.5383764  71.4389463  55.4206997
  36.0576954  70.4839239  55.6327776  35.9663719  72.2435524  55.8827819
  36.5936754  71.6576521  53.9015635  35.5701835  71.6277327  53.5278392
  37.0127858  72.6495588  53.7325466  37.4334038  70.6194852  53.1660265
  38.0915785  70.9979289  52.1746152  37.4380581  69.4367622  53.5772365
  38.6829432  72.6906766  55.8330525  39.4416947  72.7587881  54.8632576
  38.4983743  73.6983581  56.6800603  37.8987295  73.5634649  57.4815148
  39.0753742  75.0210840  56.4624776  38.8925738  75.3403400  55.4364373
  38.4423055  76.0437868  57.4141388  39.0755674  76.0825411  58.3004664
  38.4714648  77.0071269  56.9049967  36.9985260  75.7289156  57.8305329
  36.5345583  76.6488398  58.1863057  36.4767346  75.3805755  56.9391900
  36.9131835  74.6635388  58.9179348  36.0881793  73.7363536  58.7820131
  37.6802486  74.7440890  59.8991034  40.5971626  75.0339380  56.6239981
  41.2880103  75.8171144  55.9658704  41.1114263  74.1773919  57.5034312
  40.4976044  73.5735448  58.0313428  42.5460228  74.1111379  57.7707368
  42.9402497  75.1186652  57.9033002  42.8032318  73.3170349  59.0430575
  42.4221122  72.3029926  58.9223673  43.8748577  73.2809388  59.2390554
  42.2972275  73.7975422  59.8804174  43.2883751  73.4791173  56.5908181
  42.9804975  72.3536775  56.2132433  44.2553655  74.2071857  55.9938323
  44.6416597  75.6081067  56.2603714  44.6991313  75.7698993  57.3367637
  43.8957567  76.2776993  55.8321502  45.9706675  75.7326167  55.5897803
  46.7637022  75.4588774  56.2856696  46.1210710  76.7585277  55.2536452
  45.9149891  74.7863413  54.4197129  46.9171327  74.4267450  54.1862655
  45.4759172  75.2394801  53.5309043  45.0390495  73.6175929  54.8998064
  44.3370760  73.2785933  54.1379594  45.9152688  72.4406550  55.3465984
  46.0880326  71.4775145  54.5904847  46.4528813  72.5309130  56.5635237
  46.2389047  73.3474634  57.1181035  47.3475499  71.5138886  57.1363645
  47.6050283  70.7288202  56.4253992  48.6585846  72.1713638  57.6457951
  48.3963195  73.0511727  58.2333771  49.4779086  71.2049073  58.5106703
  49.7409596  70.3249967  57.9235907  50.3877990  71.7010031  58.8484409
  48.8879510  70.9010435  59.3753774  49.4953266  72.6856944  56.4787010
  48.9242087  73.4276763  55.9206782  50.4089677  73.1422482  56.8593822
  49.7515683  71.8552094  55.8208745  46.6487055  70.8127595  58.2974965
  46.1206620  71.4855961  59.1889801  46.6429480  69.4736095  58.2832830
  47.0310146  68.9904547  57.4857461  45.9975033  68.6767676  59.3329945
  45.2886878  69.3486733  59.8169599  45.2215471  67.5052163  58.7195316
  45.9187559  66.8188620  58.2389926  44.6769011  66.9791944  59.5035992
  44.5165812  67.8835633  57.9792778  46.9614296  68.1713960  60.4122825
  46.5261233  67.7180702  61.4746257  48.2654564  68.2460604  60.1427654
  48.5844752  68.6541310  59.2756986  49.2701696  67.7068952  61.0704341
  48.9434908  67.8575442  62.0993583  49.4624413  66.2060802  60.8327348
  48.4778210  65.7481461  60.7382969  49.9872993  66.1376598  59.8798745
  50.2595189  65.4773329  61.9036693  49.7157349  65.2471356  63.1708229
  48.7109441  65.6129086  63.3822586  50.4283435  64.5679069  64.1511710
  49.9928846  64.4069926  65.1373677  51.6940449  64.0905631  63.8684578
  52.4007169  63.4100725  64.8330527  51.9207137  63.3255996  65.6601324
  52.2644699  64.2962867  62.6169662  53.2671015  63.9304225  62.3956659
  51.5358785  64.9824026  61.6348529  51.9655777  65.1354580  60.6448869
  50.6094039  68.4105066  60.9278307  51.0880917  68.6188240  59.8066832
  51.2056152  68.7727393  62.0657822  50.7286033  68.6108902  62.9412043
  52.5290523  69.3881308  62.1021334  53.0326146  69.2902896  61.1403895
  52.4835548  70.8952898  62.4887323  53.4823498  71.3097009  62.3517203
  51.4864631  71.6808640  61.6410982  50.4872968  71.2672983  61.7779553
  51.4916263  72.7264901  61.9488944  51.7674163  71.6105885  60.5902761
  52.1662847  71.0258495  63.8818295  52.1387758  71.9559547  64.1179394
  53.4515100  68.7210225  63.1246891  52.9824655  68.1030866  64.0864826
  54.7611315  68.8650200  62.9045139  55.0565505  69.2199004  62.0062451
  55.7924562  68.5049568  63.8832835  55.3456818  68.4298731  64.8746736
  56.4338132  67.1555839  63.5308034  56.7379444  67.3003943  62.4941582
  57.3192790  67.0415375  64.1561383  55.5678314  65.8958038  63.6374975
  54.6018004  66.0797308  63.1673318  56.2640174  64.7310921  62.9323575
  57.2299835  64.5462565  63.4022979  55.6457163  63.8367903  63.0100029
  56.4132944  64.9788527  61.8814381  55.2596397  65.5440380  65.1065008
  54.7243873  66.3705275  65.5739615  54.6437563  64.6454920  65.1439701
  56.1925638  65.3670311  65.6416832  56.8671815  69.5981630  63.9275407
  57.1136677  70.2752306  62.9251605  57.4895860  69.7744245  65.0918475
  57.1360943  69.3035811  65.9124872  58.6648636  70.6383197  65.2383969
  58.4238256  71.6647416  64.9618864  59.1147225  70.6183072  66.7074686
  58.2172277  70.7686852  67.3074593  59.5379189  69.6381097  66.9270536
  60.1359302  71.6986309  67.0421408  60.8324755  72.1906422  66.1350865
  60.2581962  72.0415432  68.2406529  59.7862773  70.1195248  64.3243773
  60.1519263  68.9441122  64.4068086  60.3111150  70.9860177  63.4544454
  59.8943495  71.9013973  63.3623254  61.4108974  70.6191466  62.5325353
  61.6742510  69.5719994  62.6816223  60.9974921  70.8185621  61.0600481
  59.9176735  70.6947624  60.9777999  61.2668457  71.8406008  60.7936168
  61.6983392  69.8402102  60.1073494  61.7715342  68.6296995  60.4223356
  62.1581889  70.2756230  59.0248135  62.7236324  71.3618395  62.8344760
  63.6510947  71.3855351  62.0083645  62.7970043  71.9531405  64.0245973
  61.9624122  71.9868386  64.5924175  64.0052745  72.6184355  64.5240113
  64.2888857  73.4263788  63.8495548  63.7468936  73.2164686  65.9337704
  63.5300043  72.3971793  66.6192077  64.9458108  73.9983126  66.4429253
  65.1630347  74.8181086  65.7582006  64.7247924  74.4003224  67.4316812
  65.8110418  73.3382697  66.5047257  62.6218870  74.1047183  65.8773282
  62.4620806  74.4744551  66.7487391  65.1961736  71.6449792  64.5487359
  65.0327665  70.4495180  64.7981247  66.3885404  72.1629033  64.2636362
  66.4646690  73.1343912  63.9980892  67.6058879  71.3436326  64.2612814
  67.4437328  70.4353329  63.6809396  68.7646104  72.1270572  63.6319150
  68.9236261  73.0198314  64.2367021  69.6513189  71.4948312  63.6781572
  68.5041330  72.5348398  62.1791810  67.4286922  72.5059650  62.0039835
  68.8671920  73.5531316  62.0399976  69.2036832  71.6077439  61.1940457
  70.1732401  72.0525674  60.9700132  69.3504804  70.6543601  61.7015979
  68.4328282  71.3778754  59.8877961  69.2233056  71.2350199  59.1510204
  67.9222128  70.4304715  60.0604137  67.4527996  72.3864654  59.3779516
  67.9258345  73.2643045  59.2175266  67.0508858  72.0573729  58.5117741
  66.7200123  72.5186693  60.0603327  67.9471751  70.9013988  65.6891782
  67.5435792  71.5636224  66.6434802  68.6762776  69.7713575  65.8415669
  69.2207897  68.8926778  64.7909406  69.6196739  69.4997643  63.9782675
  68.4293625  68.2484722  64.4078725  70.2839434  68.1242623  65.5090240
  71.2303597  68.6603899  65.4385784  70.3902639  67.1392256  65.0546012
  69.8288569  68.0118672  66.9153730  70.6952532  67.9949878  67.5765625
  69.2264824  67.1191861  67.0837922  68.9899086  69.2686616  67.1865272
  68.0462450  69.0384634  67.6811040  69.7796553  70.2692062  68.0355564
  69.6921776  70.2353188  69.2624861  70.5192000  71.1585137  67.3760940
  70.6007498  71.0833999  66.3721982  71.2887146  72.2006835  68.0591624
  71.7685886  71.7823807  68.9439465  72.3740636  72.7684449  67.1348558
  71.8749361  73.0662046  66.2127331  72.7765687  73.6515698  67.6310212
  73.5136947  71.8042203  66.8083320  74.3835639  72.4039950  66.5405660
  73.7273930  71.2402859  67.7163024  73.1941726  70.8366204  65.6723056
  72.1631975  71.0121498  64.9821623  73.9886479  69.8917364  65.4668784
  70.4079312  73.3381459  68.5924820  70.8787581  74.1776956  69.3680962
  69.1430244  73.3660808  68.1659689  68.8361189  72.6820967  67.4891572
  68.1724681  74.3562176  68.6427200  67.2122387  73.8534485  68.7579669
  68.5125290  74.7159234  69.6138378  68.0009893  75.5397001  67.7106271
  67.2180142  76.4511317  67.9929873  68.7421451  75.5320140  66.6027087
  69.4580059  74.8286215  66.4892113  68.6499190  76.5951996  65.6025225
  68.0471196  77.4125205  65.9983995  70.0397956  77.1422544  65.2363405
  69.9286204  77.8546490  64.4188851  70.4488989  77.6519450  66.1086650
  71.0139294  76.0576886  64.8063052  70.6699156  74.8790557  64.7222993
  72.2474825  76.4618486  64.5269855  72.9421347  75.7891605  64.2353544
  72.4854720  77.4401073  64.6074326  67.8644316  76.1824605  64.3548410
  67.4007381  75.0483376  64.2557478  67.7177843  77.1133797  63.4117853
  68.1566129  78.0133566  63.5443383  66.8613998  76.9224317  62.2318999
  66.7173640  77.8819196  61.7351749  67.4845418  75.9385151  61.2285658
  67.4845757  74.9517958  61.6916903  66.8304750  75.9300459  60.3566570
  68.8920159  76.2942815  60.7996616  69.9978180  75.8533789  61.5313621
  69.8300753  75.2468658  62.4213642  71.2957021  76.1751986  61.1425408
  72.1499092  75.8326087  61.7265478  71.4960724  76.9369538  60.0055154
  72.7771200  77.2620455  59.6079862  73.4521472  76.9085757  60.1919358
  70.4155290  77.3811543  59.2528596  70.5737056  77.9772401  58.3541035
  69.1157273  77.0569580  59.6577019  68.2614211  77.4028848  59.0758123
  65.4536962  76.4756721  62.6500247  64.8847218  75.5385220  62.0797547
  64.9076738  77.1536024  63.6584562  65.4517381  77.8697737  64.1180128
  63.5582271  76.8756146  64.1611461  63.5569894  75.9264826  64.6970996
  63.1324707  77.9636581  65.1091767  63.1200237  78.9190339  64.5845795
  62.1344093  77.7452922  65.4890320  63.8341066  78.0159897  65.9416835
  62.5585088  76.7603998  63.0177835  62.5511523  77.5946594  62.1132633
  61.7167461  75.7302236  63.0634410  61.7319363  75.0936062  63.8473970
  60.7980409  75.4505892  61.9613107  60.3909971  76.4033935  61.6228160
  61.5489098  74.7983574  60.7976391  61.9546170  73.8389190  61.1185434
  60.8637257  74.6421297  59.9644429  62.3638014  75.4489421  60.4801640
  59.6334511  74.5704978  62.3748367  59.7491872  73.7838883  63.3189969
  58.5209301  74.7198245  61.6517589  58.4741027  75.4860872  60.9954449
  57.3591908  73.8431268  61.7768228  57.5354727  73.0602790  62.5145038
  56.0607238  74.6320231  62.1538254  55.9317750  75.4522017  61.4475821
  54.8297529  73.7183487  62.1060145  54.9577715  72.8981290  62.8123796
  53.9411492  74.2908452  62.3719693  54.7142688  73.3158176  61.0996690
  56.1923226  75.2962310  63.5328811  57.1317607  75.8489675  63.5266204
  55.3608618  75.9949674  63.6252922  56.1784999  74.3272107  64.7186005
  57.0100081  73.6284076  64.6271222  56.2765288  74.8881092  65.6480532
  55.2391094  73.7744056  64.7257925  57.1554585  73.1278572  60.4375474
  57.0580544  73.7812900  59.3941204  57.1045980  71.7968025  60.4763735
  57.2969882  71.3240363  61.3479110  56.7740905  70.9825341  59.3016073
  57.0388986  71.5168365  58.3891946  57.5584807  69.6622843  59.3425778
  58.6071028  69.9288327  59.4746493  57.2082676  69.1209269  60.2214309
  57.4104605  68.7772869  58.1078804  57.5410249  69.4309874  57.2454829
  58.2296209  68.0592255  58.1461724  55.8393698  67.8822435  57.9458490
  55.7130171  67.0000569  59.4978728  55.7045610  67.7132360  60.3221320
  54.7912370  66.4184838  59.5118251  56.5661921  66.3303952  59.6062558
  55.2791931  70.6844205  59.3165800  54.7420565  70.3080683  60.3538105
  54.6137886  70.8532210  58.1776541  55.0759051  71.2384776  57.3664051
  53.2023858  70.4893407  58.0637842  52.9555666  69.8004612  58.8716360
  52.6020312  71.3937813  58.1620750  52.8848601  69.8286153  56.7383295
  53.5389581  70.1190259  55.7270044  51.8811539  68.9472093  56.7442911
  51.4072496  68.7550158  57.6152536  51.4195970  68.2573961  55.5342266
  52.1596834  68.3735247  54.7424656  51.2178919  66.7616327  55.8005213
  50.5888502  66.6051619  56.6768332  50.7397264  66.3186463  54.9268961
  52.4846367  65.9871242  56.0365470  52.6492480  65.2587062  57.2144635
  51.8559852  65.2716091  57.9619041  53.8169110  64.5159124  57.4437091
  53.9358030  63.9533596  58.3697219  54.8277852  64.4985497  56.4822364
  55.7396095  63.9270756  56.6557117  54.6696530  65.2122181  55.3014093
  55.4544277  65.1980097  54.5450846  53.4968851  65.9527725  55.0824557
  53.3700692  66.5111044  54.1549412  50.0767193  68.8081766  55.0517308
  49.1329969  68.9239815  55.8362946  49.9936601  69.1208583  53.7612331
  50.8352231  69.2009456  53.2085514  48.7067064  69.3966123  53.1127433
  47.9460069  69.6229353  53.8598801  48.8035313  70.5710931  52.1006373
  49.5467464  70.3253018  51.3421398  47.4518684  70.8117320  51.4297057
  46.7081899  71.0580490  52.1875783  47.5379621  71.6378592  50.7238712
  47.1439246  69.9111823  50.8984053  49.2943049  71.8446890  52.8052088
  48.5410531  72.1021861  53.5497944  50.2270514  71.5869035  53.3068361
  49.5278617  73.0470056  51.8760156  48.5953830  73.3056876  51.3743514
  49.8726496  73.8985811  52.4625645  50.2813802  72.7904038  51.1313913
  48.2668745  68.1070601  52.4120894  48.9448148  67.6435767  51.5059376
  47.1323820  67.5419762  52.8389337  46.5060767  68.0667549  53.4326073
  46.7888310  66.1403312  52.5241609  47.6394276  65.6445744  52.0563899
  46.4255484  65.3828277  53.8102216  45.5433494  65.9225628  54.1544749
  46.1420445  64.3705841  53.5219711  47.4588902  65.3213408  54.9391982
  47.9292229  66.2991322  55.0431789  46.7934798  64.9389827  56.2476810
  46.3232893  63.9610272  56.1446132  47.5422179  64.8999986  57.0388650
  46.0361176  65.6807867  56.5011168  48.5930528  64.3481280  54.6027595
  49.0943031  64.6745599  53.6915571  49.3099275  64.3270855  55.4235817
  48.1830816  63.3492703  54.4534077  45.6559869  65.9268790  51.5225019
  44.6468021  66.6341141  51.5596174  45.8278926  64.9206691  50.6638978
  46.7686955  64.5781725  50.5309118  44.7620461  64.3889360  49.7971260
  45.2698608  63.7564502  49.0689879  43.7879160  63.5194541  50.6083436
  43.2651266  64.1405212  51.3357135  43.0633125  63.0604730  49.9357468
  44.3435910  62.7399609  51.1296063  44.0478461  65.4852886  48.9931271
  44.7148568  66.2127673  48.2570343  42.7280593  65.6397979  49.1285358
  42.1746135  65.0233370  49.7062667  42.0244959  66.6324632  48.2882078
  42.2725420  66.4441723  47.2436414  40.5010998  66.5706624  48.4488001
  40.0098534  67.0034562  47.5773267  40.1902402  65.5320851  48.5620410
  39.9804578  67.3055410  49.6422389  39.9477939  66.7522921  50.9019864
  39.4332905  67.6226029  51.7519178  39.3236080  67.3712477  52.8068534
  39.1285331  68.7223567  51.0869377  38.7181023  69.5589896  51.4764141
  39.4609807  68.5494335  49.7650231  39.2843260  69.3521593  49.0491141
  42.5344814  68.0667543  48.4685790  42.4538230  68.8815798  47.5474711
  43.0624325  68.3713467  49.6518529  43.0199047  67.7142138  50.4176643
  43.6037695  69.7089920  49.9128322  42.9104173  70.4626969  49.5396153
  43.8092737  69.9335379  51.4140897  44.4141970  69.1111705  51.7960306
  44.3499712  70.8713548  51.5415487  42.4855013  69.9972073  52.1885611
  41.9274916  70.8678233  51.8439546  41.9169684  69.0928141  51.9718924
  42.7161253  70.1042074  53.6920536  43.4164544  69.3242524  53.9908983
  43.1481976  71.0815600  53.9069835  41.4085134  69.9418508  54.4721930
  40.7401176  70.7563709  54.1930789  40.9579536  68.9901098  54.1906187
  41.6356643  69.9678038  55.9526359  42.0527627  70.8497981  56.2138152
  40.7527251  69.8582424  56.4306680  42.2546502  69.2128689  56.2115350
  44.8829661  69.9947970  49.1289416  45.1466555  71.1484476  48.7731886
  45.6695339  68.9535480  48.8610224  45.4717086  68.0514096  49.2698143
  46.8634087  69.0904127  48.0283467  47.4897459  69.8941901  48.4153131
  47.6759064  67.8024390  48.0177979  47.0649788  66.9900593  47.6242161
  48.5559608  67.9325578  47.3879777  47.9891534  67.5615172  49.0336386
  46.4464367  69.4862542  46.6107244  47.0542671  70.3736196  46.0162894
  45.3919232  68.8463495  46.1002117  44.9979324  68.0715168  46.6145121
  44.8115290  69.1819312  44.7952790  45.5906314  69.1652698  44.0331628
  43.7209683  68.1719062  44.4048728  43.2302143  67.8738813  45.3313936
  43.0122008  68.7105319  43.7758807  44.2144976  66.9251408  43.6651141
  43.4884986  66.7032840  42.8829339  45.1727644  67.1758360  43.2101650
  44.3821182  65.7072084  44.5611750  44.8591799  64.9177529  43.9804245
  45.0258323  65.9825853  45.3965785  43.1146920  65.1985109  45.0928248
  42.3083765  65.8023751  45.0200062  42.9629692  64.0011217  45.6549159
  43.9915449  63.1594247  45.7486667  44.8961549  63.4304236  45.3904204
  43.8619257  62.2542402  46.1775484  41.7770160  63.6417823  46.1319004
  40.9956689  64.2783875  46.0660939  41.6617363  62.7335039  46.5583272
  44.2299871  70.6004189  44.7829244  44.4795798  71.3738196  43.8586231
  43.4594753  70.9331399  45.8165154  43.3028976  70.2606088  46.5535939
  42.7665119  72.2244456  45.8941719  42.2040260  72.4010602  44.9773753
  41.7905257  72.2291876  47.0762859  41.1454960  71.3584891  46.9583028
  42.3880362  72.1181264  47.9811320  40.9315083  73.4879368  47.1849765
  41.5624693  74.3608059  47.0173806  40.1536255  73.4507398  46.4223385
  40.2889181  73.5839205  48.5595976  39.6298016  72.7266156  48.6963187
  41.0754555  73.5607926  49.3138678  39.4869238  74.8672819  48.7034820
  40.1118637  75.7008254  48.3829265  38.6120244  74.8001088  48.0568461
  39.0472412  75.0886067  50.1144918  39.8578089  75.1513100  50.7137814
  38.5189777  75.9475393  50.1716970  38.4677938  74.3165450  50.4115786
  43.7407541  73.3991840  46.0072814  43.6085988  74.4007933  45.2921004
  44.7254090  73.2700590  46.8916978  44.8095679  72.4212169  47.4325156
  45.6153756  74.3894339  47.2125222  45.1018375  75.3333660  47.0298478
  46.0336241  74.3371481  48.6826975  46.5585975  73.3866489  48.7778464
  46.7210109  75.1546378  48.9002063  44.8630430  74.3760625  49.6741911
  44.1444793  73.5992501  49.4127918  45.3654807  74.1433640  51.0689448
  46.0837957  74.9201012  51.3312458  44.5286234  74.1724905  51.7667429
  45.8494917  73.1682377  51.1233732  44.0750719  75.6902501  49.5989361
  43.6691349  75.8141169  48.5949582  43.2581802  75.6665066  50.3202028
  44.7372619  76.5251668  49.8281031  46.8351214  74.5247921  46.2966454
  47.5801732  75.5090267  46.3825872  47.0288558  73.5428074  45.4215899
  46.4768199  72.6992102  45.4824132  48.0710513  73.6175440  44.3970719
  49.0274522  73.7935512  44.8894315  48.1496538  72.3199250  43.6462327
  47.2021760  72.1343103  43.1403345  48.9502658  72.3743134  42.9085589
  48.3536702  71.5076602  44.3438733  47.8325795  74.7778129  43.4252415
  48.7741193  75.2777323  42.8132111  46.5736158  75.1971196  43.3037985
  45.8501305  74.6997239  43.8030638  46.1788338  76.3170177  42.4380355
  46.5269545  76.1401017  41.4203853  44.6540234  76.4589181  42.4159565
  44.3457303  76.6978153  43.4337889  44.4259739  77.2998074  41.7609765
  43.9038349  75.2233848  41.9353407  44.3797803  74.8525645  41.0275581
  43.9527690  74.4575853  42.7094587  42.4528009  75.5564966  41.6451717
  42.0910678  76.2516956  42.4027642  42.3867447  76.0239191  40.6626991
  41.6032722  74.3687710  41.6562915  41.5958564  73.8073062  40.8167668
  40.8517113  73.9820493  42.6865422  40.8293947  74.6887860  43.8111782
  41.3867296  75.5275770  43.8880395  40.2551974  74.3840637  44.5841863
  40.1149967  72.8834785  42.5911286  40.1265271  72.3439635  41.7373776
  39.5457816  72.5913903  43.3726511  46.7984036  77.6524100  42.8605312
  47.0053578  78.5458660  42.0293301  47.0790552  77.7840457  44.1533312
  46.8823235  77.0166022  44.7797707  47.6141069  79.0202776  44.7190921
  47.1134663  79.8811550  44.2759800  47.3839486  79.0464385  46.2366459
  48.0005338  78.2133182  46.5740368  47.7986448  79.9810135  46.6143981
  45.9537521  78.8710225  46.7654222  45.5318332  77.9497095  46.3638407
  45.9687103  78.8014415  48.2823825  46.3900984  79.7226611  48.6847322
  44.9505035  78.6769239  48.6509622  46.5762819  77.9547262  48.6018046
  45.0136143  79.9806476  46.2852024  44.9723078  79.9764774  45.1959936
  44.0147133  79.8103414  46.6868165  45.3837900  80.9459489  46.6305461
  49.1011084  79.1928341  44.4171506  49.7591532  78.2695357  43.9353798
  49.6246730  80.3825626  44.6975652  49.0297377  81.1501218  44.9750615
  51.0610227  80.6178615  44.6101530  51.4828324  80.0517140  43.7796996
  51.3808307  82.1083773  44.4017822  52.4569001  82.2193324  44.2681264
  50.6551752  82.6603702  43.1734224  49.5789628  82.5501778  43.3065544
  50.8993621  83.7154935  43.0501882  50.9694100  82.1093104  42.2870307
  50.9825770  82.8381447  45.5678537  51.1792335  83.7697191  45.4449892
  51.7348566  80.1520558  45.9041429  51.0650300  79.9374508  46.9202743
  53.0574723  80.0075528  45.8569435  53.5233520  80.1018480  44.9657848
  53.8625438  79.6596201  47.0264599  53.5773651  78.6777866  47.4043163
  55.3437625  79.6215624  46.6320999  55.4251147  78.8999731  45.8192100
  55.5864440  80.6167330  46.2594860  56.3122383  79.2462249  47.7407722
  56.2213912  79.9655057  48.5547027  56.0674770  78.2496573  48.1082596
  57.7437409  79.2555324  47.2114794  57.8173347  78.5151206  46.4149411
  57.9508128  80.2460438  46.8063771  58.7520051  78.9326531  48.2954325
  58.7387734  79.7316496  49.0367354  58.4690178  77.9929477  48.7697440
  60.1282590  78.8070928  47.7226048  60.3908427  79.6778802  47.2834250
  60.7822072  78.5921407  48.4616903  60.1408390  78.0664923  47.0359815
  53.6249533  80.6502490  48.1703144  53.4609475  80.2556504  49.3280207
  53.5874550  81.9354332  47.8257374  53.7744708  82.1856757  46.8652671
  53.3614866  83.0089073  48.7893403  54.0673631  82.9207983  49.6152183
  53.5586377  84.3772832  48.1187974  52.9205608  84.3875610  47.2351394
  53.2079802  85.1268227  48.8282548  55.0079118  84.6975239  47.7087261
  55.0255130  85.7408790  47.3937641  55.6235355  84.5772006  48.6001457
  55.5617644  83.8130709  46.5810257  54.7926408  83.3719045  45.6883655
  56.7888509  83.5587087  46.5934177  51.9741424  82.9166927  49.4275296
  51.8194224  83.1352083  50.6329829  50.9682220  82.5779344  48.6198392
  51.1217714  82.5132986  47.6236745  49.6057391  82.4095218  49.1236790
  49.3313135  83.2752795  49.7263840  48.6013203  82.2767305  47.9695938
  49.0077340  81.5582985  47.2577072  47.6701140  81.8900958  48.3836814
  48.3303700  83.6020577  47.2571721  47.8095468  84.2384925  47.9725705
  49.2926064  84.0490029  47.0072918  47.4882155  83.4657647  45.9900380
  47.5655893  82.4274676  45.2911278  46.7490042  84.4276877  45.6879127
  49.4785866  81.2381909  50.1031611  48.7739308  81.3488518  51.1078857
  50.1599646  80.1281276  49.8144406  50.6146526  80.0275295  48.9182051
  50.1847433  78.9899699  50.7379454  49.1638303  78.7459942  51.0317339
  50.8201159  77.7496815  50.0976429  51.6618151  78.0935970  49.4965075
  51.1866884  77.1209554  50.9090787  49.8640934  76.9424472  49.2202497
  48.9928022  76.6765791  49.8188033  49.5529402  77.5708247  48.3857274
  50.5231936  75.6646655  48.6805267  50.8851299  75.0717516  49.5204994
  49.7808328  75.0915603  48.1250536  51.6503307  75.9574724  47.7927137
  52.5754247  75.9182950  48.1961558  51.5320651  76.2672071  46.5013099
  50.3367837  76.3158317  45.9222280  49.5080559  76.1164695  46.4640444
  50.2626704  76.5519199  44.9430093  52.6134460  76.5314203  45.7836667
  53.5247152  76.4972491  46.2178566  52.5218191  76.7658558  44.8055342
  50.8910188  79.3399189  52.0505336  50.3842442  79.0152349  53.1305840
  52.0371024  80.0185391  51.9639952  52.4513761  80.2089185  51.0627558
  52.7644960  80.4427837  53.1690417  53.0572641  79.5651839  53.7454137
  54.0285049  81.2323082  52.8015427  54.6381112  80.4671127  52.3209648
  53.7582103  81.9934625  52.0696377  54.8275156  81.8810082  53.9438458
  54.1861394  82.6142924  54.4327544  55.3044933  80.8480516  54.9773409
  55.9463415  80.1146474  54.4892344  55.8640604  81.3528975  55.7648154
  54.4418005  80.3430600  55.4119040  56.0044434  82.6815930  53.3944799
  55.6343403  83.4664520  52.7348442  56.5554830  83.1316071  54.2202789
  56.6655059  82.0194752  52.8352881  51.8713715  81.2746517  54.0986552
  51.8349543  81.0365051  55.3137544  51.1512993  82.2368232  53.5210982
  51.2788423  82.4361886  52.5392196  50.2510983  83.0959651  54.2926229
  50.8033928  83.5681578  55.1050907  49.6492469  84.1933117  53.4065945
  50.4827417  84.7481527  52.9758544  49.0964957  83.6934124  52.6111909
  48.7262202  85.1534826  54.1382554  47.8902709  84.5887710  54.5510391
  49.2823528  85.6234473  54.9493977  48.1972061  86.2277529  53.1966645
  49.0149862  86.9055722  52.9519284  47.8417072  85.7446103  52.2865584
  47.0574643  87.0156683  53.8316425  46.5406629  87.5640122  53.0440285
  46.3685632  86.3082852  54.2932956  47.5507043  87.9740693  54.8629480
  48.1887397  88.6299013  54.4352859  46.7680557  88.4750264  55.2586791
  48.0292439  87.4661224  55.5930773  49.1581422  82.2905222  55.0019955
  48.9218282  82.4818611  56.1972089  48.5097005  81.3847552  54.2675790
  48.6842246  81.3243040  53.2746106  47.4693991  80.5265172  54.8442823
  46.7005899  81.1465836  55.3053130  46.8133577  79.6522630  53.7662757
  47.6135963  79.2007721  53.1798685  46.2519264  78.8698607  54.2769043
  45.8784695  80.4271939  52.8396198  45.1752619  80.9955034  53.4484090
  46.4736347  81.1132997  52.2370095  45.1070497  79.4806140  51.9207699
  45.8188782  78.9858635  51.2599968  44.6054767  78.7347572  52.5373910
  44.0711552  80.2289882  51.0838830  44.5775937  81.0586604  50.5906644
  43.6886222  79.5388172  50.3319311  42.9392760  80.7523441  51.8985817
  43.2934781  81.3922241  52.5951405  42.2873189  81.2359834  51.2976282
  42.4696007  79.9836681  52.3553545  47.9995887  79.6589940  55.9893315
  47.3286110  79.4898284  57.0028279  49.2057039  79.1184705  55.8302419
  49.7001569  79.2082819  54.9541430  49.8049080  78.2948974  56.8855839
  49.0833072  77.5487085  57.2181401  51.0585774  77.5722274  56.3783460
  51.4078250  78.2421782  55.5926671  51.7950689  77.5395668  57.1812243
  50.8680993  76.1599087  55.8001177  50.5925294  75.5029999  56.6251225
  49.7940335  76.0869683  54.7085558  50.0691569  76.7433096  53.8829517
  49.7128308  75.0622813  54.3458944  48.8353969  76.4033831  55.1196494
  52.1920808  75.6273187  55.2811816  52.9127214  75.5855931  56.0979040
  52.0471962  74.6267890  54.8736891  52.5680425  76.2867327  54.4989252
  50.1169850  79.1163342  58.1362311  49.7937957  78.7006483  59.2491610
  50.7179055  80.2911196  57.9581757  50.9884660  80.5940319  57.0334377
  51.0697437  81.1435294  59.1005191  51.6756369  80.5754224  59.8063853
  51.8653149  82.3651831  58.6475538  51.3752852  82.8660546  57.8126299
  52.0002376  83.0721593  59.4661384  53.5143808  81.9438538  58.0767989
  53.8818224  83.1878348  57.7828666  49.8425028  81.5886371  59.8864536
  49.8585894  81.6198273  61.1178936  48.7783024  81.9322081  59.1682012
  48.8480777  81.9965639  58.1626719  47.5282199  82.3435419  59.8037043
  47.7366033  83.0825472  60.5773623  46.5773636  82.9618055  58.7819884
  46.4482588  82.2555703  57.9618281  45.6166263  83.1338558  59.2672540
  47.1149653  84.2819369  58.2362929  47.2761195  84.9313279  59.0967704
  48.0699273  84.0773331  57.7522640  46.1896656  84.9656887  57.2556885
  45.2544432  84.3135212  56.7389095  46.4106823  86.1676552  56.9881944
  46.8693724  81.1989065  60.5706454  46.3173813  81.4085077  61.6577550
  46.9477659  79.9901918  60.0133572  47.2996928  79.8863893  59.0723620
  46.4820330  78.7972733  60.7134216  45.4482376  78.9384372  61.0287611
  46.5528183  77.5616343  59.7987551  45.8356648  77.7985716  59.0128474
  47.5510047  77.4842959  59.3677764  46.1725492  76.2242357  60.4523501
  46.7889813  76.0881161  61.3409354  44.6862456  76.1882520  60.8491618
  44.0691371  76.3238520  59.9609678  44.4553424  75.2269077  61.3080755
  44.4799330  76.9884720  61.5599244  46.5196883  75.0501529  59.5433781
  47.5914326  75.0482671  59.3447324  46.2395467  74.1167582  60.0316365
  45.9765806  75.1449839  58.6030909  47.3014502  78.5586823  61.9819562
  46.7424023  78.3971203  63.0693371  48.6243487  78.5435853  61.8416976
  49.0427823  78.6239447  60.9259711  49.5032101  78.2965595  62.9877648
  49.2211936  77.3579075  63.4647327  50.9731807  78.2039772  62.5533229
  51.2202160  79.1654279  62.1031170  51.5607419  78.0667535  63.4610902
  51.2920147  77.0845252  61.5676743  52.4639886  77.1208437  60.8027245
  53.1441317  77.9635649  60.9265222  52.7704123  76.1009914  59.8914726
  53.6845214  76.1505621  59.2998232  51.8970581  75.0324099  59.7322838
  52.2055751  74.0198490  58.8395915  53.0416019  74.1591010  58.3887393
  50.7252689  74.9722946  60.4780587  50.0380302  74.1351246  60.3557897
  50.4290070  75.9956517  61.3914213  49.5126174  75.9523638  61.9800267
  49.3307266  79.3362050  64.1044265  49.3848593  78.9881367  65.2830983
  49.1309193  80.6008749  63.7320113  49.1646053  80.8539797  62.7548201
  48.9233870  81.6727921  64.7259900  49.7654440  81.6844092  65.4180190
  48.8387740  83.0372097  64.0351165  47.9946428  83.0441622  63.3455556
  48.7014481  83.8166498  64.7845930  49.7599316  83.2231563  63.4828558
  47.6647174  81.4024678  65.5492759  47.6444796  81.5873728  66.7695224
  46.6260647  80.9332538  64.8694289  46.7054954  80.8204048  63.8689014
  45.3682381  80.5748211  65.5061612  44.9609220  81.4149675  66.0686084
  44.3778526  80.1959195  64.4108110  44.8037123  80.5565596  63.4744982
  44.3391725  79.1067060  64.3960523  42.9979602  80.7400929  64.5713635
  42.5523559  80.3363052  65.4804802  43.0425262  81.8269576  64.6409416
  42.1481998  80.3424736  63.3692274  42.7498560  80.4559374  62.4674321
  41.8565518  79.2982664  63.4817983  40.9025356  81.2071672  63.2590836
  40.3277156  81.0728032  64.1753962  41.2287186  82.2445200  63.1842302
  40.0464150  80.8672230  62.0789733  39.7437072  79.9061543  62.1483610
  39.2392443  81.4741078  62.0626611  40.5787369  80.9920724  61.2297706
  45.5613362  79.3922156  66.4606336  45.1889085  79.4534636  67.6431019
  46.1670461  78.3198746  65.9476802  46.4861314  78.3291893  64.9894542
  46.2826371  77.0756174  66.7039665  45.3355596  76.8060863  67.1714025
  46.7461095  75.8999017  65.8127960  47.7033789  76.1585064  65.3601836
  46.9007688  74.6212506  66.6351938  45.9437297  74.3617369  67.0877749
  47.2275213  73.8086221  65.9863731  47.6415292  74.7800509  67.4188761
  45.7581876  75.6770760  64.6548819  45.7007975  76.5798334  64.0467392
  46.1011476  74.8458203  64.0388526  44.7716084  75.4474651  65.0574253
  47.1931846  77.2417108  67.9173573  46.8797017  76.7367537  69.0019774
  48.2948068  77.9671883  67.7273366  48.4765091  78.3471471  66.8093415
  49.2952745  78.1856269  68.7828625  49.3031124  77.3353768  69.4648541
  50.6972419  78.3397034  68.1743257  50.5476979  79.1817393  67.4985215
  51.3615919  78.6387316  68.9850792  51.3259886  77.1697375  67.4027226
  50.5982967  76.7890639  66.6860267  52.5848329  77.6239065  66.6589737
  53.3132223  78.0043058  67.3751051  53.0133826  76.7792512  66.1195264
  52.3253761  78.4119596  65.9520404  51.6418566  75.9959335  68.3172064
  50.7234789  75.6425236  68.7860170  52.0850814  75.1890342  67.7336258
  52.3436715  76.3139368  69.0881984  48.9621854  79.4073883  69.6464103
  49.6398522  79.6852197  70.6375306  47.9150038  80.1370714  69.2625480
  47.3557708  79.8333589  68.4782544  47.5393499  81.3799046  69.9444885
  46.7284198  81.8513567  69.3893089  47.1969216  81.1364717  70.9502632
  48.7039371  82.3521824  70.0402352  48.9116099  82.9911281  71.0817252
  49.4593868  82.4600681  68.9501735  49.1982003  81.9622745  68.1110772
  50.7045827  83.2289498  68.9415685  50.7173117  83.9274829  69.7782218
  51.9108673  82.2826091  69.0727122  51.9750673  81.6832492  68.1645573
  52.8113276  82.8887938  69.1717641  51.7920202  81.4255786  70.1971850
  52.5605635  80.8523141  70.2452353  50.8696401  84.0971127  67.6993177
  50.9713087  83.5878329  66.5773312  50.9188703  85.4131033  67.9008671
  50.7119127  85.7873978  68.8158379  51.1827043  86.3524214  66.8106364
  50.4728493  86.1853903  66.0005095  51.0380689  87.7990493  67.2984167
  51.6905723  87.8515880  68.1699546  51.4263692  88.4495565  66.5147310
  49.6253687  88.2559023  67.6889515  49.2208071  87.5549540  68.4190899
  49.6488566  89.6511172  68.2865374  50.0528932  90.3527504  67.5567675
  48.6351920  89.9494606  68.5540745  50.2753755  89.6544084  69.1784811
  48.7104387  88.2236218  66.4810298  48.6603996  87.2075856  66.0895378
  47.7119617  88.5498898  66.7720526  49.1000376  88.8901417  65.7115735
  52.5629960  86.1401214  66.1709963  52.7746462  86.5174912  65.0115058
  53.4862251  85.5321564  66.9182296  53.2832934  85.3175597  67.8840796
  54.8371665  85.2423597  66.4073909  55.3140504  86.1677036  66.0842507
  55.7034052  84.5994114  67.4984574  55.1679455  83.7212755  67.8593723
  56.6358323  84.2877441  67.0277736  56.0106048  85.5239809  68.6705053
  56.7835270  86.2196343  68.3437660  55.0998350  86.0762106  68.9021084
  56.4849483  84.7868212  69.9115367  57.7089395  84.8011032  70.1560315
  55.6405958  84.1963661  70.6352448  54.7998929  84.3617544  65.1495868
  55.6913492  84.4480450  64.2971800  53.7585019  83.5326211  65.0294001
  53.0937516  83.4518248  65.7854942  53.6029511  82.6446177  63.8653232
  54.5423007  82.0987699  63.7771663  52.4740258  81.6398212  64.1010215
  51.5255176  82.1706905  64.1823240  52.4283702  80.9412534  63.2655463
  52.6625611  81.0904741  65.0233942  53.3871107  83.3970468  62.5492654
  53.5230015  82.8246921  61.4582206  53.0520375  84.6822971  62.6565016
  52.8963293  85.0770107  63.5730470  52.8365237  85.5368575  61.4867109
  52.4684218  84.9371963  60.6542407  51.8049045  86.6250551  61.7999248
  52.2761055  87.1808058  62.6106097  51.7212897  87.2653349  60.9217732
  50.4094263  86.1727199  62.2357259  50.5059276  85.5033649  63.0905664
  49.5521929  87.3729271  62.6244409  49.4548484  88.0425536  61.7699099
  48.5640079  87.0301687  62.9312112  50.0242488  87.9049818  63.4503837
  49.7284747  85.3588590  61.1356711  50.3276293  84.4761205  60.9123195
  48.7385366  85.0499956  61.4714199  49.6329564  85.9692410  60.2376683
  54.1289568  86.1901359  60.9755072  54.0879447  86.9801645  60.0326213
  55.2626624  85.8648197  61.5979275  55.2320170  85.2871060  62.4258207
  56.5565751  86.4255969  61.1877156  56.4225156  87.0278674  60.2891626
  57.1525667  87.3156792  62.2916547  56.7041013  87.0065589  63.2358066
  58.2252648  87.1242767  62.3196522  56.9074844  88.8075541  62.0764178
  57.7991963  89.3574601  62.3773400  56.7376025  88.9480247  61.0089407
  55.7126769  89.3229423  62.8491338  55.7875648  89.3576995  64.0985647
  54.7093059  89.7158918  62.2146462  57.5835409  85.3761935  60.7348902
  58.6519250  85.2564278  61.3418471  57.2787415  84.6374814  59.6453785
  56.0756868  84.6870443  58.7913662  55.7998173  85.7262814  58.6125295
  55.2539469  84.1744280  59.2914333  56.5117042  83.9839141  57.5413879
  56.9840714  84.6859222  56.8542541  55.6587095  83.5146893  57.0511537
  57.4817815  82.9556846  58.0227849  58.1641784  82.7429193  57.1998849
  57.0401971  82.0245674  58.3779236  58.2386402  83.6423694  59.1618700
  58.5121669  82.9909172  59.9918648  59.4925313  84.3084009  58.6046894
  59.4115531  85.4326836  58.0922845  60.6269826  83.6152175  58.6982523
  60.6471217  82.7675667  59.2470527  61.8896743  84.1094592  58.1338059
  61.8075876  85.1460151  57.8068309  63.0859315  83.9944914  59.1357810
  63.9955769  84.3298347  58.6375950  62.8396000  84.8507304  60.3743135
  61.9303060  84.5156600  60.8733257  63.6842201  84.7550843  61.0566399
  62.7280370  85.8940356  60.0790688  63.3585060  82.5514583  59.5288962
  63.6020657  81.9716149  58.6386365  64.1962536  82.5161042  60.2253362
  62.4729055  82.1305495  60.0049723  62.2363081  83.4400558  56.8004845
  63.0122847  83.9827705  56.0105149  61.6342693  82.2769202  56.5514485
  60.9801860  81.9118944  57.2289664  61.9153857  81.4784594  55.3593562
  61.8952217  82.1185535  54.4773289  63.3006210  80.8182671  55.4557473
  64.0540948  81.5432147  55.7636880  63.2624027  80.0047483  56.1801965
  63.7798045  80.2231250  54.1682824  64.0605897  80.9847202  53.0537163
  64.4524136  80.1937256  52.0695402  64.7261598  80.6081015  51.0992543
  64.4298833  78.9468910  52.5039385  64.6775940  78.1270773  51.9685464
  64.0123145  78.9367927  53.8127950  63.9276113  77.9924787  54.3505660
  60.8270029  80.4207247  55.1873992  60.0641897  80.1543316  56.1222380
  60.7534648  79.8434631  53.9889793  61.4107736  80.1231981  53.2749816
  59.7457443  78.8350523  53.6490499  59.5037724  78.2338258  54.5254490
  58.4644717  79.5291758  53.1606748  58.1385939  80.2055015  53.9509194
  58.7690311  80.1091366  52.2894750  57.3168269  78.6053478  52.7787821
  56.7773667  77.7133778  53.7026686  57.1963128  77.6785224  54.7083369
  55.7177269  76.8728049  53.3586401  55.3111403  76.1750407  54.0907018
  55.1808206  76.9288837  52.0819898  54.1335999  76.0948137  51.7573901
  53.8657958  75.5284426  52.4847858  55.6928689  77.8113634  51.1438022
  55.2773768  77.8568187  50.1371242  56.7559180  78.6505126  51.5012601
  57.1608714  79.3562095  50.7759293  60.2888700  77.9118552  52.5653134
  60.9283362  78.3777822  51.6200939  60.0561949  76.6071508  52.7193615
  59.6844919  76.2730640  53.5970415  60.3337143  75.6257244  51.6617334
  60.4682234  76.1466212  50.7137497  61.6039090  74.8174331  51.9618826
  61.4269699  74.3028683  52.9063480  61.6998962  74.0838134  51.1614523
  62.9010720  75.6404059  52.0614607  62.6785173  76.5052607  52.6864378
  63.6445109  75.0162033  52.5572116  63.4483373  76.1121422  50.7166423
  62.8965826  75.7394659  49.6577386  64.4515989  76.8633221  50.7243906
  59.1495707  74.6773316  51.5484639  58.5099420  74.3736008  52.5529910
  58.8679300  74.2053663  50.3337650  59.4057300  74.5136608  49.5363787
  57.7507320  73.2828384  50.1044511  57.6319903  72.6306402  50.9696893
  56.4404105  74.0518733  49.8864285  55.6518669  73.3139254  49.7390137
  56.2416201  74.6184713  50.7961257  56.4766648  75.0054466  48.6894304
  57.1084562  75.8490836  48.9673101  56.9369918  74.4642150  47.8628309
  55.1110627  75.5150953  48.2624033  54.9695934  75.8355227  47.0630607
  54.1888026  75.5955511  49.1027776  58.0208818  72.3695288  48.9085524
  58.8204612  72.7036875  48.0309855  57.3603082  71.2152827  48.8820285
  56.8684149  70.8853247  49.7001165  57.3952564  70.3553614  47.7007894
  57.5435676  70.9645933  46.8091956  58.5413017  69.3399718  47.7969405
  59.4371858  69.8976903  48.0697793  58.2858729  68.6484225  48.5998202
  58.8033304  68.5510217  46.5066026  58.0701990  67.7483963  46.4265295
  58.7013194  69.2220075  45.6536817  60.2103497  67.9556253  46.5203381
  60.9244065  68.7750610  46.6024777  60.2967625  67.3101032  47.3943710
  60.5067134  67.1475622  45.2603612  61.4090912  66.5680331  45.4551968
  59.6663848  66.4702662  45.1079897  60.7039590  67.9781024  44.0364805
  61.4828538  68.6054710  44.1773039  60.8947705  67.3761030  43.2482624
  59.8677539  68.5148649  43.8555214  56.0525423  69.6533228  47.5088372
  55.5671093  68.9689281  48.4163661  55.4621812  69.8503003  46.3323276
  55.8648508  70.5169357  45.6892462  54.2310398  69.1676190  45.9415719
  53.6760694  68.8702805  46.8313454  53.3459487  70.0935221  45.0986993
  53.2024895  71.0300741  45.6375768  53.8590950  70.2913523  44.1576126
  51.9840663  69.4964569  44.7925054  51.7832544  68.2847616  44.8594898
  51.0318450  70.3566372  44.4596534  50.1041828  70.0200641  44.2445693
  51.2384246  71.3445941  44.4226821  54.5991920  67.9120402  45.1577232
  55.0220610  67.9979452  44.0111112  54.4423012  66.7468261  45.7850758
  54.1418486  66.7291658  46.7491898  54.8728696  65.4874825  45.1674922
  55.7915114  65.6437048  44.6019914  55.1372246  64.4358867  46.2502334
  54.3334715  64.4688305  46.9857569  55.2334366  63.4214906  45.8631365
  56.4081822  64.7356194  46.9894818  56.5535736  65.5401445  48.0880898
  55.6477105  65.9991789  48.4840688  57.8763062  65.5933251  48.4672696
  58.2378280  66.0954088  49.2655887  58.6206121  64.8338537  47.5994926
  59.9965034  64.5722200  47.5793690  60.6240114  65.0251505  48.3469538
  60.4708445  63.7540049  46.5842412  61.5371212  63.5342179  46.5308783
  59.6070306  63.1876694  45.6237915  59.9930129  62.5350504  44.8407171
  58.2375380  63.4438751  45.6458107  57.6107077  62.9765160  44.8863636
  57.7264022  64.2779169  46.6506169  53.9490076  64.9759775  44.0497598
  54.3178784  64.0733291  43.2875805  52.7711818  65.5834750  43.9358600
  52.4994947  66.2737715  44.6212621  51.8159597  65.2449929  42.8713124
  51.6341279  64.1702738  42.8673940  50.4860518  65.9645343  43.0941353
  50.6319065  67.0403668  42.9971296  49.7602342  65.6285698  42.3535836
  49.7092504  65.7061440  44.7131483  48.6451905  66.4693008  44.4801964
  52.3348849  65.5781023  41.4705170  51.8755196  65.0010422  40.4862288
  53.2907044  66.5021599  41.3864419  53.6072604  66.9742950  42.2212952
  53.8061826  66.9602775  40.0893531  53.0346614  66.8559754  39.3264800
  54.2221671  68.4439495  40.1702992  54.4376654  68.7595294  39.1494813
  53.3536895  68.9874556  40.5423849  55.4234989  68.7399138  41.0567618
  55.3404604  68.1004849  41.9355884  56.3198626  68.4727455  40.4970722
  55.5149671  70.2069623  41.4986827  56.5609372  70.5825375  42.0619012
  54.5517938  70.9824999  41.2927783  54.9387697  66.0925240  39.5152658
  55.3715634  66.2991092  38.3763214  55.4016698  65.1196530  40.2988278
  54.9779328  64.9576241  41.2012096  56.5900200  64.3353720  39.9364190
  57.2956615  64.9589430  39.3874851  57.2783125  63.8131957  41.1984980
  56.5246485  63.2924346  41.7891737  58.0447076  63.1053395  40.8827794
  57.9169428  64.9098575  42.0431365  57.1526053  65.6425195  42.3021645
  58.2957575  64.4437111  42.9527002  59.0606072  65.6052816  41.3149613
  60.0229990  64.9117910  40.9212487  58.9923120  66.8397781  41.1222767
  56.3115633  63.1890013  38.9649181  55.6490600  62.2076655  39.3229034
  56.8404691  63.3119876  37.7427471  57.3206336  64.1646173  37.4926192
  56.6730860  62.2814061  36.7141453  55.6103276  62.1008827  36.5527293
  57.3066640  62.7132780  35.3800484  56.8312381  63.6486254  35.0847609
  58.3660902  62.8881462  35.5674981  57.1498232  61.6806505  34.2519746
  57.8346863  60.8576920  34.4564314  56.1239462  61.3129733  34.2741572
  57.4433586  62.2243669  32.8550697  56.8769533  61.7477971  31.8667599
  58.3247881  63.2158831  32.7679158  58.5513642  63.6081708  31.8652115
  58.7637588  63.5722692  33.6048118  57.2395794  60.9342511  37.1609077
  56.6596651  59.8888312  36.8524620  58.3620537  60.9614593  37.8821533
  58.8362390  61.8380140  38.0461639  59.0485953  59.7170443  38.2569092
  58.5842286  58.8759682  37.7420755  60.5406153  59.7683919  37.8705509
  60.9547033  60.6555548  38.3496879  61.0542904  58.8819288  38.2426008
  60.7318445  59.8702740  36.3609654  61.2299588  61.0330155  35.7711543
  61.5023966  61.8751952  36.4072442  61.3824460  61.1273431  34.3744048
  61.7858015  62.0332331  33.9218903  61.0205623  60.0517787  33.5723247
  61.1576212  60.1236282  32.1981077  61.5134649  60.9639513  31.9000606
  60.5122260  58.8979121  34.1397585  60.2250235  58.0570482  33.5084399
  60.3675070  58.8119409  35.5231353  59.9628483  57.9055599  35.9734961
  58.8061343  59.2689784  39.7067611  59.5199093  58.4105681  40.2323570
  57.7759469  59.8452844  40.3324490  57.3611709  60.6738653  39.9305611
  57.2439553  59.3490462  41.6093604  57.7726867  58.4373879  41.8876075
  57.4158450  60.3804928  42.7370628  57.0005553  61.3277236  42.3929881
  56.8527234  60.0303476  43.6021596  58.7819450  60.5655191  43.1026049
  58.8395421  61.2153482  43.8068809  55.7576884  58.9865271  41.4841102
  55.3371100  57.9075249  41.9121781  54.9682220  59.9026437  40.9229363
  55.3746554  60.7641512  40.5872041  53.5138421  59.7094883  40.7703884
  53.2056467  60.2155455  39.8555000  53.3291829  58.6396595  40.6730909
  52.6960683  60.2491825  41.9341999  51.4704312  60.3742007  41.8424983
  53.3865944  60.5868211  43.0246768  54.3949697  60.5382513  42.9943502
  52.7512104  61.0251092  44.2652463  52.6362173  62.1088422  44.2452827
  51.7701661  60.5576569  44.3497440  53.5878440  60.6392560  45.4718015
  54.7288044  60.1984621  45.3281342  53.0176210  60.8260501  46.6627640
  52.1195109  61.2872869  46.6902990  53.6327118  60.4232635  47.9340418
  54.1295989  59.4615278  47.8064999  54.6669736  61.4498490  48.4031194
  54.5056408  62.4104617  47.9139423  54.6174494  61.5803447  49.4841458
  56.3788467  60.9771211  48.0313078  56.9404977  62.0589993  48.5632721
  52.5341961  60.2733461  48.9887901  51.4431516  60.8266050  48.8048891
  52.7877308  59.5456127  50.0842618  52.0388609  59.4508020  50.7553088
  54.0680900  58.8695194  50.3651662  54.8929081  59.5395277  50.1225488
  54.1757253  58.4742399  51.8478998  53.7410014  57.4766781  51.9110249
  55.2387662  58.4223025  52.0831582  53.4848255  59.3886616  52.8361227
  53.8204505  60.7411667  52.9266915  54.5933902  61.1356611  52.2671175
  53.1855451  61.5845221  53.8410415  53.4544421  62.6392943  53.8980676
  52.2117234  61.0730635  54.6788167  51.5810433  61.9073809  55.5830938
  51.8966828  62.8130368  55.5411555  51.8634747  59.7291537  54.6148517
  51.0948021  59.3251370  55.2736485  52.5084299  58.8919993  53.6948847
  52.2478537  57.8348196  53.6441776  54.2213184  57.5933910  49.5595352
  55.3444869  57.1662485  49.2438647  53.0884685  56.9588582  49.2665829
  52.1947185  57.3629988  49.5073747  53.1112734  55.6100215  48.7225512
  53.8661677  55.4905299  47.9454055  53.3839084  54.5579679  49.8514686
  54.2371589  54.8977250  50.4385196  52.1688567  54.3832837  50.7702502
  51.3152734  54.0430724  50.1839470  52.3975490  53.6458924  51.5397000
  51.9287585  55.3365313  51.2411773  53.7638493  53.3018997  49.2722532
  53.9286881  52.6642609  49.9707124  51.8559738  55.2673917  47.9194541
  50.9473834  56.0955153  47.7547857  51.8384858  54.0430582  47.4147852
  52.6304154  53.4443214  47.6004227  50.7431934  53.5113733  46.6148410
  50.3664405  54.2461941  45.9033673  51.2525848  52.2881206  45.8345294
  51.6522895  51.5665473  46.5470379  50.1414908  51.6390351  45.0260765
  49.7415774  52.3599109  44.3129797  50.5383011  50.7782124  44.4879083
  49.3465213  51.3127618  45.6966508  52.3128370  52.6970359  44.9584315
  52.6345142  51.9365766  44.4687116  49.5675762  53.0783427  47.5027024
  49.7692356  52.3769050  48.5019894  48.3526962  53.4979632  47.1362868
  48.2628236  54.2491428  46.4671444  47.1345189  52.9962848  47.7887227
  47.4165426  52.3267446  48.6012974  46.2717932  54.1439086  48.3698405
  45.5819876  53.6977972  49.0862567  46.9833769  54.7784677  48.8981240
  45.4919087  54.9812390  47.3703141  44.2285570  54.5787297  46.9214536
  43.8128372  53.6429380  47.2950448  43.4996910  55.3548778  46.0081527
  42.5238945  55.0183705  45.6578872  44.0287134  56.5517125  45.5445689
  43.3100953  57.3210072  44.6482683  42.4629256  56.9335661  44.4163362
  45.2747361  56.9816543  45.9848761  45.6900059  57.9225131  45.6237164
  46.0010209  56.1972428  46.9006369  46.9753063  56.5344007  47.2544623
  46.3188877  52.0829183  46.8683845  46.4269379  52.1599278  45.6432610
  45.5125408  51.2147836  47.4731827  45.4899146  51.1727539  48.4820538
  44.6726565  50.2846080  46.7221556  44.9262496  50.3316539  45.6631105
  44.8874547  48.8444761  47.2152081  44.9334023  48.8044110  48.3035016
  44.0597325  48.2282866  46.8640864  46.1528275  48.1988795  46.7055745
  47.4008128  48.6757607  47.0869168  47.4594894  49.5305266  47.7607359
  48.5739020  48.0728946  46.6170803  49.5476565  48.4659106  46.9093836
  48.4941473  46.9731872  45.7779010  49.4040931  46.4959106  45.4141626
  47.2501436  46.4783214  45.3996728  47.1823642  45.6138348  44.7392418
  46.0868861  47.0917441  45.8681325  45.1108637  46.7030279  45.5776504
  43.1960809  50.6628628  46.8637501  42.6524283  50.6325039  47.9746840
  42.5373698  51.0237958  45.7459504  43.1131878  51.3134704  44.4191120
  43.1803381  50.3961841  43.8341530  44.1074430  51.7458908  44.5312197
  42.1247901  52.2903239  43.8487550  42.1747889  52.3031656  42.7599785
  42.3057374  53.2945058  44.2321325  40.7962456  51.7592391  44.3337534
  40.4925376  50.9291894  43.6958834  40.0028496  52.5062066  44.3594807
  41.0825483  51.2474484  45.7581080  40.8603436  51.9800347  46.5340208
  40.2925745  49.9552003  46.0322435  40.8556302  48.8634035  45.9530920
  38.9908318  50.0773011  46.3610587  38.1752902  51.2954890  46.4917186
  38.4662627  52.0203675  45.7314644  38.3149628  51.7313756  47.4809574
  36.7907342  50.7766860  46.2888587  36.5575022  50.7664230  45.2241538
  36.0806614  51.4190839  46.8096495  36.7820779  49.3910677  46.8651182
  36.0818212  48.7559568  46.3225561  36.5235275  49.3942324  47.9240050
  38.2200997  48.8666379  46.6761900  38.6248995  48.4564209  47.6013696
  38.2703016  47.8022418  45.5838518  38.1082389  48.1103316  44.3970669
  38.5139248  46.5612114  45.9979125  38.7637537  46.3999650  46.9631506
  38.4335178  45.4115191  45.1027415  38.0184268  44.5877348  45.6834119
  37.7396147  45.6796625  44.3060628  39.7436903  44.9689193  44.4866453
  39.8225027  43.8771282  43.9245939  40.7786006  45.7999867  44.6073420
  40.6801032  46.6587611  45.1297443  42.0263572  45.5754587  43.8651986
  41.8640760  44.9915874  42.9591863  42.7210140  46.9258027  43.4967681
  42.9056691  47.4838128  44.4147156  44.0545907  46.6855710  42.7655008
  43.8706764  46.1279760  41.8471522  44.5139868  47.6436720  42.5223988
  44.7244890  46.1147622  43.4085504  41.7733112  47.8100300  42.6673083
  41.0047297  48.1695854  43.3514889  42.3657809  48.6530616  42.3118132
  41.1084315  47.1122497  41.4724222  40.5153721  46.2693298  41.8271986
  40.4607483  47.8184677  40.9529399  41.8764240  46.7528038  40.7875236
  42.9921946  44.6177670  44.5644658  43.5734651  43.7427000  43.9202467
  43.1515832  44.7706322  45.8789823  42.6482912  45.4939078  46.3726106
  44.1368341  43.9768714  46.6228677  45.1125694  44.0702873  46.1460939
  44.2533666  44.4571740  48.0785121  44.4772554  45.5163611  47.9516423
  43.2740406  44.3465835  48.5441196  45.3223232  43.8116571  48.9748741
  45.0927225  42.7494294  49.0588771  46.7377369  43.9848722  48.4195342
  46.9682459  45.0469138  48.3356759  47.4528424  43.5103546  49.0915148
  46.8017289  43.5209020  47.4352897  45.2357409  44.3693855  50.3872329
  44.2500363  44.1584256  50.8019399  45.9988746  43.9027503  51.0101132
  45.3961734  45.4472471  50.3632570  43.8427581  42.4763333  46.5648094
  44.7629528  41.6695774  46.4154559  42.5666159  42.1040390  46.6702995
  41.8424536  42.7769108  46.8774997  42.1961681  40.6835337  46.5911913
  42.8917900  40.0748177  47.1688366  40.7540614  40.3913021  47.0841729
  40.4750904  39.3815139  46.7831693  40.6716292  40.5103979  48.6107869
  40.9500323  41.5201213  48.9125320  39.6528484  40.3019964  48.9375186
  41.3533326  39.7938511  49.0689809  39.8189148  41.2833730  46.4531844
  38.9321387  41.0915911  46.7669488  42.3775503  40.1242181  45.1855745
  42.8109030  38.9856033  45.0240323  42.0734898  40.9320060  44.1738908
  41.7359740  41.8673388  44.3509074  42.1078008  40.4584337  42.7938502
  41.8044955  39.4121500  42.7564921  41.1537353  41.2762756  41.9176411
  41.3639198  42.3283712  42.1100381  41.3915580  41.0426553  40.8798733
  39.6735233  40.9973514  42.1759039  39.4993050  41.0252263  43.2515302
  39.0799560  41.7729921  41.6920016  39.2278896  39.6427640  41.6462318
  39.2155575  39.4067088  40.4374688  38.8558580  38.7494402  42.5518201
  38.5504202  37.8330094  42.2569238  38.8794990  38.9892139  43.5326621
  43.5117343  40.4379384  42.1899871  43.8306195  39.5444924  41.4087090
  44.3386818  41.4135622  42.5630247  44.0433682  42.0723900  43.2693073
  45.6488136  41.6098581  41.9332806  45.8530320  40.7976195  41.2356687
  45.6680060  42.9355205  41.1613856  45.4434422  43.7259470  41.8775533
  46.6823839  43.0652001  40.7841313  44.6903783  43.0057289  40.0112222
  43.3951813  43.4898781  40.1972260  43.0929537  43.8184603  41.1916061
  42.4899139  43.5575343  39.1331177  41.4799643  43.9376472  39.2867985
  42.8874741  43.1331508  37.8726366  42.0028865  43.1971461  36.8126450
  41.1451453  43.5498070  37.0606572  44.1697860  42.6461193  37.6691209
  44.4790004  42.3075693  36.6802474  45.0613779  42.5908570  38.7320578
  46.0735307  42.2178147  38.5755770  46.8399837  41.5859558  42.8919174
  47.9853294  41.5630915  42.4425074  46.5774917  41.5899617  44.1982707
  45.6228711  41.5004972  44.5157529  47.6376132  41.7212589  45.2070013
  48.0732130  42.7127156  45.0830426  47.1572838  41.6554753  46.1832469
  48.7416148  40.6837752  45.1291231  49.9109758  40.9916032  45.3661836
  48.3793074  39.4537728  44.7740886  47.4108534  39.2223155  44.6049030
  49.3607738  38.3646452  44.7957848  49.9464334  38.4265973  45.7129893
  48.6829577  36.9962452  44.7407341  49.4642369  36.2627079  44.9397947
  47.9579868  36.9840721  45.5545947  47.9887154  36.6527384  43.4429007
  47.7563686  37.5774388  42.9146536  48.6613969  36.0471429  42.8355658
  46.6895782  35.8709647  43.7032319  45.9098267  36.5841541  43.9705283
  46.4108440  35.3563502  42.7836784  46.8088543  34.8822824  44.7763808
  47.6801089  34.3747038  44.8345081  45.8495353  34.6025326  45.6589408
  44.6855494  35.2410085  45.6250084  44.5212942  35.9482928  44.9229620
  43.9699226  35.0163640  46.3014053  46.0597008  33.6871053  46.5954813
  46.9463791  33.2052011  46.6363462  45.3320893  33.4761545  47.2634484
  50.4712897  38.4846424  43.7462111  51.5093082  37.8364770  43.8711122
  50.2680394  39.3120218  42.7235964  49.3726617  39.7504537  42.5618080
  51.3092494  39.4520008  41.6940331  52.0567889  38.6616559  41.7621425
  50.7450724  39.4805131  40.2400656  51.5783982  39.5576056  39.5416932
  49.9436929  38.2099176  39.9399938  49.1098647  38.1323705  40.6377172
  49.5607571  38.2535574  38.9204075  50.5894304  37.3384530  40.0480406
  49.9123370  40.7352808  39.9938445  50.5330999  41.6188667  40.1422741
  49.5332857  40.7256764  38.9719210  49.0749474  40.7588703  40.6912131
  52.2662866  40.6278487  41.9411939  53.2049296  40.8291954  41.1756059
  52.0360169  41.3894687  43.0112559  51.2295367  41.2141897  43.5934640
  52.8744910  42.5628750  43.3140211  52.7299187  43.3179582  42.5413326
  52.5133337  43.1764414  44.6725871  51.8701992  42.4093272  45.1038793
  53.4468532  43.2245346  45.2332371  51.8076575  44.5302893  44.7417087
  50.8003356  44.4428182  44.3345820  51.7296502  44.9733914  46.2036285
  52.7366770  45.0615372  46.6113369  51.2276268  45.9389599  46.2648728
  51.1689791  44.2358846  46.7779386  52.4905640  45.6058027  43.9092824
  52.5107174  45.2985712  42.8636715  51.9399108  46.5419210  44.0018290
  53.5108807  45.7483306  44.2652860  54.3809249  42.2989068  43.2596164
  55.1170095  43.0599709  42.6307747  54.8390849  41.2367486  43.9195728
  54.2251656  40.7110976  44.5252901  56.2717996  40.9138250  43.9304272
  56.8008952  41.5984420  43.2675120  56.8669801  41.0403297  45.3453755
  57.8897549  40.6678742  45.2878626  56.8810162  42.1038430  45.5837925
  56.1182919  40.2918513  46.4252324  55.1317884  40.7463133  46.5167522
  56.0124352  39.2582066  46.0958770  56.8206304  40.3244066  47.7797105
  57.8225525  39.9019091  47.7039012  56.8849704  41.3456029  48.1553671
  56.0476212  39.5269604  48.7244318  56.2340819  38.5345455  48.7455141
  55.1109635  40.0144267  49.5343904  54.8561951  41.3196614  49.5686282
  55.3776679  41.9486091  48.9748345  54.1424685  41.6756820  50.1882598
  54.4411357  39.1953758  50.3290289  54.6442457  38.2060897  50.3164016
  53.7298534  39.5632800  50.9445147  56.6067007  39.5668507  43.2745990
  57.6972851  39.0161759  43.4801128  55.6724996  39.0565970  42.4717738
  54.7690926  39.5042535  42.4121188  55.8948618  37.8345091  41.6946057
  56.3665433  37.0771668  42.3207435  54.5604354  37.2823067  41.1788921
  53.9301661  37.1127440  42.0518803  54.1165430  38.0591141  40.5562928
  54.6741186  35.9908690  40.3758691  55.2609452  36.1911067  39.4794093
  55.1793895  35.2367873  40.9793292  53.3187419  35.4492881  39.9575940
  53.0254360  35.3390857  38.7678255  52.4815979  35.1164555  40.9351617
  51.5672070  34.7511594  40.7103296  52.7638097  35.2304070  41.8982156
  56.8405529  38.1174290  40.5189567  56.5608028  38.9900807  39.6937634
  57.9701989  37.3893924  40.4424279  58.4575547  36.3586831  41.3776925
  57.9318995  35.4210092  41.1972636  58.2819199  36.6814336  42.4038911
  59.9189345  36.2730433  41.0469906  60.3029677  35.2820134  41.2888114
  60.4765840  37.0245599  41.6058746  59.9866934  36.5407529  39.5807447
  59.7448174  35.6284978  39.0354140  60.9555698  36.9150111  39.2501257
  58.9042061  37.5993047  39.3324476  59.2733826  38.6227810  39.3980474
  58.2644633  37.3772081  37.9667070  57.3866264  36.5235631  37.8256337
  58.7069293  38.1528524  36.9828083  59.3501375  38.9004198  37.2008118
  58.2893762  37.9817894  35.5939955  57.5441425  37.1908356  35.5096271
  57.6966641  39.2862985  35.0012609  58.4265017  40.0880386  35.1137291
  57.3642696  39.1054527  33.5238179  56.6340887  38.3041320  33.4105838
  56.9497763  40.0326062  33.1279868  58.2710474  38.8501848  32.9754623
  56.4494222  39.7055657  35.7643649  56.7035131  39.8779118  36.8102314
  56.0496357  40.6229003  35.3321989  55.7000847  38.9167523  35.6982780
  59.5279340  37.5613957  34.8110845  60.3261303  38.4092766  34.4089717
  59.6732445  36.2487632  34.6139687  58.9628684  35.6328285  34.9828719
  60.8683975  35.6478265  34.0034358  60.8112342  34.5626031  34.0878261
  60.9831157  36.0206267  32.5118364  59.9964721  35.8955389  32.0657573
  61.2776734  37.0684245  32.4530522  61.9958048  35.1643465  31.7549492
  62.6347719  34.2815750  32.3694063  62.1493156  35.3861333  30.5329627
  62.1202129  36.0227269  34.8104661  62.3359411  35.4714628  35.8915758
  62.9140478  36.9726287  34.3111128  62.7149868  37.3590246  33.3994263
  64.1527536  37.3828739  34.9861208  64.3372986  36.7379032  35.8452222
  65.3447598  37.2748192  34.0271321  65.0528266  37.7331603  33.0822524
  66.1721536  37.8355246  34.4620216  65.7816621  35.8341853  33.7795791
  66.4670637  35.5350217  34.5725650  64.9006728  35.1926795  33.8003227
  66.4716590  35.6997087  32.4396264  67.1482236  36.5422598  32.2965635
  67.0404299  34.7701013  32.4189081  65.5072506  35.6826760  31.3432053
  64.5438104  35.5106342  31.5927730  65.8054376  35.8799751  30.0623109
  67.0561939  36.1148495  29.6827892  67.7929573  36.1447391  30.3729967
  67.2649242  36.2625122  28.7056879  64.8430346  35.8359490  29.1545597
  63.8916228  35.6533437  29.4401661  65.0645609  35.9851630  28.1805166
  64.0862925  38.7719434  35.6365689  65.1059865  39.2992517  36.0904455
  62.8816566  39.3435745  35.6866624  62.1138556  38.9040888  35.1993911
  62.6235234  40.5956883  36.4052056  63.5519549  41.1471118  36.5536852
  61.5956626  41.5007724  35.6702376  60.6449416  40.9722222  35.6004907
  61.3935976  42.8196296  36.4344171  62.3438617  43.3490001  36.5041711
  60.6707085  43.4400244  35.9046601  61.0227760  42.6061353  37.4369193
  62.0306212  41.7807721  34.2293552  62.9372412  42.3842498  34.2735769
  62.2558900  40.8211209  33.7641424  60.9772089  42.5080867  33.4065970
  60.7517426  43.4680990  33.8709687  61.3538586  42.6729069  32.3971078
  60.0703901  41.9049706  33.3615362  62.0847176  40.2924793  37.8046865
  61.0899107  39.5749660  37.9571165  62.7586740  40.8433077  38.8113924
  63.6136328  41.3369853  38.5982558  62.3602938  40.7200132  40.2129875
  61.5017244  40.0541296  40.2999179  63.5161225  40.1401273  41.0388527
  64.3966866  40.7386853  40.8055406  63.2948540  40.2198082  42.1031794
  63.7821256  38.6951872  40.6869402  64.5144320  38.3604830  39.5439947
  64.9109145  39.1600802  38.9182587  64.7405984  37.0287524  39.1996763
  65.3191298  36.7792371  38.3102128  64.2273724  36.0194990  39.9977638
  64.4468419  34.7012332  39.6623812  64.9648799  34.5994065  38.8605910
  63.4908317  36.3217253  41.1316396  63.0880681  35.5280294  41.7608683
  63.2657888  37.6623992  41.4661214  62.6778726  37.9124918  42.3492456
  61.9315363  42.1023689  40.7066610  62.3563820  43.1153972  40.1496620
  61.0800153  42.1467701  41.7277949  60.7641276  41.2957342  42.1705729
  60.4614336  43.4095265  42.1315087  60.8562240  44.2299913  41.5322781
  58.9402569  43.3339293  41.9196205  58.5578008  42.4791741  42.4774917
  58.4276409  44.2388684  42.2458259  58.5569039  43.1167526  40.4853667
  58.3181023  41.8326723  39.9969647  58.3880534  40.9812171  40.6738921
  57.9917065  41.6319701  38.6534274  57.7987991  40.6260857  38.2804879
  57.9133102  42.7194685  37.7917028  57.6546355  42.5670099  36.7438747
  58.1647672  44.0015790  38.2660350  58.1101440  44.8549726  37.5901388
  58.4866303  44.1947616  39.6059793  58.6874325  45.1990946  39.9789320
  60.8172240  43.8737503  43.5374427  60.5539519  43.1799016  44.5215300
  61.4433481  45.0492785  43.6082532  61.7472927  45.4911651  42.7524184
  61.7502824  45.7075261  44.8732127  61.5931368  45.0284762  45.7112435
  63.2138155  46.1868741  44.8959144  63.3842332  46.8748718  44.0678341
  63.4152408  46.6963504  45.8382318  63.8791879  45.3291180  44.7977654
  60.7840437  46.8803320  45.0571254  59.6609187  46.8487138  44.5443723
  61.2205389  47.9143460  45.7727146  62.1620526  47.9168079  46.1382900
  60.3660146  49.0668035  46.0514314  60.9840553  49.9595700  46.1467878
  59.6606627  49.1997504  45.2311247  59.5928504  48.8626809  47.3382535
  59.1726214  47.7489407  47.6593441  59.3859007  49.9452493  48.0795918
  59.7645972  50.8402595  47.8045550  58.7316587  49.8400369  49.3848346
  59.2569835  49.1333889  50.0273154  58.6681552  51.2082034  50.1031304
  59.6575565  51.6640980  50.0664517  57.6480076  52.1452755  49.4389951
  56.6582164  51.6902314  49.4757064  57.6294897  53.0974153  49.9692649
  57.9314433  52.3140213  48.4001064  58.3297402  51.0117539  51.4853214
  58.2908638  51.8620750  51.9292165  57.3403591  49.1809065  49.3441713
  56.9271436  48.5310477  50.3109699  56.6401345  49.3242591  48.2161528
  57.0225618  49.8772198  47.4624399  55.2946670  48.7684799  48.0561164
  54.6471781  49.1267022  48.8564502  54.6993295  49.2010047  46.7152150
  55.4728622  49.0673894  45.9589787  53.8638904  48.5343538  46.5013970
  54.2127227  50.6495385  46.6952740  53.3982086  50.6988947  45.9726181
  53.8269792  50.8639385  47.6919353  55.2809747  51.6806656  46.3298859
  56.4850464  51.3506741  46.2640760  54.8948770  52.8456550  46.1035823
  55.2518635  47.2475160  48.1744070  54.1929818  46.6771557  48.4506652
  56.4023435  46.6002661  47.9581842  57.2202785  47.1227721  47.6787755
  56.5006269  45.1354028  48.0251597  55.5136779  44.6814063  47.9361764
  57.4106556  44.5673505  46.9039490  57.3984666  43.4789853  46.9623691
  56.9260067  45.0069011  45.5292143  56.9383599  46.0952143  45.4698740
  57.5822946  44.5942931  44.7629637  55.9098948  44.6463326  45.3691906
  58.7629368  45.0013353  47.1026598  59.3188195  44.6458395  46.4053669
  56.9891096  44.6016490  49.3862539  57.1473913  43.3845274  49.5565213
  57.2339860  45.5006599  50.3436311  57.1854832  46.4865814  50.1298421
  57.6579389  45.1007761  51.6907698  58.4117728  44.3232259  51.5672814
  58.2848162  46.2722091  52.4299325  57.5395790  47.0553548  52.5692325
  58.6456843  45.9376361  53.4025246  59.1192447  46.6646560  51.8487151
  56.5141475  44.5080233  52.5181749  55.3368613  44.7021954  52.2001507
  56.8765572  43.7817448  53.5778960  57.8589906  43.6328539  53.7588808
  55.9012590  43.1422838  54.4666637  54.8865640  43.3278266  54.1144321
  56.1193625  41.6112090  54.5641869  55.3551351  41.1914908  55.2183224
  56.0299187  40.9515684  53.1877959  56.7941960  41.3704740  52.5331984
  56.1870271  39.8776254  53.2881074  55.0446750  41.1356652  52.7594223
  57.3977301  41.3434516  55.1516657  57.5302303  40.3944848  55.2108773
  55.9311452  43.7300126  55.8824955  55.1167241  43.3552690  56.7292956
  56.8786336  44.6334880  56.1294914  57.5693833  44.8132176  55.4148855
  57.0035052  45.3389049  57.4118642  56.0334681  45.3718100  57.9078929
  58.0037281  44.6219486  58.3351539  57.7526327  43.5632109  58.3993782
  59.0147566  44.7319036  57.9429405  58.0300369  45.1431053  59.7423048
  59.1911314  45.2272046  60.4797333  58.9195510  45.7171435  61.6767592
  59.7115481  45.8589002  62.4121126  57.6221855  45.9572352  61.7430958
  57.1270812  46.3356726  62.5379272  57.0425166  45.6074696  60.5464936
  55.9692279  45.7328852  60.4035826  57.4301383  46.7748310  57.1228563
  58.4835134  47.0086872  56.5193846  56.5868164  47.7239507  57.5327268
  55.7536899  47.4382023  58.0270419  56.7362030  49.1398800  57.1827884
  55.8310846  49.6742325  57.4714529  57.9385501  49.7884688  57.8938574
  58.8632951  49.2744338  57.6317238  57.9898127  50.8230495  57.5545716
  57.8806289  49.8307274  59.3978379  58.4727408  48.9529312  60.2627762
  59.0297069  48.1289907  59.8166702  58.2227146  49.3212662  61.5674306
  58.5375820  48.8269238  62.3899777  57.4687243  50.4675450  61.5666465
  56.9668024  51.2205625  62.6369979  57.1849012  50.8863189  63.6513020
  56.2265052  52.3401325  62.3389040  55.8245652  52.9516955  63.1467003
  55.9732566  52.7184210  61.0036258  55.3822797  53.6051139  60.7742319
  56.4729269  51.9670094  59.9338673  56.2408325  52.2939959  58.9203030
  57.2350483  50.8219372  60.2118777  56.7931247  49.3946304  55.6632637
  57.5410176  50.2556850  55.1896106  55.9978202  48.6430783  54.9013141
  55.5800998  47.7966854  55.2607970  55.7310150  49.0120994  53.5092967
  56.6596594  48.9732881  52.9399002  54.7208709  48.0568305  52.8644344
  55.1372723  47.0495863  52.8774006  53.8010632  48.0767239  53.4489496
  54.4375767  48.4358836  51.5209296  53.8038645  47.8222442  51.1421747
  55.1913980  50.4415831  53.4644555  54.3339309  50.8036841  54.2737842
  55.6980558  51.2349986  52.5210241  56.3637793  50.8506227  51.8659158
  55.3309811  52.6479373  52.3902675  55.1838542  52.8651311  51.3323074
  54.3958700  52.8079908  52.9269699  56.3903914  53.5912776  52.9475653
  56.3724866  54.8002271  52.6646191  57.3280724  53.0207675  53.7089506
  57.3204200  52.0142486  53.7923806  58.3594810  53.7701787  54.4321803
  58.1755280  54.8411378  54.3466998  58.3341762  53.3846564  55.9199861
  58.4228242  52.3000670  55.9824895  59.2208673  53.8467632  56.3539632
  57.1038259  53.8359662  56.6840604  55.8432105  53.2948644  56.4152045
  55.7480107  52.5365336  55.6380488  54.7125281  53.7132739  57.1274053
  53.7299379  53.2967765  56.9057116  54.8523792  54.6673433  58.1237597
  53.7485272  55.0872096  58.8360798  52.9371924  54.6546078  58.5600523
  56.0938606  55.2082434  58.4149506  56.1978955  55.9593323  59.1979848
  57.2107019  54.7880651  57.7022039  58.1921902  55.2020411  57.9332987
  59.7601160  53.4828130  53.8808368  59.9569862  52.5443134  53.1023019
  60.7355005  54.2757133  54.3173767  60.5143739  55.1100985  54.8417846
  62.1414788  54.0107680  53.9920814  62.2769131  54.0109974  52.9105285
  63.0432008  55.0886583  54.5980897  62.8684609  55.0899512  55.6739909
  64.0746058  54.7981053  54.3983832  62.7923777  56.4842573  54.0416256
  62.9080862  56.4458034  52.9584665  61.7699006  56.7710957  54.2873213
  63.9312912  57.7109904  54.7168293  63.2671250  57.9408310  56.3587082
  63.2862187  56.9920962  56.8950259  63.8697258  58.6733636  56.8957082
  62.2395036  58.2975079  56.2888715  62.5580373  52.6106793  54.4715932
  63.2963302  51.9053697  53.7749780  62.0636138  52.2023252  55.6396422
  61.5462246  52.8552649  56.2106741  62.3063036  50.8536657  56.1696387
  63.3727863  50.7070036  56.3405303  61.5648460  50.6678507  57.5036681
  62.0710801  51.3086293  58.2256300  60.5507899  51.0335870  57.3423384
  61.5104790  49.2269665  58.0459097  60.7903512  49.2239046  58.8641440
  61.1497823  48.5843844  57.2427377  62.8559194  48.7054878  58.5498494
  62.9557312  47.4859301  58.7981446  63.8024390  49.5065454  58.7062603
  61.9029199  49.7640920  55.1736966  62.6912979  48.8581436  54.8666434
  60.6744638  49.8642909  54.6696382  60.0690143  50.6079794  54.9865889
  60.1609674  48.9321220  53.6657654  60.1664932  47.9317841  54.0986543
  59.1364171  49.2196358  53.4296895  60.9807473  48.9212826  52.3825950
  61.1353047  47.8794177  51.7368353  61.5024058  50.0841507  52.0032848
  61.2520418  50.9422996  52.4733887  62.3859694  50.1622966  50.8461233
  61.8447068  49.7850807  49.9784585  62.7883055  51.5984151  50.5790157
  63.3392473  51.9872193  51.4354003  63.4200910  51.6402675  49.6917752
  61.8954328  52.2023780  50.4174409  63.6191045  49.2737768  51.0305661
  63.9982673  48.5390945  50.1190165  64.2303566  49.3236091  52.2149801
  63.9417166  49.9931124  52.9139448  65.4120608  48.4905639  52.4923767
  66.1236976  48.5813550  51.6717494  66.1257837  48.8805155  53.8126019
  65.4289195  48.7585831  54.6418256  67.3478929  47.9951311  54.0411309
  68.0454750  48.1168807  53.2124830  67.8365880  48.2827119  54.9720310
  67.0356045  46.9526175  54.1023094  66.5579040  50.3371511  53.7716888
  65.6822251  50.9729162  53.6409554  67.0572275  50.5949181  54.7056758
  67.2445893  50.4897155  52.9390494  65.0520382  47.0060754  52.4844827
  65.7175608  46.2119964  51.8194186  63.9878665  46.6361270  53.1963027
  63.4882580  47.3120894  53.7562719  63.5438031  45.2406205  53.2320589
  64.3037646  44.6283108  53.7174807  62.2330893  45.1018855  54.0106498
  62.3930592  45.5214386  55.0038689  61.4752415  45.6855078  53.4880105
  61.7607649  43.6522270  54.1397273  62.1109424  43.1110808  53.2607294
  62.2260313  43.2341394  55.0323802  60.2581084  43.5210795  54.2464504
  59.6613010  44.1343070  55.1529436  59.6684739  42.8003982  53.4162007
  63.3674930  44.6855868  51.8159101  63.9031228  43.6223057  51.4879100
  62.6455961  45.4279380  50.9801347  62.2793369  46.3133135  51.2996088
  62.2864739  44.9722103  49.6329860  61.8675970  43.9713232  49.7372280
  61.2294386  45.8795725  49.0441675  61.6368900  46.8835363  48.9252554
  60.9209842  45.4956737  48.0717592  60.3675412  45.9143850  49.7105158
  63.4826049  44.8726621  48.6902339  63.5773689  43.9319845  47.9009022
  64.3821522  45.8516866  48.7630603  64.2610187  46.6080352  49.4213633
  65.5615375  45.8650069  47.9030203  65.2416984  45.7902911  46.8636841
  66.0964334  46.8030610  48.0514795  66.4919273  44.7124612  48.2162287
  66.9806134  44.0317899  47.3111947  66.7218292  44.4783677  49.5040650
  66.3727324  45.1185890  50.2028836  67.5974464  43.3877601  49.9373760
  68.4992834  43.3713630  49.3253953  68.0044528  43.5803614  51.4065808
  67.0967352  43.6734323  52.0028070  68.5591652  42.6979505  51.7255558
  68.8726952  44.8266699  51.6013222  69.6825554  44.7550411  50.8753080
  68.2446889  45.6845086  51.3608644  69.4579607  45.0011689  53.0004196
  69.1818309  44.1798280  53.9065683  70.2076571  45.9855941  53.1878129
  66.9760795  42.0093178  49.6651350  67.6728599  41.0853448  49.2310936
  65.6635962  41.8835386  49.8622038  65.1504755  42.6217208  50.3225228
  64.9508013  40.6381102  49.5335248  65.4577581  39.7943132  50.0016066
  63.4949647  40.6813448  50.0406100  63.5453476  40.8911013  51.1090495
  63.0136956  41.5151451  49.5294767  62.6778966  39.3962571  49.8079165
  63.3614658  38.5472661  49.8009675  61.9678894  39.2836932  50.6272584
  61.9180119  39.4509482  48.4775943  62.6301749  39.4733391  47.6527177
  61.2831548  38.5697666  48.3849930  61.0745596  40.6474505  48.4024588
  60.7099869  40.9948182  49.2779711  60.7486486  41.2859660  47.2805327
  61.1832506  40.8644199  46.0956880  61.7716768  40.0454789  46.0392058
  60.9227228  41.3653154  45.2582343  59.9885229  42.3758250  47.3451716
  59.6652519  42.7098704  48.2418374  59.7381863  42.8642076  46.4972843
  65.0149926  40.3152446  48.0341709  65.2843871  39.1724383  47.6560158
  64.7792379  41.3159340  47.1844265  64.5057464  42.2232074  47.5339357
  64.8308203  41.1170032  45.7332822  64.1687562  40.2892238  45.4792120
  64.3596866  42.3630248  44.9915646  65.0183408  43.1984941  45.2287688
  64.3815728  42.1773015  43.9177265  63.3418548  42.6053265  45.2971912
  66.2411196  40.7224422  45.2897198  66.4112997  39.8684794  44.4102386
  67.2426622  41.3514282  45.9018783  67.0436740  42.1100225  46.5383042
  68.6407716  41.0208110  45.6334976  68.8320466  41.1379470  44.5668241
  69.5584034  41.9529212  46.3945544  69.3850283  41.8404905  47.4647882
  70.5958919  41.7077723  46.1673544  69.3561808  42.9828350  46.1004746
  68.9368417  39.5610922  45.9923703  69.6033600  38.8581568  45.2393922
  68.4340872  39.1096697  47.1374911  67.9674535  39.7434952  47.7704346
  68.6478005  37.7231149  47.5723860  69.6864966  37.4420408  47.3985844
  68.3408375  37.5632031  49.0627564  67.3342237  37.9468111  49.2291081
  68.3640160  36.4964760  49.2855928  69.3193010  38.2934439  49.9741703
  70.3356191  37.9840433  49.7303065  69.2200754  39.3678034  49.8192251
  69.0249459  37.9629392  51.4246394  67.9900455  37.6302595  51.5046664
  69.6898303  37.1597915  51.7424163  69.2175574  39.1050631  52.3076500
  70.1707761  39.3985636  52.4668070  68.2372369  39.7846020  52.8970714
  66.9553282  39.4478167  52.7259464  66.7170072  38.6618371  52.1381206
  66.2307032  39.9808102  53.1852244  68.5459993  40.8043295  53.6790174
  69.5145309  41.0541532  53.8191418  67.8120057  41.3290927  54.1328628
  67.8666784  36.7022341  46.7336062  68.2964942  35.5508290  46.5932747
  66.7249540  37.1153534  46.1802387  66.3189686  37.9984974  46.4547053
  65.9905757  36.2793060  45.2207376  65.7385790  35.3267988  45.6869209
  64.6912990  36.9642132  44.7699114  64.9278214  38.0081513  44.5641211
  64.3686152  36.4771088  43.8497459  63.5739154  36.8912128  45.8010422
  63.4525488  35.8474254  46.0906610  63.8944163  37.4726819  46.6654912
  62.2485763  37.4322684  45.2900539  61.2323959  36.7187191  45.4146727
  62.2112066  38.5686503  44.7721798  66.8670638  35.9427401  44.0130684
  66.8926825  34.7946588  43.5532708  67.5860151  36.9488838  43.5155296
  67.3992666  37.8883001  43.8360313  68.5412541  36.7658483  42.4204558
  68.1061824  36.1432267  41.6386923  68.9868426  38.1217498  41.8130021
  69.2364367  38.8047769  42.6249609  70.2134872  37.9388505  40.9015473
  69.9645064  37.2562636  40.0890301  70.5065018  38.9037843  40.4878493
  71.0394013  37.5267886  41.4813490  67.8123029  38.7296454  41.0392363
  67.6801386  38.1233311  40.1431245  66.9332978  38.6318903  41.6763341
  67.9901288  40.1779739  40.6454516  68.8687369  40.2764565  40.0079182
  67.1081811  40.5184463  40.1029151  68.1218985  40.7850157  41.5411284
  69.7407946  35.9057756  42.8387899  70.1327143  35.0054087  42.1039884
  70.3105919  36.1686410  44.0140166  70.0610179  36.9976912  44.5341012
  71.3948241  35.3223100  44.5306928  72.2238616  35.3270160  43.8230390
  71.9044151  35.8267500  45.8855382  70.9846196  35.9037700  46.4653170
  72.5311232  35.0383657  46.3024161  72.6573922  37.1616556  45.9423069
  72.0213591  37.9481572  45.5361322  73.0227119  37.4973239  47.3784352
  73.6591634  36.7114504  47.7851676  73.5568104  38.4471164  47.4055255
  72.1146089  37.5745502  47.9763361  73.9160253  37.1556795  45.0644219
  73.6356358  36.9695754  44.0276739  74.4151553  38.1219298  45.1374352
  74.5925647  36.3712821  45.4037065  70.9755393  33.8491269  44.6111966
  71.7618776  32.9527459  44.2772305  69.7363568  33.6007170  45.0342251
  69.1651209  34.3471082  45.4039401  69.2025216  32.2383496  45.0643394
  69.9213085  31.5803938  45.5527436  67.8777489  32.1714213  45.8311771
  68.0273015  32.3645373  46.8934574  67.1862779  32.9081668  45.4223079
  67.1967906  30.8420808  45.7292384  67.6566738  29.7179223  46.3815144
  66.8710525  28.6939814  46.0972609  67.0683964  27.7088382  46.5199279
  65.9188448  29.1127962  45.2834209  65.1734441  28.5490581  44.9004365
  66.1016779  30.4521864  45.0350507  65.4138113  30.9833517  44.3771720
  69.0328868  31.6539773  43.6619272  69.3306675  30.4779628  43.4410345
  68.5642165  32.4767329  42.7233296  68.2586042  33.4021093  42.9886198
  68.4037132  32.0662654  41.3264613  67.7603736  31.1865717  41.3076932
  67.7389705  33.1735218  40.5154562  68.3756486  34.0582464  40.5173264
  67.5913728  32.8349086  39.4899532  66.7740878  33.4199525  40.9585956
  69.7364858  31.6705740  40.6961228  69.7818785  30.8106890  39.8141843
  70.8120192  32.3064315  41.1557455  70.6898046  33.0460454  41.8326017
  72.1648358  32.0282818  40.6677066  72.1221221  31.7152526  39.6244965
  73.0432103  33.2776371  40.7678645  73.0245796  33.5995536  41.8090762
  74.0563538  32.9792232  40.4984402  72.5992381  34.4242671  39.8756491
  72.6675940  34.0884018  38.8409401  71.5605087  34.6514824  40.1154749
  73.5924797  35.9100473  40.0819900  73.5490666  36.0932121  41.8497298
  73.9821293  35.2092416  42.3178663  74.1222146  36.9742677  42.1384220
  72.5161968  36.2085929  42.1783156  72.8288383  30.8685831  41.4054297
  73.9439800  30.4641587  41.0584630  72.1446268  30.3436766  42.4214326
  71.2492941  30.7405327  42.6683814  72.6391226  29.2072388  43.2013025
  71.7886259  28.7663741  43.7212958  73.0536409  28.4805162  42.5026264
  73.7038229  29.5767233  44.2198242  74.4737024  28.7178761  44.6560719
  73.7410778  30.8518107  44.6047463  73.1005970  31.5118457  44.1873287
  74.7603365  31.3605605  45.5255120  75.6459536  30.7267126  45.4805843
  75.1625293  32.7917418  45.1497968  74.2546427  33.3947651  45.1355052
  75.8305083  33.1600679  45.9284109  75.8577291  32.8885752  43.7967811
  76.6729639  32.1651869  43.7825527  75.1323209  32.6329425  43.0244231
  76.4101686  34.2789816  43.5319953  75.5810362  34.9864890  43.5235257
  77.0997127  34.5377231  44.3355382  77.1430754  34.3384083  42.1941099
  76.4403238  34.0360321  41.4177019  77.4450396  35.3724020  42.0274547
  78.3499690  33.4524060  42.1472735  78.0703240  32.4941838  42.3012495
  78.7918317  33.5329677  41.2426370  79.0014710  33.7326994  42.8663562
  74.3583017  31.2758738  47.0009317  75.2255598  31.2131997  47.8768474
  73.0506817  31.2787284  47.2661009  72.4015406  31.4470694  46.5108683
  72.5123683  31.1180004  48.6256075  73.2186769  30.6166334  49.2873163
  72.0803295  32.4785260  49.2603969  71.6069458  32.2815506  50.2222747
  73.2889123  33.3962863  49.4651125  73.7625773  33.5941020  48.5035455
  72.9608420  34.3365669  49.9082186  74.0048313  32.9123963  50.1294991
  70.9834377  33.1571915  48.4245311  71.4567097  33.5245961  47.5139663
  70.2541117  32.3883214  48.1695373  70.2818132  34.3067252  49.1298896
  71.0104760  35.0762513  49.3848015  69.5233219  34.7293072  48.4709400
  69.8078797  33.9399766  50.0403743  71.3266933  30.1400972  48.6303032
  70.6523765  29.9890995  47.6085896  71.0754156  29.4603975  49.7700373
  71.8795967  29.4288123  51.0069735  72.0896199  30.4494032  51.3269495
  72.8178887  28.9086900  50.8141524  71.0057592  28.6907517  51.9746514
  70.4312037  29.4089262  52.5596389  71.6303506  28.0964989  52.6416225
  70.1231865  27.8238093  51.1668505  69.1744763  27.6763890  51.6829079
  70.5715974  26.8547139  50.9480328  69.8930444  28.5996155  49.8647201
  69.8864136  27.9535530  48.9868491  68.5740512  29.3812893  49.9337203
  68.5766378  30.5866833  50.2070945  67.4676571  28.6825002  49.6892678
  67.5611158  27.7067262  49.4458958  66.1281935  29.2768760  49.6751028
  66.0745042  30.0642041  48.9232177  65.0889974  28.2042461  49.3356113
  65.5236507  27.5842518  48.5515305  64.9507029  27.6061099  50.2362820
  63.7444763  28.7384855  48.8714374  63.3340974  29.3596627  49.6675710
  63.9111686  29.3492039  47.9841179  62.7658064  27.6258781  48.5428723
  62.2914228  26.9454829  49.4815286  62.4708991  27.4319254  47.3444829
  65.7658483  29.9769506  50.9904957  65.1442981  31.0453533  50.9817149
  66.1676661  29.3779007  52.1116325  66.6326641  28.4832067  52.0533328
  65.8352732  29.9035079  53.4398704  64.7912947  30.2164334  53.4567732
  66.0460780  28.8334869  54.5277001  65.8245452  29.2789496  55.4975380
  65.3335982  28.0340254  54.3243929  67.4619968  28.2615286  54.5421078
  68.4313970  29.0015801  54.2793759  67.6068625  27.0564709  54.8412646
  66.5607697  31.2053521  53.8022823  66.3001091  31.7902294  54.8544722
  67.4578195  31.6532413  52.9261014  67.6941629  31.0854563  52.1249389
  68.2040278  32.8924557  53.1421353  68.0854674  33.2156954  54.1763300
  69.6980937  32.6860573  52.8612229  69.7800043  32.0996949  51.9460349
  70.1391478  33.6700937  52.7023404  70.4389486  31.9727604  53.9905122
  70.3423373  32.5853380  54.8869026  69.9430164  31.0153369  54.1501703
  71.9109560  31.7372846  53.6944694  72.5217212  32.5197366  52.9332094
  72.4650640  30.7568219  54.2344057  67.6608951  34.0826645  52.3422622
  68.2027670  35.1828450  52.4321328  66.5964178  33.8605307  51.5697683
  66.2493589  32.9194532  51.4513520  65.9686739  34.9378698  50.7913981
  66.7308971  35.5029494  50.2549281  64.9159095  34.3980553  49.7803089
  64.2504240  33.7092432  50.3006619  64.0976135  35.5427060  49.1821747
  64.7624066  36.2317367  48.6612262  63.3687910  35.1400988  48.4787360
  63.5774328  36.0734910  49.9795319  65.6058729  33.6011409  48.6659068
  66.1031335  34.3247119  48.0199364  66.3532234  32.9684096  49.1446738
  64.6662264  32.7352798  47.8307122  63.9188253  33.3674094  47.3512296
  65.2390273  32.2081729  47.0677204  64.1689132  32.0111082  48.4759680
  65.3555663  35.9905702  51.7241199  65.6036669  37.1890594  51.5688950
  64.5691590  35.5287134  52.6906177  64.3441218  34.5445298  52.7196036
  63.9733341  36.4048217  53.6950229  64.0081603  37.4376556  53.3484101
  62.5119248  36.0229138  53.9494347  62.4472467  34.9764430  54.2474527
  62.0848530  36.6500725  54.7319828  61.6291109  36.1817704  52.7404425
  61.4464197  35.2762332  51.7333018  61.9926032  34.3365157  51.8152430
  60.5717040  35.7752423  50.7941387  60.2791941  35.3014801  49.9514722
  60.1648757  37.0248318  51.1876013  59.2847673  37.9228177  50.5708189
  58.8187560  37.6325832  49.6291735  59.0632920  39.1249292  51.1996963
  58.3836939  39.8488645  50.7500696  59.6942627  39.4454967  52.4138369
  59.5126305  40.4016644  52.9046043  60.5707178  38.5512685  53.0268071
  61.0357977  38.8468322  53.9672557  60.8144932  37.3164268  52.4093506
  64.7919416  36.3112479  54.9758601  64.9526577  35.2234817  55.5336235
  65.3188782  37.4452149  55.4302296  65.1748712  38.3067124  54.9230971
  66.1945270  37.4685506  56.6042843  66.1779868  36.4947674  57.0937453
  67.6351249  37.7881630  56.2000722  67.6084022  38.6379744  55.5180123
  68.1802920  38.0643437  57.1026335  68.3338184  36.6174383  55.5241135
  68.3676208  35.7904388  56.2333597  67.7486297  36.3242213  54.6525173
  69.7501259  36.9295585  55.0749365  70.3460193  37.9434677  55.4686919
  70.2999479  36.0538581  54.2354238  71.2403569  36.2035878  53.8988033
  69.7739587  35.2440840  53.9392778  65.7311534  38.4267184  57.6903955
  65.3651401  39.5749111  57.4104497  65.7526425  37.9383634  58.9294248
  65.9868642  36.9652212  59.0644574  65.4148401  38.7395008  60.1047679
  64.4584783  39.2392558  59.9507665  65.3060213  37.8456031  61.3435658
  64.9801883  38.4538806  62.1873256  64.5675225  37.0674606  61.1506573
  66.5543452  37.2469374  61.6472893  66.4623738  36.6924066  62.4255160
  66.4669917  39.8195722  60.3316282  67.5825979  39.7253468  59.8141435
  66.1056561  40.8451811  61.0997174  65.1654417  40.8884148  61.4660874
  67.0170627  41.9461682  61.3999696  68.0073392  41.7293703  60.9994071
  66.5044980  43.2457164  60.7640980  66.3234805  43.0336164  59.7103687
  65.5607054  43.4875106  61.2528630  67.4594659  44.4306737  60.8876516
  66.9066306  45.3348926  60.6329713  67.7725660  44.4785032  61.9306184
  68.6891140  44.3180921  59.9927924  68.6348401  43.6218913  58.9569252
  69.7147927  44.9440505  60.3270098  67.1734924  42.1285997  62.9098910
  66.1706241  42.2766298  63.6186902  68.4278506  42.1206685  63.4108257
  69.6932157  41.8817092  62.6903081  70.0003651  42.7928729  62.1769466
  69.5546130  41.0835369  61.9610555  70.6372471  41.4939249  63.7904631
  71.6587888  41.7555871  63.5146292  70.5745346  40.4214086  63.9745211
  70.1802906  42.2656330  64.9809468  70.6239857  43.2593069  64.9189313
  70.4361944  41.8131723  65.9390137  68.6545620  42.3655631  64.8396804
  68.1093228  41.6144507  65.4112068  68.1795884  43.7583694  65.2476051
  68.2520738  44.6961786  64.4434031  67.6911553  43.8885317  66.4809023
  67.6082475  43.0798806  67.0803262  67.1977741  45.1731157  66.9771168
  66.5193473  45.6094164  66.2439879  66.4434628  45.0023247  68.3025986
  65.6466293  44.2789452  68.1297473  67.1504700  44.5972274  69.0265717
  65.8413499  46.3063046  68.8494710  66.6646582  46.9806534  69.0850935
  65.2304250  46.7419790  68.0588651  64.9911124  46.0958787  70.0866849
  63.7465973  46.1517012  69.9724096  65.5648581  45.8701425  71.1767950
  68.3339342  46.1745006  67.1424385  69.4208530  45.8244247  67.6171430
  68.0714470  47.4150167  66.7357183  67.2071844  47.5954814  66.2452268
  68.9986406  48.5226979  66.9327429  69.9359684  48.3188295  66.4151006
  68.4037690  49.8174182  66.3751866  68.3760928  49.7510614  65.2875607
  67.3894044  49.9308113  66.7576867  69.1798435  50.9355562  66.7593439
  68.7891278  51.7351465  66.3993489  69.3308712  48.7021964  68.4132121
  68.4467489  48.6288679  69.2684821  70.6090193  48.9182482  68.7081646
  71.3158276  48.8085651  67.9950791  71.0422836  49.2252815  70.0750862
  70.4067494  48.7478228  70.8208936  72.5252971  48.8076296  70.3412494
  72.7780478  49.0477571  71.3739909  72.7185862  47.3174174  70.1056818
  72.4664552  47.0765855  69.0729520  73.7579444  47.0505905  70.2970936
  72.0700670  46.7556517  70.7779494  73.5040798  49.6234866  69.4905510
  73.3977943  50.6819651  69.7280985  74.5244212  49.3045604  69.7033632
  73.2873601  49.4651982  68.4341050  70.8453971  50.7048099  70.4035134
  70.7561750  51.0857095  71.5764175  70.7787080  51.5289700  69.3617502
  70.8309551  51.1416933  68.4304144  70.6724138  52.9800802  69.5039963
  71.1844033  53.3046867  70.4098642  71.3170361  53.6733204  68.3033709
  70.6981999  53.4483237  67.4347412  71.3210265  54.7493825  68.4770789
  72.7331274  53.1976065  68.0510091  72.9761806  52.5820371  66.9914721
  73.5986745  53.4194401  68.9222991  69.2279433  53.4428424  69.6330703
  68.9583388  54.4725343  70.2493348  68.3108402  52.6833791  69.0338213
  68.6080486  51.8677261  68.5176074  66.8883987  53.0296731  69.0256660
  66.6875995  53.8342745  69.7330524  66.3992347  53.4745084  67.6127254
  66.4186471  52.6116802  66.9469553  64.9736458  54.0367302  67.6790437
  64.9535309  54.8999287  68.3443141  64.6553134  54.3398873  66.6816166
  64.2976048  53.2704655  68.0583966  67.3305763  54.5211066  67.0194641
  68.3338206  54.1050383  66.9273227  66.9676541  54.8146415  66.0344644
  67.3584524  55.3945275  67.6709698  66.0726927  51.8392286  69.5436434
  65.4444342  51.1118930  68.7635227  66.0861557  51.6299241  70.8734164
  66.7762019  52.4331707  71.9018288  66.5948733  53.4920546  71.7174786
  67.8472665  52.2355721  71.8585338  66.1587519  51.9578504  73.1821007
  65.2901881  52.5702337  73.4243459  66.8862488  52.0238708  73.9911068
  65.7728179  50.5436877  72.9291824  64.9195101  50.3024749  73.5630446
  66.5710079  49.8226205  73.1054053  65.3531340  50.5094644  71.4551152
  65.6571484  49.5969063  70.9423666  63.8418302  50.6899511  71.3190990
  63.3488590  51.8234229  71.3052754  63.1274074  49.5750731  71.2040856
  63.5982834  48.6816467  71.1912606  61.6803143  49.5959244  71.0325372
  61.3728136  50.6181818  70.8122369  61.2694238  48.7023006  69.8686478
  61.5625385  47.6736551  70.0785820  60.1886667  48.7516994  69.7358920
  61.7627358  49.0414218  68.9577475  60.9635082  49.1664833  72.3037281
  61.0938686  48.0250048  72.7500217  60.1962762  50.0866289  72.8786344
  60.2203993  51.0461446  72.5642348  59.3428111  49.7523311  74.0073294
  59.8692580  49.0671871  74.6718070  58.9615076  51.0084094  74.8006011
  58.2543152  51.5640758  74.1847984  58.4623036  50.6658720  75.7070025
  60.1448791  51.9258609  75.1802690  60.7721967  52.0562235  74.2984646
  59.7280834  52.8890514  75.4746285  61.0118283  51.3994837  76.3226061
  62.2412800  51.4699967  76.2702487  60.3763681  50.8832241  77.3586473
  60.9028017  50.5209853  78.1407932  59.3668352  50.8529853  77.3641385
  58.1067043  49.0365188  73.4614489  57.6269118  49.3718936  72.3670779
  57.5982374  48.0299198  74.1962095  58.0911228  47.5207720  75.4905118
  58.2633585  48.3571223  76.1679726  59.0251420  46.9804605  75.3363346
  56.9820194  46.6245304  75.9527248  56.2958141  47.1916710  76.5816706
  57.3996886  45.7968595  76.5259741  56.3120375  46.1337045  74.7277577
  55.2629903  45.9407021  74.9521433  56.7651435  45.2345441  74.3102591
  56.4269071  47.2906830  73.7270121  56.6238927  46.9566915  72.7083146
  55.1558521  48.1414434  73.7470841  55.0601479  49.1001447  74.5110138
  54.1982498  47.7923684  72.8944613  54.3633434  47.0636905  72.2148497
  52.8995756  48.4610972  72.8911526  52.9680536  49.5048579  73.1977036
  52.2039792  48.3734988  71.5055974  52.0647178  47.3233337  71.2489653
  50.8404516  49.0790506  71.5306982  50.9789558  50.1294399  71.7868223
  50.3735888  49.0035762  70.5486374  50.1994856  48.6057105  72.2744797
  53.1101056  48.9159377  70.3841840  53.9839848  48.2652635  70.3516420
  52.5472795  48.8142291  69.4562931  53.5616491  50.3672626  70.5494760
  54.1249781  50.4696630  71.4769858  54.1940709  50.6496581  69.7078142
  52.6882720  51.0186288  70.5816391  52.0231640  47.8080602  73.9527153
  51.8200431  46.5939564  73.9230051  51.5231269  48.6122254  74.8883174
  51.7234770  49.6014377  74.8506580  50.7233070  48.1075629  76.0075233
  50.5895849  47.0298832  75.9135872  51.3881303  48.4080163  77.3810860
  50.7597526  47.9945935  78.1699607  52.7828945  47.7915504  77.4660668
  53.4120263  48.2048624  76.6777357  53.2223956  48.0183900  78.4373967
  52.7110953  46.7108115  77.3438014  51.4841340  49.8231574  77.5794109
  51.8952087  50.0000825  78.4287138  49.3219724  48.7060572  75.9934921
  49.0963752  49.7568629  75.3906469  48.3877917  48.0191028  76.6475671
  48.6253781  47.1126707  77.0244397  47.0244947  48.5187495  76.8466938
  46.9717638  49.5732124  76.5757204  45.9989222  47.7394715  75.9971435
  44.9971152  48.0798041  76.2591679  46.2385538  47.9642316  74.5072104
  47.2400627  47.6236874  74.2443242  45.5019796  47.4036774  73.9315919
  46.1450605  49.0261316  74.2797725  46.0986526  46.3384977  76.2912336
  45.4603432  45.8542898  75.7623629  46.6348388  48.3755031  78.3152202
  47.2306205  47.5734309  79.0395939  45.6421751  49.1494836  78.7503937
  45.2690010  49.8767205  78.1571256  45.1073502  49.0174932  80.1060296
  45.8565110  48.5714751  80.7601895  44.6734879  50.3760554  80.7054803
  44.3322066  50.2140881  81.7279254  45.8330500  51.3696071  80.7076579
  46.1745902  51.5324454  79.6854380  45.5005213  52.3159689  81.1341825
  46.6529330  50.9706287  81.3049089  43.5797689  50.9120498  79.9510078
  43.3143470  51.7546530  80.3267355  43.9277456  48.0483889  80.1133189
  43.3693490  47.7244922  79.0556133  43.5605566  47.5831041  81.3081876
  44.1272786  47.8005222  82.1154391  42.3992748  46.7145761  81.4904446
  42.5429580  45.7851827  80.9393709  42.2074720  46.3795707  82.9748664
  43.1186292  45.9403093  83.3809960  41.9610455  47.2835917  83.5317506
  41.1001694  45.3956418  83.2395303  41.3245623  44.0279962  83.1206803
  42.3141769  43.6755932  82.8298624  40.3022260  43.1108892  83.3684752
  40.4909796  42.0412761  83.2768208  39.0392943  43.5654958  83.7334098
  38.2354588  42.8540822  83.9227219  38.8033959  44.9291548  83.8564706
  37.8158889  45.2890881  84.1452230  39.8308674  45.8366709  83.6103018
  39.6475658  46.9068063  83.7067940  41.1262405  47.3462774  80.9258226
  40.3600434  46.6781059  80.2273508  40.9190335  48.6281719  81.2275042
  41.5654790  49.0975553  81.8454741  39.7340014  49.3595225  80.7777674
  38.8406087  48.7782427  81.0059392  39.6241359  50.7224021  81.4759978
  40.6297198  51.1242835  81.3519351  38.9189426  51.3267462  80.9054099
  39.2397163  50.7550466  82.9636285  39.9148387  50.1057512  83.5210564
  39.3415091  52.1756563  83.5030729  38.6662815  52.8254925  82.9464046
  39.0665847  52.1849226  84.5577916  40.3646183  52.5347286  83.3916501
  37.8449138  50.1876249  83.2111010  37.8087864  49.1513470  82.8750617
  37.6178755  50.2317545  84.2762805  37.1103766  50.7738958  82.6589774
  39.7032860  49.5239146  79.2578806  38.6501758  49.3720364  78.6418538
  40.8577821  49.8195509  78.6619451  41.6748943  50.0271403  79.2181227
  40.9610133  49.9371054  77.2041353  40.2463226  50.6775692  76.8449280
  42.3706127  50.3760084  76.7908768  43.0771213  49.7850431  77.3737188
  42.4857385  50.1395717  75.7330754  42.6458443  51.8641842  77.0132490
  42.0582175  52.4119181  76.2765108  42.3003333  52.1190854  78.0151206
  44.1145377  52.2406318  76.8721251  44.9765331  51.3337054  76.8101770
  44.4066680  53.4563430  76.8307104  40.5721250  48.6274911  76.5151541
  39.8928733  48.6299254  75.4841521  40.9931586  47.5108090  77.1042178
  41.5842656  47.5760175  77.9205753  40.7055927  46.1847776  76.5611244
  40.8873584  46.1777682  75.4864099  41.6059687  45.1313281  77.2171916
  41.6116263  45.3338926  78.2881887  41.1498618  44.1583722  77.0343704
  43.0351380  45.1274668  76.6944669  42.9966281  45.0302837  75.6094908
  43.4924307  46.0813592  76.9572877  43.8665293  43.9864850  77.2784217
  43.2096831  43.1402328  77.4796910  44.6224779  43.6937457  76.5497620
  44.5371959  44.3662724  78.5233883  45.2267836  45.1014238  78.4591962
  44.2986857  43.8213538  79.7142307  43.4044462  42.8494144  79.8447626
  42.8998615  42.5194402  79.0344471  43.2326133  42.4442004  80.7538141
  44.9641929  44.2477129  80.7797329  45.6488313  44.9838632  80.6825054
  44.7831554  43.8341942  81.6832408  39.2384545  45.7531940  76.6820839
  38.7089155  45.1079054  75.7746496  38.5878923  46.1113199  77.7886659
  39.0363797  46.7064805  78.4703859  37.2849486  45.5200946  78.1289897
  36.9791433  44.8205115  77.3510656  37.3789449  44.7639402  79.4579367
  37.6688072  45.4557656  80.2487950  36.4259121  44.3003544  79.7127245
  38.3995353  43.6690854  79.4514459  38.2654248  42.5323979  78.6814180
  39.3164417  41.7531544  78.8666398  39.4005819  40.8010291  78.3427345
  40.1255511  42.3424273  79.7292565  41.0057046  41.9770965  80.0638654
  39.5772861  43.5445428  80.1054888  40.1034006  44.1860622  80.8124242
  36.0553311  46.4388177  78.1257164  34.9269670  45.9435540  78.1910796
  36.2582339  47.7536915  78.0469491  37.1901628  48.1389637  78.1032799
  35.1252620  48.6820163  77.9765235  34.4437130  48.4788827  78.8025543
  35.5823304  50.1427940  78.0663560  36.5123845  50.1367178  77.4979710
  34.8483468  50.7651467  77.5544525  35.8442360  50.7100779  79.4707860
  36.4855911  50.0211195  80.0204229  36.5247226  52.0646220  79.3711147
  35.8837211  52.7542984  78.8219677  36.7048400  52.4558771  80.3724028
  37.4745586  51.9569737  78.8473554  34.5641492  50.8098402  80.3066485
  34.1255550  49.8184563  80.4201942  34.8022522  51.2160036  81.2897251
  33.8526200  51.4661375  79.8055508  34.3057276  48.4346886  76.7081089
  34.8731010  48.1619851  75.6479343  32.9664832  48.5022225  76.8163022
  32.1682026  48.8381390  78.0123883  32.5682419  49.7409222  78.4739630
  32.2170624  48.0143524  78.7244890  30.7849369  49.0367295  77.4601421
  30.6387297  50.0843316  77.1969835  30.0442698  48.7426693  78.2038101
  30.7105547  48.1630779  76.2652157  29.9859199  48.5733717  75.5618933
  30.4472285  47.1310141  76.4967398  32.1172936  48.2203140  75.6571156
  32.4501166  47.2760827  75.2261235  32.1719698  49.3133233  74.5909274
  32.5457295  50.4489454  74.8807761  31.8077277  48.9496911  73.3628133
  31.7039052  47.9688736  73.1452880  31.5376099  49.9229045  72.3119464
  32.3449370  50.6533777  72.2596873  31.4346601  49.2123893  70.9647165
  31.2926293  49.9593858  70.1837410  32.3617829  48.6688923  70.7826331
  30.3443051  48.3040759  70.9540059  30.2983624  47.8693615  70.0993056
  30.2120395  50.6091578  72.6279094  29.5225981  50.2124048  73.5737887
  29.8531663  51.6234953  71.8403547  30.5274073  52.0235482  71.2036003
  28.5564890  52.2929346  71.9911255  28.3788369  52.5655695  73.0314183
  28.4374301  53.5797244  71.1098434  28.6898518  53.3219072  70.0812945
  27.0216130  54.1536018  71.1580880  26.7686308  54.4121050  72.1863278
  26.9698244  55.0472050  70.5360818  26.3152767  53.4113276  70.7863089
  29.4476584  54.6354283  71.5572070  30.4573964  54.2359522  71.4626019
  29.3482706  55.5223737  70.9314677  29.2589176  54.9020482  72.5971068
  27.3826645  51.3084051  71.7754223  26.5235900  51.1909299  72.6497366
  27.3527968  50.5826773  70.6322355  28.2359934  50.6284435  69.4500657
  29.2751830  50.6878643  69.7735689  27.9930550  51.5034996  68.8472750
  27.9267415  49.3477862  68.7455756  28.5917104  48.5639317  69.1081878
  28.0714019  49.4789472  67.6732084  26.5076731  49.0409725  69.0552062
  26.3548217  47.9617625  69.0487931  25.8158481  49.5095609  68.3552757
  26.2763117  49.5915328  70.4667746  25.3263621  50.1182406  70.5577302
  26.3328970  48.4607861  71.4977383  25.2938703  47.9061694  71.8607256
  27.5375982  48.1361014  71.9630306  28.3563968  48.5658833  71.5568832
  27.7254790  47.1749078  73.0468459  27.3019219  46.2185093  72.7402509
  28.7942816  47.0577006  73.2257952  27.0549040  47.6225261  74.3342720
  26.4120626  46.8160542  75.0084218  27.2051490  48.9055420  74.6680435
  27.8379922  49.4821800  74.1322287  26.5443786  49.4975925  75.8342582
  26.7431701  48.8874302  76.7153274  27.0616105  50.9208343  76.0956873
  28.1350418  50.7585003  76.1931150  26.8637226  51.5116900  75.2013552
  26.5433993  51.6733718  77.3314849  25.4548884  51.6168495  77.3385531
  27.0913654  51.0747276  78.6219748  28.1798777  51.1313170  78.6158426
  26.7038852  51.6320155  79.4748465  26.7826886  50.0322080  78.6992518
  26.8774979  53.1574141  77.2488872  26.4140879  53.5857820  76.3601513
  26.4992388  53.6654492  78.1359733  27.9585520  53.2843430  77.1913544
  25.0213001  49.5011156  75.6707059  24.2909242  49.2219313  76.6250691
  24.5569855  49.8081710  74.4588255  25.2088206  50.0903815  73.7407952
  23.1245698  49.8365081  74.1473323  22.6005209  50.4344429  74.8929501
  22.8757442  50.4511273  72.7621919  23.5532035  49.8743227  72.1325533
  21.8451937  50.2266440  72.4871050  23.1435430  51.9501285  72.5627115
  24.1360498  52.1875578  72.9456714  23.0702073  52.3109596  71.0876492
  22.0777754  52.0742280  70.7040663  23.2623438  53.3767189  70.9637883
  23.8178498  51.7409975  70.5360387  22.1844759  52.8216619  73.3705989
  22.2948605  52.5972335  74.4315167  22.4137005  53.8729488  73.1963775
  21.1593428  52.6177594  73.0613665  22.4885387  48.4464166  74.2388745
  21.3492779  48.3098925  74.6877141  23.2314499  47.4239218  73.8117184
  24.1038735  47.6055007  73.3363181  22.8006591  46.0339007  73.9639767
  21.8088778  45.9116190  73.5286420  23.7655187  45.0745663  73.2607289
  24.7645546  45.4950414  73.3757386  23.7076986  44.1255985  73.7938489
  23.4794216  44.8447386  71.7848070  22.4154166  44.9917979  71.5994218
  24.0527868  45.5588657  71.1937258  23.8732471  43.4237174  71.3880134
  24.9458720  43.3068238  71.5426444  23.3359724  42.7248209  72.0290899
  23.5641008  43.1121153  69.9920770  22.6045727  43.2293374  69.6993923
  24.4569901  42.6994053  69.0934063  25.7313629  42.5342966  69.4349150
  26.0255715  42.7229434  70.3825192  26.3993230  42.2209925  68.7451546
  24.0739394  42.4397932  67.8494474  23.1053649  42.5561525  67.5878676
  24.7527829  42.1270683  67.1701290  22.6874466  45.6613948  75.4402580
  21.7531872  44.9638180  75.8394561  23.6411145  46.1381311  76.2391303
  24.4057532  46.6543602  75.8281139  23.6682292  45.8887510  77.6786922
  23.5509744  44.8227490  77.8736026  25.0038535  46.3508377  78.2710002
  25.6966910  46.1888463  77.4452677  24.9156240  47.4195745  78.4662364
  25.5296112  45.6453630  79.5236348  24.7196249  45.5813007  80.2502151
  26.0375918  44.2395987  79.2019402  26.8479606  44.3028833  78.4757196
  26.4035181  43.7674494  80.1136823  25.2239532  43.6448612  78.7867534
  26.6307013  46.4758825  80.1737348  26.2330976  47.4511324  80.4546236
  26.9960309  45.9630568  81.0634794  27.4512443  46.6080270  79.4685073
  22.4974444  46.5734720  78.3909569  21.9420364  46.0267343  79.3480441
  22.1318426  47.7668553  77.9193379  22.7216848  48.2323263  77.2444140
  20.9536355  48.4792651  78.4204789  20.9266319  48.4359226  79.5092817
  20.9320990  49.9652613  77.9602957  21.0632944  49.9989532  76.8787445
  19.6058589  50.6363909  78.3349172  19.4741711  50.6034977  79.4164333
  19.6165349  51.6742896  78.0021216  18.7824551  50.1092962  77.8529664
  22.1052635  50.7335982  78.5836450  21.8502591  50.9117981  79.6283068
  22.9775709  50.0822871  78.5291185  22.4198628  52.0621282  77.9037094
  21.5481162  52.7141891  77.9582464  23.2611939  52.5383066  78.4072124
  22.6754259  51.8846781  76.8590569  19.6708825  47.7441105  78.0062116
  18.8170313  47.4631335  78.8473466  19.5565549  47.4088577  76.7226506
  20.2782091  47.6784095  76.0694613  18.4069066  46.6530047  76.2155086
  17.5201385  47.2760583  76.3318943  18.5766386  46.4576421  75.1566773
  18.1805263  45.3310851  76.9325753  17.0389032  44.8897518  77.0916120
  19.2738130  44.7095252  77.3707025  20.1748466  45.1187364  77.1687520
  19.2362596  43.4294329  78.0776265  18.5361173  42.7531540  77.5871708
  20.6276436  42.7830969  78.0721344  20.9755662  42.9947958  77.0610791
  21.2284235  43.3446038  78.7875878  20.7651786  41.2846197  78.3555987
  20.1669083  41.0393103  79.2330933  20.2894483  40.4544752  77.1682109
  20.8875957  40.6989131  76.2903905  20.3987939  39.3946201  77.3981057
  19.2414205  40.6756646  76.9661877  22.2102417  40.9487336  78.6980711
  22.5145341  41.5095642  79.5817988  22.2980001  39.8808364  78.8980591
  22.8541545  41.2150047  77.8598737  18.7319624  43.5832209  79.5138895
  17.9039647  42.7927170  79.9746262  19.2416087  44.5983988  80.2108476
  19.9634233  45.1667746  79.7912860  18.8527539  44.8797888  81.5948442
  18.8496715  43.9545143  82.1710011  19.8278681  45.8780430  82.2668575
  19.6715755  46.8651498  81.8317793  19.5948534  45.9439473  83.7738614
  19.7514272  44.9572382  84.2097390  20.2932374  46.6523745  84.2193833
  18.5732547  46.2693588  83.9701874  21.1788816  45.4671060  82.0203104
  21.7827556  46.0861868  82.4370543  17.4153005  45.4061424  81.6660312
  16.6686537  45.0680475  82.5899839  17.0361696  46.2232147  80.6848143
  17.7226747  46.5506543  80.0202895  15.6693464  46.7306353  80.5762658
  15.2031317  46.7500416  81.5613376  15.6362043  48.1645949  79.9835740
  15.7531525  48.0992520  78.9018376  14.3175861  48.8611784  80.3114515
  14.2001457  48.9273110  81.3930863  14.3200214  49.8641910  79.8847679
  13.4899491  48.2899982  79.8908915  16.7209699  48.9352588  80.5179165
  16.6964997  49.8210782  80.1486938  14.8249004  45.7642800  79.7338755
  14.3428880  46.1135268  78.6508466  14.6659920  44.5429988  80.2423147
  15.1361599  44.3104529  81.1054275  13.8934320  43.4977207  79.5695935
  13.0637190  43.9875111  79.0599065  14.7571506  42.7627909  78.5457290
  15.1474997  43.4762218  77.8199575  15.9177355  42.0768775  79.2586034
  15.5281494  41.3629118  79.9842592  16.5342636  41.5524004  78.5285914
  16.5215065  42.8243622  79.7732162  13.9128528  41.7164641  77.8260158
  13.5225093  41.0023645  78.5511327  13.0831389  42.2062548  77.3163303
  14.7749413  40.9829194  76.8040854  15.6046613  40.4924587  77.3131167
  14.1719297  40.2349018  76.2893565  15.1652929  41.6963500  76.0783153
  13.3040106  42.5133853  80.5775365  13.9995819  42.0325111  81.4754148
  12.1103526  42.2230558  80.5410804  61.5015228  55.7239203  45.1812022
  62.0876543  56.6224513  46.2787854  60.3033480  56.3148063  44.5324126
  62.6384678  55.3659467  44.0997152  62.3003424  55.0112894  42.7811833
  63.3499083  55.6008764  41.8507756  63.1558960  55.1075263  40.5443982
  63.2568426  57.1175815  41.7711426  64.5394995  57.6570276  42.0067506
  62.7918597  57.4008501  40.3546682  63.3607682  58.5844058  39.8423939
  63.2625676  56.1607612  39.6113583  62.4906910  55.8320872  38.4001846
  61.1359449  55.9152404  38.1913199  60.8714031  55.5027718  36.9310055
  62.0319489  55.1509543  36.3339988  62.3419813  54.6658243  35.0642040
  61.3875318  54.4227949  34.1690795  63.6600024  54.3944656  34.7494630
  64.6652899  54.6021713  35.6735827  64.3522043  55.0836947  36.9280586
  63.0585441  55.3511910  37.2513218  59.0477191  57.3936025  54.6324997
  59.5605069  57.2457360  55.9076272  60.1146516  56.1970853  56.2242333
  59.4488716  58.2753219  56.8238512  58.8276898  59.4582150  56.4658931
  58.7354039  60.3708675  57.2831971  58.3069356  59.6107795  55.1815208
  57.6778435  60.7885618  54.8208590  57.1285094  60.9360689  53.5630877
  56.8048292  62.2439910  53.2035465  56.9565991  62.6806078  51.8956877
  56.6126642  64.1024376  51.5487472  57.4236956  61.7898434  50.9346202
  57.6114361  62.2336633  49.5212189  57.7338309  60.4762213  51.2750291
  57.5734669  60.0368297  52.5881263  57.9175062  58.7456121  52.9763636
  58.4195290  58.5703337  54.2578708  57.9435926  57.6160669  51.9756499
  59.3651594  57.2211497  51.5589746  60.0372634  58.3497275  51.0410343
  59.3203591  56.0831925  50.5344843  58.6365445  54.9826476  51.0973136
  60.6866745  55.5857154  50.0575948  61.5746136  56.6460583  49.7783849
  60.4914992  54.7486557  48.8007083  61.7245750  54.2448766  48.3408913
  61.7429987  53.3309788  47.0170917  63.1518462  53.0811485  46.6415141
  60.9641330  52.0278082  47.2483051  61.0509257  54.0298115  45.9233286
  61.3357016  55.4045252  42.5358678  62.2698072  53.9461943  42.6794485
  64.3048816  55.3219644  42.2455923  62.5896897  57.5474751  42.4887836
  65.1686466  57.2848661  41.3695867  61.7387429  57.5693174  40.2708367
  64.3283626  58.5210271  39.8801460  64.2566680  56.3295105  39.2526019
  60.4378535  56.2377377  38.8799634  60.4468552  54.6146286  34.3882335
  61.6223635  54.0511088  33.2880486  65.6467103  54.3981028  35.4264065
  59.8122956  58.1667388  57.7323328  56.4474328  62.8958507  53.9194723
  56.2751346  64.6126073  52.4270437  55.8374414  64.1123803  50.8109723
  57.4799331  64.5947727  51.1609561  57.3295872  63.2619179  49.4303582
  57.0003920  61.6374324  48.8763950  58.6389625  62.1197892  49.2453162
  58.0836189  59.8255641  50.5539393  57.4038067  57.9199933  51.1029380
  57.4965417  56.7633407  52.4425424  59.9037008  56.8694603  52.4146525
  59.5608630  58.6810723  50.2639286  58.8243051  56.4918709  49.6790509
  59.1294194  54.6540976  51.8653209  61.1195327  55.0032673  50.8434840
  61.2100455  57.1948236  49.0664546  60.0543931  55.3581107  48.0368550
  59.8482742  53.9258044  49.0320246  49.2741477  61.8172392  66.2164758
  48.8399840  61.0933677  64.9699334  49.8072801  60.7459869  64.0082173
  49.4632980  60.0597515  62.8335415  50.5053638  59.7377908  61.8372954
  51.3025035  60.8299178  61.5151061  52.3118717  60.6681810  60.6016319
  53.0782070  61.7942553  60.2965206  54.1230579  61.6976958  59.3749911
  54.4016835  60.4764716  58.7585453  53.6372438  59.3538216  59.0649532
  53.9656274  58.1892974  58.4265470  52.5903332  59.4512501  59.9864275
  51.7622756  58.2968101  60.3363689  51.9501030  57.1857800  59.8423730
  50.6737047  58.5064922  61.3184447  49.9055130  57.4066790  61.6533200
  48.1190124  59.7348623  62.6226975  47.1470696  60.0702445  63.5689073
  47.4891863  60.7468657  64.7524198  46.4081282  61.0918369  65.7541534
  46.1856217  62.4326719  65.8515877  46.6873046  60.6740311  67.0216959
  45.2041794  60.5327119  65.4423433  49.0179361  61.2130886  67.0991165
  50.3615530  61.9794163  66.1859936  48.7595470  62.7878076  66.2750169
  50.8588633  61.0192046  64.1818546  52.8596639  62.7571197  60.7817133
  54.7272616  62.5851247  59.1342902  55.2237983  60.4017748  58.0316246
  54.1177851  58.1885466  57.5019512  49.8901283  56.6577517  61.0900970
  47.8243586  59.2093405  61.7026584  46.0966642  59.8002671  63.3842195
  16.3681041  54.2623224  63.7129304  70.0550493  24.8052838  73.5543175
  75.2420179 102.9147833  59.1798190  66.7535917  78.2730686  32.6918770
  70.6670245  14.8646714   5.0694638  56.1763308  40.9265906 112.0715034
  55.5025007  41.2297603 112.6799991  56.5629130  41.7294987 111.7220491
  60.0820193  38.2116162 110.3442480  60.0033825  37.8776026 111.2378238
  60.9029860  38.7037930 110.3433952  57.6524145  35.5284157 109.9652458
  58.3559995  35.7334160 110.5810114  56.9286794  36.0960919 110.2301542
  60.8571640  48.2899242 118.0364511  60.2936505  48.1989179 117.2680799
  60.7424035  47.4699147 118.5167003  66.4371198  51.9570210 113.3478976
  65.7859178  52.5424290 112.9612990  67.2315561  52.4876405 113.4074013
  60.3626825  49.0459347 113.7466110  61.1357701  48.4988334 113.6078986
  60.7152224  49.9103596 113.9580572  62.6993103  45.2052013 111.3784560
  62.9518624  44.6833535 110.6168023  61.7617662  45.0418159 111.4811244
  67.7436386  44.2087792 119.1859303  68.5299475  43.7907215 118.8349720
  68.0075090  45.1133884 119.3540952  67.9146463  49.6460642 113.8847960
  67.2792296  49.7195268 114.5968865  67.5843870  50.2354241 113.2067039
  62.4189392  47.1080119 113.5808935  62.3025650  46.4325023 114.2490019
  62.5291652  46.6212493 112.7641088  64.7620933  46.5690266 117.2855624
  64.3979140  46.0420887 117.9968546  65.6188049  46.1788735 117.1122110
  64.4026420  41.5980166 112.2816973  64.5700822  42.4660402 112.6487444
  64.2123589  41.7607448 111.3578262  64.3815641  44.0537824 113.2663640
  64.2615266  44.4994874 114.1049120  63.6868229  44.4023141 112.7077178
  70.0800707  44.5259297 114.0943974  70.9918563  44.7586683 113.9191671
  69.5710354  45.1096341 113.5319052  64.2398251  49.2459523 118.7507640
  64.7036597  49.5247226 117.9612263  63.9755049  48.3442968 118.5680731
  63.1767137  45.3682676 115.5597205  63.8791181  45.8203719 116.0271132
  62.8447766  44.7266494 116.1877098  64.4160902  52.1823618 115.6359311
  64.2806577  53.0275154 116.0644158  64.9570714  52.3842896 114.8725244
  57.8690299  49.6999056 116.2087236  58.3814820  50.4942307 116.3592800
  58.5213012  49.0025347 116.1420837  59.6785184  52.8164813 118.2909989
  59.8551812  53.7382777 118.1030973  60.4742017  52.5023232 118.7204369
  67.7303648  45.6962791 112.6730639  67.2150272  46.4667396 112.9119027
  67.4580957  45.0227927 113.2963701  72.7037922  48.4495146 114.6083813
  71.9267365  48.1106305 114.1638975  73.3829403  48.4547769 113.9338778
  67.5189951  43.5689883 114.4990420  67.2140087  43.8836032 115.3500564
  68.4720393  43.6471303 114.5417753  65.9636383  49.7280107 116.1483374
  65.4357745  48.9932866 115.8356612  65.4623886  50.5054783 115.9023343
  61.0224698  42.4204234 112.5285871  60.1862010  42.7578920 112.8495146
  60.8829468  42.2853214 111.5913008  64.1088983  47.5460317 109.1518347
  63.2016045  47.3149570 109.3509496  64.6060015  46.7497936 109.3392329
  67.0157062  56.2557824 112.0715034  66.3418761  56.5589521 112.6799991
  67.4022884  57.0586904 111.7220491  67.0150567  45.1514371 116.6915383
  67.7622386  45.6635768 116.3822505  67.2842156  44.8298424 117.5519777
  65.2877217  47.6472912 113.6742337  64.3788436  47.3631945 113.7714807
  65.3172301  48.0671990 112.8145644  69.4629404  42.1871487 118.6734172
  68.7252161  41.6748874 119.0044415  69.7156177  41.7471869 117.8617449
  64.9853305  49.1881655 111.0130416  64.5472735  48.4717514 110.5536053
  65.7263745  49.4157770 110.4515507  62.0428849  50.7499378 119.2638739
  62.8369448  50.2549698 119.0621314  61.3320542  50.2217241 118.9006445
  58.3511613  44.8942460 115.3398492  57.4209201  44.8326915 115.5568454
  58.4469085  44.3718413 114.5435133  69.1064532  48.0466037 110.6062474
  68.4893703  47.3212865 110.5095526  68.6381021  48.8075397 110.2629548
  60.8963078  42.2651461 109.7283778  60.0192544  42.1440262 109.3646025
  61.3720831  41.4737540 109.4762667  68.4753435  49.1844068 117.1918927
  67.5409714  49.3045531 117.0223632  68.6530103  48.2816535 116.9278937
  71.8625986  45.0261388 117.7268961  72.3286439  45.8589379 117.6529264
  72.3133487  44.5606369 118.4314220  69.9302217  51.3705209 114.7255113
  70.2062061  51.2561804 115.6348987  69.0606716  50.9722694 114.6867286
  62.4539584  40.3255006 113.8604779  63.1747946  40.7036258 113.3568496
  61.8304888  41.0443882 113.9639757  66.5970707  41.0300155 114.7963111
  66.8134321  41.9124793 114.4951940  66.1164774  40.6386368 114.0668753
  57.0438226  53.5426537 119.2362069  57.8696246  53.2430309 118.8560712
  56.6932278  52.7734160 119.6851857  61.5733266  51.4456929 114.7818203
  61.7221386  52.1292393 114.1284876  62.3799709  51.4262019 115.2967659
  59.3285899  47.4722106 115.7879272  59.0831941  46.5684436 115.9859482
  59.4981813  47.4739257 114.8458750  58.5981546  43.2050464 113.2865433
  57.9050791  43.2794819 112.6305469  58.3533298  42.4410808 113.8086950
  65.0728671  53.9405059 112.2529950  64.5002638  54.5595246 111.8000422
  65.6461465  54.4904421 112.7869872  68.2925931  54.2242209 113.3838533
  69.2256604  54.1587771 113.5871408  68.2049144  55.0598476 112.9253065
  70.9213948  53.5408080 110.3442480  70.8427579  53.2067943 111.2378238
  71.7423615  54.0329848 110.3433952  65.4575470  45.2765872 109.5946003
  66.4034575  45.1472080 109.6634421  65.0789715  44.5380534 110.0715431
  63.6418387  43.2015848 109.5300888  62.7349842  42.9048961 109.6063602
  63.9194368  42.9045666 108.6635174  62.4117172  40.0602784 109.6712867
  63.2736336  40.3857682 109.9308685  62.5967516  39.2734280 109.1585933
  70.5649808  38.9331310 116.8148090  69.9848477  39.5916114 116.4326143
  70.2985741  38.1108655 116.4035508  69.3474686  41.0931400 115.8704438
  68.4600541  41.3781051 115.6524633  69.7628675  40.9325164 115.0231715
  68.4917900  50.8576075 109.9652458  69.1953750  51.0626078 110.5810114
  67.7680548  51.4252837 110.2301542  69.3215710  46.6085936 116.0854729
  69.2650911  47.0654488 115.2462361  69.8744052  45.8476621 115.9077571
  73.1320516  42.3975668 116.9104848  72.8757450  41.9972304 117.7413056
  72.5073384  43.1119462 116.7854987  70.4004597  51.2958604 112.0150919
  71.2350201  50.8639803 111.8328393  70.2388940  51.1240618 112.9427813
  70.0550489  47.7990718 113.3807258  69.9999293  47.6334989 112.4395702
  69.4296545  48.5066751 113.5369448  63.3646615  37.2998827 112.9592576
  63.3525285  38.2440667 113.1160847  64.2570037  37.1168972 112.6652037
  71.7356833  57.5943379 109.7283778  70.8586299  57.4732180 109.3646025
  72.2114586  56.8029457 109.4762667  74.4812142  58.5307766 109.5300888
  73.5743597  58.2340879 109.6063602  74.7588123  58.2337584 108.6635174
  73.2510926  55.3894701 109.6712867  74.1130090  55.7149600 109.9308685
  73.4361270  54.6026197 109.1585933  56.1763309  17.9328029  98.7960340
  55.5025008  18.2359726  99.4045298  56.5629131  18.7357109  98.4465797
  60.0820195  15.2178285  97.0687787  60.0033826  14.8838148  97.9623545
  60.9029861  15.7100053  97.0679259  57.6524146  12.5346280  96.6897765
  58.3559997  12.7396283  97.3055421  56.9286795  13.1023042  96.9546849
  60.8571641  25.2961365 104.7609818  60.2936506  25.2051302 103.9926105
  60.7424036  24.4761269 105.2412310  66.4371200  28.9632333 100.0724282
  65.7859179  29.5486413  99.6858296  67.2315562  29.4938528 100.1319320
  60.3626827  26.0521470 100.4711417  61.1357703  25.5050457 100.3324293
  60.7152226  26.9165719 100.6825878  62.6993105  22.2114136  98.1029867
  62.9518625  21.6895657  97.3413330  61.7617664  22.0480281  98.2056550
  67.7436387  21.2149914 105.9104610  68.5299477  20.7969337 105.5595027
  68.0075092  22.1196006 106.0786258  67.9146465  26.6522765 100.6093267
  67.2792298  26.7257391 101.3214171  67.5843871  27.2416363  99.9312346
  73.1444815  21.1525147 106.8137588  73.8769986  20.5824364 107.0475418
  72.3884170  20.7646748 107.2544094  62.4189393  24.1142242 100.3054242
  62.3025651  23.4387145 100.9735326  62.5291653  23.6274616  99.4886395
  64.7620934  23.5752389 104.0100931  64.3979141  23.0483010 104.7213852
  65.6188050  23.1850858 103.8367416  64.4026421  18.6042289  99.0062279
  64.5700824  19.4722525  99.3732750  64.2123590  18.7669570  98.0823569
  64.3815642  21.0599946  99.9908946  64.2615267  21.5056997 100.8294427
  63.6868230  21.4085264  99.4322484  62.1422534  33.8303588 103.6399077
  62.0646564  34.7811413 103.7187558  61.5384178  33.4849460 104.2974004
  70.0800708  21.5321419 100.8189280  70.9918564  21.7648806 100.6436978
  69.5710355  22.1158464 100.2564359  68.6870291  26.5147238 108.2102862
  68.0579153  26.6792952 107.5078930  68.2995953  26.9288847 108.9813826
  72.5659522  27.4501676 105.5647226  71.8810561  27.8300577 105.0144259
  72.6503372  28.0597002 106.2979173  64.2398252  26.2521646 105.4752947
  64.7036598  26.5309349 104.6857569  63.9755051  25.3505090 105.2926038
  63.1767139  22.3744798 102.2842512  63.8791182  22.8265842 102.7516438
  62.8447767  21.7328617 102.9122405  70.9356282  27.9733590 110.3364926
  71.7573726  27.5713777 110.0547608  70.9318685  27.8701824 111.2881042
  64.4160903  29.1885741 102.3604617  64.2806578  30.0337277 102.7889465
  64.9570716  29.3905018 101.5970551  57.8690301  26.7061179 102.9332542
  58.3814821  27.5004429 103.0838107  58.5213013  26.0087469 102.8666144
  59.6785185  29.8226935 105.0155295  59.8551814  30.7444900 104.8276279
  60.4742019  29.5085354 105.4449675  67.7303649  22.7024914  99.3975946
  67.2150273  23.4729518  99.6364333  67.4580958  22.0290050 100.0209007
  72.7037924  25.4557268 101.3329119  71.9267366  25.1168428 100.8884281
  73.3829405  25.4609892 100.6584084  67.5189953  20.5752006 101.2235727
  67.2140088  20.8898155 102.0745870  68.4720395  20.6533426 101.2663060
  65.9636384  26.7342229 102.8728681  65.4357746  25.9994989 102.5601918
  65.4623887  27.5116906 102.6268649  70.9429230  24.9291250 107.9895727
  70.2852905  25.6190511 108.0775856  71.7469630  25.3187682 108.3329714
  69.7534689  23.2835622 106.0399669  70.2666571  23.9165614 106.5421379
  70.4035913  22.6836818 105.6743029  61.0224699  19.4266357  99.2531178
  60.1862011  19.7641043  99.5740452  60.8829469  19.2915336  98.3158315
  64.1088985  24.5522439  95.8763654  63.2016046  24.3211693  96.0754803
  64.6060017  23.7560059  96.0637636  67.0157063  33.2619947  98.7960340
  66.3418762  33.5651643  99.4045298  67.4022885  34.0649027  98.4465797
  67.0150568  22.1576494 103.4160690  67.7622387  22.6697891 103.1067812
  67.2842157  21.8360546 104.2765083  65.2877218  24.6535034 100.3987644
  64.3788437  24.3694067 100.4960114  65.3172302  25.0734113  99.5390951
  70.5196485  28.2641624 104.1678812  70.0658813  27.4232534 104.2244002
  69.8890452  28.9003022 104.5053592  69.4629405  19.1933610 105.3979479
  68.7252162  18.6810996 105.7289722  69.7156179  18.7533992 104.5862756
  68.9629425  30.1018121 105.1028630  69.2552399  30.6623178 104.3840995
  69.4728045  30.3946682 105.8581789  64.9853306  26.1943778  97.7375723
  64.5472736  25.4779637  97.2781360  65.7263747  26.4219893  97.1760814
  63.9263050  30.8798472 106.1922083  63.8839229  31.1059318 105.2630615
  64.8425749  30.6461846 106.3407884  73.1026421  24.4700975 103.7952041
  72.9644319  24.6602571 102.8673230  72.7462639  25.2320358 104.2520092
  73.1295800  26.5377502 108.8063313  73.5632307  26.4452791 109.6546367
  73.8427381  26.5135003 108.1683329  62.0428851  27.7561501 105.9884046
  62.8369449  27.2611821 105.7866621  61.3320543  27.2279364 105.6251751
  66.8623695  30.1379596 110.3396413  66.9160717  30.7070533 111.1074129
  65.9938477  30.3081481 109.9750450  58.3511614  21.9004582 102.0643798
  57.4209202  21.8389038 102.2813761  58.4469086  21.3780535 101.2680440
  65.2148279  33.4299619 101.0107419  65.3900034  32.9587662 101.8253042
  64.5281067  34.0565385 101.2388680  66.1705342  27.7072125 107.0570721
  65.8355174  27.6672895 107.9528370  65.6709287  27.0416841 106.5841131
  69.1064533  25.0528160  97.3307780  68.4893704  24.3274988  97.2340833
  68.6381022  25.8137520  96.9874855  59.7809364  36.5788982 107.7847280
  60.0205962  37.2107506 108.4626298  58.9378560  36.2277022 108.0712639
  60.8963079  19.2713584  96.4529085  60.0192546  19.1502385  96.0891331
  61.3720832  18.4799662  96.2007973  64.2937226  32.3868104 110.1888783
  64.2207397  33.1923076 110.7008088  63.8514619  32.5860070 109.3636805
  64.0827005  31.6239874 103.6991605  63.2994527  32.1661555 103.7929830
  64.7819751  32.1413854 104.0985846  66.7535909  32.2854938 112.3446942
  67.4663882  32.9202403 112.2722844  66.2625938  32.3818804 111.5286944
  68.4753436  26.1906191 103.9164234  67.5409715  26.3107653 103.7468938
  68.6530105  25.2878658 103.6524244  71.8625988  22.0323510 104.4514268
  72.3286440  22.8651502 104.3774571  72.3133488  21.5668492 105.1559526
  69.9302219  28.3767332 101.4500420  70.2062063  28.2623926 102.3594294
  69.0606717  27.9784816 101.4112593  66.5656283  32.6253682 105.0933234
  66.7478677  31.8075338 105.5560986  67.3889269  32.8421375 104.6558124
  66.8998448  31.5521868 102.3548282  67.4286215  31.0414322 101.7418444
  67.1626668  31.2364398 103.2193815  60.2554196  32.6036984 105.1146058
  59.5864571  33.0883112 104.6310098  60.1167066  32.8506205 106.0289437
  64.3959465  34.6380728 111.7128716  64.9477773  34.8012349 112.4777802
  64.7365658  35.2285166 111.0408741  67.5327852  32.5862703 108.6992399
  67.4078991  31.7852443 108.1903344  68.1906943  33.0808897 108.2106369
  69.5962760  30.3871723 110.3271949  68.6493096  30.2677075 110.2550275
  69.9445533  29.4994221 110.4098210  66.6009194  30.1824440 106.5276301
  66.4534156  29.2541147 106.7083871  67.4262687  30.2044530 106.0433376
  70.2043316  31.0052998 107.6141174  71.1289863  30.7995860 107.4765625
  70.0358619  30.7569399 108.5230515  62.4539585  17.3317128 100.5850086
  63.1747948  17.7098381 100.0813803  61.8304889  18.0506005 100.6885064
  66.5970708  18.0362277 101.5208418  66.8134322  18.9186915 101.2197246
  66.1164775  17.6448491 100.7914060  69.9938632  31.5238666 102.9703265
  70.1675509  30.9585088 102.2177118  70.4867523  32.3239561 102.7882755
  75.8478023  24.2875089 104.5893565  76.2909169  23.5382414 104.1912688
  74.9704533  24.2785225 104.2067297  70.9813804  30.8405430 100.0700163
  71.6764709  31.4612123 100.2887478  71.3236954  29.9900781 100.3452541
  72.8805227  28.2905136 101.5987494  73.4056551  28.6292408 100.8736814
  72.7927580  27.3552151 101.4150629  64.5645888  34.3577119 105.9582747
  64.1250878  33.8653498 106.6515604  65.3154005  33.8150087 105.7174823
  57.0438227  30.5488660 105.9607375  57.8696247  30.2492432 105.5806019
  56.6932279  29.7796282 106.4097164  62.0119760  29.9015128 108.0305049
  61.3899770  29.2385833 107.7307277  62.6824627  29.9276260 107.3478697
  61.5733267  28.4519051 101.5063510  61.7221388  29.1354516 100.8530182
  62.3799711  28.4324141 102.0212965  75.3910888  25.7580327 106.9816012
  76.2257779  26.1970131 107.1453573  75.5270016  25.2818980 106.1624258
  59.3285900  24.4784229 102.5124578  59.0831942  23.5746559 102.7104789
  59.4981815  24.4801380 101.5704056  58.5981548  20.2112587 100.0110740
  57.9050793  20.2856942  99.3550776  58.3533300  19.4472930 100.5332257
  65.0728673  30.9467182  98.9775257  64.5002640  31.5657369  98.5245729
  65.6461466  31.4966544  99.5115179  68.2925932  31.2304332 100.1083839
  69.2256606  31.1649894 100.3116715  68.2049145  32.0660599  99.6498372
  70.9213949  30.5470202  97.0687787  70.8427581  30.2130066  97.9623545
  71.7423616  31.0391970  97.0679259  65.4575471  22.2827995  96.3191309
  66.4034576  22.1534203  96.3879727  65.0789716  21.5442657  96.7960738
  63.6418388  20.2077971  96.2546195  62.7349844  19.9111084  96.3308908
  63.9194369  19.9107789  95.3880481  62.4117173  17.0664906  96.3958174
  63.2736337  17.3919805  96.6553991  62.5967517  16.2796402  95.8831240
  70.5649809  15.9393433 103.5393397  69.9848478  16.5978237 103.1571449
  70.2985742  15.1170777 103.1280814  69.3474687  18.0993523 102.5949745
  68.4600542  18.3843174 102.3769940  69.7628677  17.9387286 101.7477022
  57.3558938  32.6801274 107.6821190  57.2213406  31.9201675 107.1159188
  56.9391000  33.4042174 107.2149979  68.4917901  27.8638198  96.6897765
  69.1953751  28.0688200  97.3055421  67.7680550  28.4314960  96.9546849
  69.3215711  23.6148059 102.8100035  69.2650913  24.0716610 101.9707668
  69.8744054  22.8538744 102.6322878  73.1320517  19.4037791 103.6350155
  72.8757451  19.0034427 104.4658362  72.5073385  20.1181585 103.5100294
  60.5128064  33.5770591 107.8939632  60.3960448  34.5216024 107.7918323
  59.6920510  33.2744153 108.2825432  70.4004598  28.3020727  98.7396225
  71.2350202  27.8701925  98.5573700  70.2388941  28.1302741  99.6673120
  70.0550490  24.8052840 100.1052564  69.9999294  24.6397112  99.1641009
  69.4296546  25.5128873 100.2614754  63.3646616  14.3060949  99.6837883
  63.3525286  15.2502789  99.8406154  64.2570038  14.1231095  99.3897344
  61.5382578  34.2298853 111.1095561  62.4409825  34.2622463 111.4262056
  61.3119948  33.2999304 111.1241897  63.2936180  32.9829840 107.7705640
  62.3431811  32.9831701 107.6570012  63.5968666  32.2362574 107.2541674
  79.0288873  38.8190378 108.8351402  79.6667283  38.6997125 108.1314742
  78.9109716  39.7671222 108.8939354  75.8378580  38.7717806 108.7712927
  75.4997091  38.6558871 107.8833461  76.7068348  38.3708971 108.7513933
  71.6965395  40.6253283 104.7609818  71.1330261  40.5343220 103.9926105
  71.5817790  39.8053187 105.2412310  76.3198363  39.9252658 114.7299132
  76.3087003  39.5305456 113.8579636  76.4819002  39.1918731 115.3232904
  69.2429827  42.1204474 107.5994038  70.0351119  41.7795299 107.1840337
  69.4826477  42.2299449 108.5196191  77.2764954  44.2924250 100.0724282
  76.6252934  44.8778331  99.6858296  78.0709317  44.8230445 100.1319320
  71.2020581  41.3813387 100.4711417  71.9751457  40.8342375 100.3324293
  71.5545980  42.2457637 100.6825878  73.0405624  42.7089770 113.6778316
  72.7495490  43.6135401 113.5624982  73.6762608  42.7506297 114.3922386
  73.9661831  40.0866618 110.2679676  74.5625403  39.8622641 109.5536639
  74.0236802  39.3451364 110.8705124  73.5386859  37.5406054  98.1029867
  73.7912380  37.0187575  97.3413330  72.6011418  37.3772199  98.2056550
  78.5830142  36.5441832 105.9104610  79.3693231  36.1261255 105.5595027
  78.8468846  37.4487924 106.0786258  78.7540219  41.9814682 100.6093267
  78.1186052  42.0549309 101.3214171  78.4237626  42.5708281  99.9312346
  83.9838569  36.4817065 106.8137588  84.7163741  35.9116282 107.0475418
  83.2277925  36.0938666 107.2544094  73.2583148  39.4434160 100.3054242
  73.1419406  38.7679063 100.9735326  73.3685408  38.9566533  99.4886395
  75.6014689  38.9044307 104.0100931  75.2372896  38.3774928 104.7213852
  76.4581805  38.5142776 103.8367416  75.2420176  33.9334206  99.0062279
  75.4094578  34.8014443  99.3732750  75.0517345  34.0961488  98.0823569
  77.9995509  42.3951185 110.6728110  77.6996232  43.2976224 110.5643917
  77.6546568  42.1283368 111.5249263  71.4507990  38.8464982 106.7064814
  70.5258487  38.7141196 106.9142506  71.6992404  39.6259201 107.2034757
  81.3992653  34.9133725 108.3525547  80.4909530  34.8449134 108.0584308
  81.3480248  35.3905670 109.1807373  75.2209397  36.3891864  99.9908946
  75.1009022  36.8348915 100.8294427  74.5261985  36.7377181  99.4322484
  68.8116801  38.4898256 107.5408603  68.9409183  38.7432735 108.4548015
  68.1314253  39.0825964 107.2213258  72.9816289  49.1595506 103.6399077
  72.9040318  50.1103331 103.7187558  72.3777932  48.8141378 104.2974004
  80.9194463  36.8613337 100.8189280  81.8312319  37.0940724 100.6436978
  80.4104110  37.4450381 100.2564359  73.7279891  39.1408824 115.8578411
  74.4694575  39.6793868 115.5813235  73.0216876  39.7675113 116.0149963
  79.2035230  41.2837965 114.4550573  79.6118586  40.8420375 113.7105205
  78.4812492  40.7090592 114.7084766  75.5566300  36.2210572 111.8284130
  76.4027496  36.6449985 111.9718779  75.4964938  35.5644196 112.5222693
  79.5264045  41.8439155 108.2102862  78.8972908  42.0084870 107.5078930
  79.1389707  42.2580765 108.9813826  83.4053277  42.7793593 105.5647226
  82.7204315  43.1592495 105.0144259  83.4897126  43.3888920 106.2979173
  80.6604209  40.4253552 112.1642569  80.8721104  41.0685312 111.4876950
  80.6133957  39.5915869 111.6964499  78.2630438  33.0371373 109.0679141
  77.4014917  33.3352627 109.3595879  78.2892872  33.2541772 108.1360174
  75.0792007  41.5813564 105.4752947  75.5430352  41.8601267 104.6857569
  74.8148805  40.6797008 105.2926038  71.9716088  41.1285045 108.4132710
  72.5417445  41.5572313 107.7750195  72.5624200  40.8467630 109.1116896
  74.0160893  37.7036716 102.2842512  74.7184936  38.1557760 102.7516438
  73.6841521  37.0620535 102.9122405  72.4641255  36.2948473 116.6593721
  71.8339915  36.9764753 116.8929118  72.3577342  36.1831554 115.7146860
  67.7586227  35.9620269 107.5859646  66.9685281  36.2177797 107.1099756
  68.2497474  36.7768606 107.6911686  81.7750037  43.3025508 110.3364926
  82.5967480  42.9005695 110.0547608  81.7712439  43.1993742 111.2881042
  69.7100972  36.3264848 104.5443122  68.9132136  36.4383542 105.0626618
  69.4826565  36.6651500 103.6784013  75.5406640  42.8509551 112.4925637
  75.6051072  43.3129958 113.3283809  74.8317564  42.2206916 112.6207947
  66.0423930  36.2150759 110.0174636  66.2931968  37.0997769 110.2832212
  66.5783478  36.0355361 109.2449728  75.2554658  44.5177659 102.3604617
  75.1200332  45.3629194 102.7889465  75.7964470  44.7196936 101.5970551
  68.7084055  42.0353097 102.9332542  69.2208576  42.8296347 103.0838107
  69.3606768  41.3379387 102.8666144  70.5178940  45.1518853 105.0155295
  70.6945568  46.0736818 104.8276279  71.3135773  44.8377272 105.4449675
  69.8031296  37.1983485 114.8917459  69.6884811  36.2968742 115.1924558
  68.9475814  37.4447181 114.5402275  76.8823134  45.1401225 116.4904959
  76.4386988  44.3537604 116.1725864  77.5440348  45.3280376 115.8248850
  71.6410255  46.6697027 111.0165638  72.1917680  46.5414090 110.2442632
  70.8021731  46.9691916 110.6660531  78.9804372  45.4204025 114.5186361
  78.9622847  46.2412906 114.0266630  79.9024292  45.2958100 114.7436502
  75.4377426  42.9348154 115.3609869  75.9705763  42.1736443 115.1309177
  74.9091507  42.6421806 116.1034023  66.6732972  40.3641751 103.7092113
  67.5108194  40.7738759 103.4925821  66.8511239  39.4241193 103.6792307
  78.5697404  38.0316831  99.3975946  78.0544027  38.8021436  99.6364333
  78.2974712  37.3581968 100.0209007  76.1544515  32.8766532 104.4561184
  75.2986111  32.4873383 104.2766823  76.5671467  32.9558493 103.5960970
  77.6843662  30.4112876 108.8552744  77.1808457  30.3743011 108.0420549
  77.9774268  31.3205618 108.9149401  73.9286547  30.4951605 107.8618926
  74.7939544  30.2994414 107.5024815  73.9964056  30.2661957 108.7888282
  83.5431678  40.7849186 101.3329119  82.7661121  40.4460346 100.8884281
  84.2223159  40.7901809 100.6584084  78.3583707  35.9043924 101.2235727
  78.0533843  36.2190073 102.0745870  79.3114149  35.9825343 101.2663060
  76.8030139  42.0634147 102.8728681  76.2751500  41.3286906 102.5601918
  76.3017642  42.8408823 102.6268649  81.7822985  40.2583167 107.9895727
  81.1246659  40.9482429 108.0775856  82.5863384  40.6479599 108.3329714
  71.5348867  32.7253813 105.2335292  72.1092618  32.5028995 104.5008485
  72.1219849  32.7942508 105.9863894  80.5928444  38.6127540 106.0399669
  81.1060325  39.2457532 106.5421379  81.2429668  38.0128736 105.6743029
  71.8618454  34.7558274  99.2531178  71.0255766  35.0932961  99.5740452
  71.7223223  34.6207254  98.3158315  73.8371534  29.5995062 103.9610362
  73.1835947  29.2844079 103.3366977  73.7952008  28.9770803 104.6870185
  74.9482739  39.8814357  95.8763654  74.0409801  39.6503611  96.0754803
  75.4453771  39.0851976  96.0637636  77.8550818  48.5911864  98.7960340
  77.1812517  48.8943561  99.4045298  78.2416640  49.3940945  98.4465797
  77.0709275  36.0876996 108.2858010  76.1531836  36.3091943 108.1279698
  77.4869418  36.1623306 107.4269717  77.8544322  37.4868411 103.4160690
  78.6016141  37.9989809 103.1067812  78.1235912  37.1652464 104.2765083
  76.1270973  39.9826952 100.3987644  75.2182192  39.6985985 100.4960114
  76.1566056  40.4026031  99.5390951  81.3590240  43.5933542 104.1678812
  80.9052567  42.7524451 104.2244002  80.7284207  44.2294940 104.5053592
  80.3023160  34.5225528 105.3979479  79.5645916  34.0102914 105.7289722
  80.5549933  34.0825909 104.5862756  79.8023179  45.4310038 105.1028630
  80.0946154  45.9915095 104.3840995  80.3121800  45.7238599 105.8581789
  66.6959143  37.7032466 104.3802846  66.4983543  37.1101827 103.6553913
  66.1405807  37.3984676 105.0978785  74.6755867  37.5955573 106.4997439
  74.7304476  36.6429409 106.4239916  73.8647069  37.7515012 106.9838738
  75.8247060  41.5235696  97.7375723  75.3866490  40.8071555  97.2781360
  76.5657501  41.7511811  97.1760814  72.6148227  36.2132632 104.2587818
  71.8016092  36.5126803 104.6653010  73.1107221  35.8188321 104.9762301
  74.7656804  46.2090389 106.1922083  74.7232983  46.4351236 105.2630615
  75.6819503  45.9753764 106.3407884  83.9420175  39.7992893 103.7952041
  83.8038074  39.9894489 102.8673230  83.5856394  40.5612276 104.2520092
  72.1062301  33.7850988 109.8749053  72.7461681  33.6439747 109.1772017
  71.2739832  33.4985501 109.4987655  83.9689555  41.8669420 108.8063313
  84.4026061  41.7744709 109.6546367  84.6821135  41.8426920 108.1683329
  72.8822605  43.0853418 105.9884046  73.6763204  42.5903738 105.7866621
  72.1714298  42.5571281 105.6251751  77.7017450  45.4671514 110.3396413
  77.7554472  46.0362450 111.1074129  76.8332231  45.6373399 109.9750450
  69.1905369  37.2296500 102.0643798  68.2602957  37.1680956 102.2813761
  69.2862841  36.7072453 101.2680440  69.1090918  33.7551313 104.6522040
  69.3697735  34.6696646 104.5431201  69.9308090  33.2875755 104.8018653
  70.5815843  35.1689070 111.8220865  71.2538896  34.9606432 111.1733514
  69.7545630  34.9711156 111.3826097  76.6605549  39.6331776 111.8983345
  77.5897609  39.7842936 111.7252313  76.2396579  39.7215797 111.0431992
  75.4593881  43.6582440 109.6681883  75.3204967  43.2901225 110.5407821
  74.6708477  44.1730080 109.4965841  76.0542033  48.7591537 101.0107419
  76.2293789  48.2879580 101.8253042  75.3674821  49.3857303 101.2388680
  77.0099096  43.0364043 107.0570721  76.6748929  42.9964813 107.9528370
  76.5103042  42.3708759 106.5841131  70.9843340  38.4431673 112.5823302
  70.8463138  37.7111912 113.1834841  71.8948264  38.3540573 112.3007490
  79.9458288  40.3820077  97.3307780  79.3287459  39.6566906  97.2340833
  79.4774776  41.1429438  96.9874855  73.6125641  38.1551632 112.0706981
  74.3225259  37.5144825 112.0293600  73.5694949  38.4064527 112.9933162
  72.3254575  35.1416850 113.8902621  71.7891932  34.6907589 114.5424217
  71.7371283  35.2762759 113.1473085  70.6203118  51.9080900 107.7847280
  70.8599717  52.5399424 108.4626298  69.7772315  51.5568940 108.0712639
  71.7356834  34.6005502  96.4529085  70.8586300  34.4794302  96.0891331
  72.2114587  33.8091580  96.2007973  63.2558974  39.3882661 106.5470592
  63.9430014  39.0744391 105.9591607  63.1007103  40.2924026 106.2737843
  68.0593696  34.2772858 110.9755615  67.9751885  33.6698528 110.2406025
  67.2376403  34.7681876 110.9765112  75.1330980  47.7160022 110.1888783
  75.0601152  48.5214993 110.7008088  74.6908373  47.9151988 109.3636805
  74.9220760  46.9531792 103.6991605  74.1388282  47.4953472 103.7929830
  75.6213505  47.4705772 104.0985846  78.2317410  32.7626421 106.3425810
  78.7286110  32.0096384 106.0226881  77.4604392  32.7990738 105.7769020
  77.5929664  47.6146856 112.3446942  78.3057636  48.2494321 112.2722844
  77.1019692  47.7110722 111.5286944  79.3147191  41.5198109 103.9164234
  78.3803469  41.6399571 103.7468938  79.4923859  40.6170575 103.6524244
  74.8152379  34.9043804 106.0697495  74.4450166  34.3514845 106.7578401
  75.3111471  34.3001938 105.5172495  82.7019742  37.3615428 104.4514268
  83.1680194  38.1943420 104.3774571  83.1527243  36.8960410 105.1559526
  72.6441577  45.3641299 113.1652513  73.3451037  45.9977782 113.3181907
  72.1736692  45.7056031 112.4048152  80.7695973  43.7059249 101.4500420
  81.0455817  43.5915844 102.3594294  79.9000472  43.3076734 101.4112593
  80.4442863  37.9185907 110.9905063  79.7914314  38.1661814 110.3357516
  80.8223243  37.1050045 110.6567541  77.4050037  47.9545600 105.0933234
  77.5872432  47.1367256 105.5560986  78.2283023  48.1713292 104.6558124
  77.7392203  46.8813785 102.3548282  78.2679969  46.3706240 101.7418444
  78.0020422  46.5656315 103.2193815  68.2409295  44.8977655 110.0983616
  68.8262732  44.1521342 110.2311520  68.0434134  45.2081611 110.9820280
  71.0947951  47.9328902 105.1146058  70.4258326  48.4175030 104.6310098
  70.9560820  48.1798122 106.0289437  62.8326950  37.4683255 108.8188059
  62.8711050  36.9346845 109.6125177  62.3267243  36.9418460 108.1999036
  75.2353219  49.9672645 111.7128716  75.7871527  50.1304267 112.4777802
  75.5759413  50.5577083 111.0408741  70.2117712  32.3147795 112.3150601
  70.2759039  33.1762626 111.9027999  70.1484833  31.7021797 111.5822960
  66.4635528  36.1947357 101.8941990  66.7588969  35.2858035 101.8409044
  65.5623563  36.1735096 101.5722993  78.3721606  47.9154621 108.6992399
  78.2472746  47.1144361 108.1903344  79.0300698  48.4100814 108.2106369
  69.9929775  34.2703353 107.8769539  69.2716360  34.8839321 107.7377012
  70.7823030  34.8061118 107.7986185  80.4356515  45.7163641 110.3271949
  79.4886850  45.5968992 110.2550275  80.7839288  44.8286139 110.4098210
  68.1923369  33.8761455 102.0181315  67.8636075  32.9958833 101.8356421
  68.5462740  33.8209123 102.9057705  77.4402948  45.5116357 106.5276301
  77.2927911  44.5833065 106.7083871  78.2656442  45.5336448 106.0433376
  71.3065192  34.1634424 102.3856793  71.6461265  34.6920346 101.6635401
  71.7537313  34.5014830 103.1615360  81.0437070  46.3344916 107.6141174
  81.9683617  46.1287777 107.4765625  80.8752373  46.0861317 108.5230515
  74.0008633  32.5471475 111.8359861  73.6605454  31.7479288 112.2380541
  73.2947640  32.8473186 111.2636694  74.6525105  29.6320787 110.2887184
  75.4751174  29.1581266 110.1666074  74.8963169  30.4111271 110.7885870
  73.2933340  32.6609046 100.5850086  74.0141702  33.0390299 100.0813803
  72.6698644  33.3797923 100.6885064  77.4364462  33.3654195 101.5208418
  77.6528077  34.2478833 101.2197246  76.9558530  32.9740408 100.7914060
  72.1763684  36.3239908 108.0979163  72.0308265  36.6380211 108.9903444
  71.6988887  36.9424808 107.5450061  74.0360067  33.3142456 108.1460052
  74.0221635  32.4183549 107.8092350  74.7532495  33.3213120 108.7798338
  75.8886197  33.7479796 110.1913180  75.6303975  34.6696867 110.1897510
  75.3571238  33.3510231 110.8813644  80.8332386  46.8530583 102.9703265
  81.0069264  46.2877006 102.2177118  81.3261277  47.6531478 102.7882755
  66.6509346  38.8645253 111.0366824  66.1062814  39.6405061 111.1687098
  67.5288696  39.2116057 110.8785945  73.4396963  32.1956836 103.4147622
  73.5612874  31.2673483 103.6138510  73.1499005  32.2095522 102.5025938
  76.3088153  29.8811747 106.5514342  76.3309850  29.9451080 105.5966322
  76.7256212  29.0416255 106.7454848  86.6871777  39.6167006 104.5893565
  87.1302923  38.8674332 104.1912688  85.8098288  39.6077143 104.2067297
  81.8207559  46.1697348 100.0700163  82.5158463  46.7904041 100.2887478
  82.1630709  45.3192699 100.3452541  67.4375368  37.9915149 113.9296981
  66.6957104  38.1397784 114.5161611  67.1168112  38.2523414 113.0663730
  83.7198982  43.6197053 101.5987494  84.2450306  43.9584326 100.8736814
  83.6321334  42.6844069 101.4150629  75.3819031  47.5331127 113.7277371
  75.6906157  47.2880274 114.6000070  76.1794513  47.7377765 113.2396241
  75.4039643  49.6869037 105.9582747  74.9644633  49.1945415 106.6515604
  76.1547760  49.1442004 105.7174823  67.8831982  45.8780578 105.9607375
  68.7090001  45.5784349 105.5806019  67.5326034  45.1088200 106.4097164
  72.8513515  45.2307046 108.0305049  72.2293524  44.5677751 107.7307277
  73.5218382  45.2568178 107.3478697  66.0840587  43.7966904 106.9196309
  65.2472495  43.3689078 106.7380310  66.0564232  43.9899347 107.8567100
  72.4127022  43.7810969 101.5063510  72.5615142  44.4646433 100.8530182
  73.2193465  43.7616059 102.0212965  86.2304642  41.0872245 106.9816012
  87.0651533  41.5262049 107.1453573  86.3663771  40.6110898 106.1624258
  70.1679655  39.8076147 102.5124578  69.9225697  38.9038477 102.7104789
  70.3375569  39.8093297 101.5704056  69.4375302  35.5404504 100.0110740
  68.7444547  35.6148859  99.3550776  69.1927054  34.7764848 100.5332257
  75.9122427  46.2759100  98.9775257  75.3396394  46.8949287  98.5245729
  76.4855221  46.8258461  99.5115179  79.1319687  46.5596250 100.1083839
  80.0650360  46.4941811 100.3116715  79.0442900  47.3952517  99.6498372
  81.7607704  45.8762120  97.0687787  81.6821335  45.5421984  97.9623545
  82.5817370  46.3683888  97.0679259  76.2969226  37.6119912  96.3191309
  77.2428330  37.4826120  96.3879727  75.9183471  36.8734574  96.7960738
  74.4812143  35.5369889  96.2546195  73.5743598  35.2403001  96.3308908
  74.7588124  35.2399707  95.3880481  65.3990083  36.8576252 106.7045241
  65.0792868  36.0041560 106.4119615  64.8523511  37.0724830 107.4603208
  69.1769991  39.5738693 110.4214748  69.3956001  40.5055801 110.4402781
  69.5895765  39.2146667 111.2069551  76.0974209  30.0806778 102.4090436
  75.2874937  29.7353863 102.7845682  76.7858625  29.7714322 102.9978048
  78.0264757  29.1584825 104.0314733  78.5795795  29.5780279 104.6904756
  78.2634843  28.2320573 104.0737689  73.2510927  32.3956824  96.3958174
  74.1130091  32.7211722  96.6553991  73.4361272  31.6088320  95.8831240
  65.2678343  40.4779164 108.6738363  64.5741815  40.0633116 108.1608317
  66.0151334  40.5199700 108.0771782  81.4043564  31.2685350 103.5393397
  80.8242233  31.9270154 103.1571449  81.1379497  30.4462695 103.1280814
  79.8547130  30.6690408 105.7414717  80.3546909  30.7806943 104.9329036
  80.4982738  30.3651461 106.3815526  67.1815086  40.4097417 106.5504378
  67.1585774  40.5085105 105.5986261  67.4915722  41.2562568 106.8721544
  69.8402464  42.4673572 110.6650992  70.7945717  42.4357515 110.5980924
  69.6414987  42.0064196 111.4801218  70.4301846  41.0374688 113.2321790
  71.2494735  41.5318767 113.2556627  70.7038653  40.1206657 113.2039357
  80.1868442  33.4285441 102.5949745  79.2994297  33.7135091 102.3769940
  80.6022431  33.2679204 101.7477022  68.1952692  48.0093192 107.6821190
  68.0607160  47.2493593 107.1159188  67.7784755  48.7334092 107.2149979
  79.3311655  43.1930115  96.6897765  80.0347506  43.3980118  97.3055421
  78.6074304  43.7606877  96.9546849  80.1609466  38.9439977 102.8100035
  80.1044667  39.4008528 101.9707668  80.7137808  38.1830661 102.6322878
  83.9714272  34.7329709 103.6350155  83.7151206  34.3326344 104.4658362
  83.3467140  35.4473502 103.5100294  71.3521818  48.9062509 107.8939632
  71.2354202  49.8507941 107.7918323  70.5314265  48.6036070 108.2825432
  81.2398353  43.6312645  98.7396225  82.0743957  43.1993843  98.5573700
  81.0782696  43.4594658  99.6673120  80.8944245  40.1344758 100.1052564
  80.8393049  39.9689029  99.1641009  80.2690300  40.8420791 100.2614754
  74.2040370  29.6352867  99.6837883  74.1919040  30.5794707  99.8406154
  75.0963792  29.4523012  99.3897344  72.3776332  49.5590771 111.1095561
  73.2803579  49.5914381 111.4262056  72.1513702  48.6291222 111.1241897
  74.1329934  48.3121757 107.7705640  73.1825565  48.3123619 107.6570012
  74.4362421  47.5654492 107.2541674  78.0192490  26.2295644 103.9383820
  77.2524886  25.6754130 104.0840502  78.4303195  26.3017512 104.7997971
  82.5359150  55.9545200 104.7609818  81.9724015  55.8635137 103.9926105
  82.4211545  55.1345105 105.2412310  88.1158709  59.6216168 100.0724282
  87.4646688  60.2070248  99.6858296  88.9103071  60.1522363 100.1319320
  82.0414336  56.7105305 100.4711417  82.8145212  56.1634292 100.3324293
  82.3939735  57.5749554 100.6825878  84.3780614  52.8697971  98.1029867
  84.6306134  52.3479492  97.3413330  83.4405173  52.7064117  98.2056550
  89.4223896  51.8733750 105.9104610  90.2086986  51.4553173 105.5595027
  89.6862601  52.7779842 106.0786258  89.5933974  57.3106600 100.6093267
  88.9579807  57.3841226 101.3214171  89.2631380  57.9000199  99.9312346
  84.0976902  54.7726077 100.3054242  83.9813160  54.0970981 100.9735326
  84.2079162  54.2858451  99.4886395  86.4408443  54.2336224 104.0100931
  86.0766650  53.7066845 104.7213852  87.2975559  53.8434693 103.8367416
  86.0813930  49.2626124  99.0062279  86.2488333  50.1306360  99.3732750
  85.8911099  49.4253406  98.0823569  82.2901745  54.1756900 106.7064814
  81.3652241  54.0433114 106.9142506  82.5386158  54.9551119 107.2034757
  86.0603151  51.7183781  99.9908946  85.9402776  52.1640832 100.8294427
  85.3655739  52.0669099  99.4322484  79.6510556  53.8190173 107.5408603
  79.7802937  54.0724652 108.4548015  78.9708007  54.4117881 107.2213258
  91.7588217  52.1905255 100.8189280  92.6706073  52.4232641 100.6436978
  91.2497864  52.7742299 100.2564359  89.1024192  48.3663291 109.0679141
  88.2408671  48.6644544 109.3595879  89.1286627  48.5833690 108.1360174
  85.9185761  56.9105481 105.4752947  86.3824107  57.1893184 104.6857569
  85.6542560  56.0088926 105.2926038  84.8554647  53.0328634 102.2842512
  85.5578691  53.4849677 102.7516438  84.5235276  52.3912452 102.9122405
  78.5979981  51.2912186 107.5859646  77.8079035  51.5469715 107.1099756
  79.0891229  52.1060524 107.6911686  80.5494727  51.6556765 104.5443122
  79.7525890  51.7675460 105.0626618  80.3220319  51.9943418 103.6784013
  76.8817684  51.5442677 110.0174636  77.1325723  52.4289687 110.2832212
  77.4177233  51.3647278 109.2449728  86.0948412  59.8469576 102.3604617
  85.9594087  60.6921112 102.7889465  86.6358225  60.0488854 101.5970551
  79.5477809  57.3645014 102.9332542  80.0602330  58.1588264 103.0838107
  80.2000522  56.6671305 102.8666144  81.3572694  60.4810771 105.0155295
  81.5339323  61.4028735 104.8276279  82.1529528  60.1669190 105.4449675
  77.5126726  55.6933669 103.7092113  78.3501948  56.1030677 103.4925821
  77.6904994  54.7533111 103.6792307  89.4091158  53.3608749  99.3975946
  88.8937782  54.1313354  99.6364333  89.1368467  52.6873885 100.0209007
  86.9938269  48.2058450 104.4561184  86.1379866  47.8165300 104.2766823
  87.4065221  48.2850411 103.5960970  88.5237416  45.7404793 108.8552744
  88.0202212  45.7034928 108.0420549  88.8168023  46.6497536 108.9149401
  84.7680302  45.8243523 107.8618926  85.6333299  45.6286332 107.5024815
  84.8357811  45.5953875 108.7888282  94.3825433  56.1141104 101.3329119
  93.6054875  55.7752263 100.8884281  95.0616914  56.1193727 100.6584084
  89.1977462  51.2335841 101.2235727  88.8927597  51.5481990 102.0745870
  90.1507904  51.3117261 101.2663060  87.6423893  57.3926065 102.8728681
  87.1145255  56.6578824 102.5601918  87.1411396  58.1700741 102.6268649
  82.3742621  48.0545731 105.2335292  82.9486373  47.8320912 104.5008485
  82.9613603  48.1234425 105.9863894  82.7012208  50.0850192  99.2531178
  81.8649520  50.4224878  99.5740452  82.5616978  49.9499172  98.3158315
  84.6765289  44.9286980 103.9610362  84.0229701  44.6135997 103.3366977
  84.6345763  44.3062720 104.6870185  85.7876494  55.2106275  95.8763654
  84.8803555  54.9795528  96.0754803  86.2847526  54.4143894  96.0637636
  88.6944572  63.9203782  98.7960340  88.0206271  64.2235479  99.4045298
  89.0810394  64.7232862  98.4465797  87.9103029  51.4168913 108.2858010
  86.9925590  51.6383860 108.1279698  88.3263173  51.4915224 107.4269717
  88.6938077  52.8160329 103.4160690  89.4409896  53.3281726 103.1067812
  88.9629666  52.4944382 104.2765083  86.9664727  55.3118870 100.3987644
  86.0575946  55.0277903 100.4960114  86.9959811  55.7317948  99.5390951
  91.1416914  49.8517445 105.3979479  90.4039671  49.3394831 105.7289722
  91.3943688  49.4117827 104.5862756  77.5352897  53.0324384 104.3802846
  77.3377297  52.4393745 103.6553913  76.9799561  52.7276594 105.0978785
  85.5149621  52.9247490 106.4997439  85.5698231  51.9721327 106.4239916
  84.7040823  53.0806929 106.9838738  86.6640815  56.8527613  97.7375723
  86.2260245  56.1363472  97.2781360  87.4051256  57.0803728  97.1760814
  83.4541981  51.5424550 104.2587818  82.6409847  51.8418721 104.6653010
  83.9500975  51.1480239 104.9762301  82.9456056  49.1142906 109.8749053
  83.5855435  48.9731665 109.1772017  82.1133586  48.8277419 109.4987655
  83.7216360  58.4145336 105.9884046  84.5156958  57.9195656 105.7866621
  83.0108052  57.8863199 105.6251751  80.0299123  52.5588418 102.0643798
  79.0996711  52.4972873 102.2813761  80.1256595  52.0364371 101.2680440
  79.9484672  49.0843231 104.6522040  80.2091489  49.9988564 104.5431201
  80.7701844  48.6167673 104.8018653  90.7852042  55.7111995  97.3307780
  90.1681213  54.9858823  97.2340833  90.3168531  56.4721355  96.9874855
  82.5750588  49.9297419  96.4529085  81.6980055  49.8086220  96.0891331
  83.0508341  49.1383498  96.2007973  74.0952728  54.7174579 106.5470592
  74.7823768  54.4036309 105.9591607  73.9400857  55.6215944 106.2737843
  78.8987451  49.6064776 110.9755615  78.8145639  48.9990445 110.2406025
  78.0770157  50.0973794 110.9765112  89.0711165  48.0918339 106.3425810
  89.5679864  47.3388301 106.0226881  88.2998146  48.1282656 105.7769020
  90.1540945  56.8490026 103.9164234  89.2197224  56.9691489 103.7468938
  90.3317614  55.9462493 103.6524244  85.6546133  50.2335722 106.0697495
  85.2843921  49.6806763 106.7578401  86.1505226  49.6293856 105.5172495
  93.5413497  52.6907346 104.4514268  94.0073949  53.5235337 104.3774571
  93.9920997  52.2252327 105.1559526  91.6089728  59.0351167 101.4500420
  91.8849572  58.9207762 102.3594294  90.7394226  58.6368652 101.4112593
  73.6720705  52.7975172 108.8188059  73.7104804  52.2638763 109.6125177
  73.1660997  52.2710378 108.1999036  81.0511467  47.6439713 112.3150601
  81.1152793  48.5054544 111.9027999  80.9878587  47.0313715 111.5822960
  77.3029282  51.5239275 101.8941990  77.5982723  50.6149953 101.8409044
  76.4017318  51.5027014 101.5722993  80.8323529  49.5995271 107.8769539
  80.1110115  50.2131239 107.7377012  81.6216785  50.1353036 107.7986185
  79.0317124  49.2053372 102.0181315  78.7029830  48.3250751 101.8356421
  79.3856494  49.1501041 102.9057705  82.1458947  49.4926342 102.3856793
  82.4855019  50.0212263 101.6635401  82.5931067  49.8306748 103.1615360
  85.4918860  44.9612705 110.2887184  86.3144929  44.4873183 110.1666074
  85.7356923  45.7403189 110.7885870  84.1327094  47.9900964 100.5850086
  84.8535457  48.3682216 100.0813803  83.5092398  48.7089840 100.6885064
  88.2758217  48.6946113 101.5208418  88.4921831  49.5770750 101.2197246
  87.7952284  48.3032326 100.7914060  83.0157438  51.6531826 108.0979163
  82.8702019  51.9672129 108.9903444  82.5382642  52.2716726 107.5450061
  84.8753821  48.6434374 108.1460052  84.8615390  47.7475467 107.8092350
  85.5926249  48.6505038 108.7798338  84.2790717  47.5248754 103.4147622
  84.4006628  46.5965400 103.6138510  83.9892760  47.5387440 102.5025938
  87.1481908  45.2103665 106.5514342  87.1703604  45.2742998 105.5966322
  87.5649967  44.3708173 106.7454848  78.7225736  61.2072495 105.9607375
  79.5483756  60.9076267 105.5806019  78.3719788  60.4380118 106.4097164
  76.9234341  59.1258822 106.9196309  76.0866249  58.6980996 106.7380310
  76.8957987  59.3191265 107.8567100  83.2520776  59.1102887 101.5063510
  83.4008896  59.7938351 100.8530182  84.0587220  59.0907977 102.0212965
  81.0073409  55.1368064 102.5124578  80.7619451  54.2330394 102.7104789
  81.1769324  55.1385215 101.5704056  80.2769057  50.8696422 100.0110740
  79.5838302  50.9440777  99.3550776  80.0320809  50.1056766 100.5332257
  86.7516182  61.6051017  98.9775257  86.1790149  62.2241204  98.5245729
  87.3248975  62.1550379  99.5115179  89.9713441  61.8888167 100.1083839
  90.9044115  61.8233729 100.3116715  89.8836654  62.7244434  99.6498372
  92.6001458  61.2054038  97.0687787  92.5215090  60.8713901  97.9623545
  93.4211125  61.6975806  97.0679259  87.1362980  52.9411830  96.3191309
  88.0822085  52.8118038  96.3879727  86.7577225  52.2026492  96.7960738
  85.3205897  50.8661806  96.2546195  84.4137353  50.5694919  96.3308908
  85.5981878  50.5691624  95.3880481  76.2383838  52.1868170 106.7045241
  75.9186622  51.3333478 106.4119615  75.6917266  52.4016748 107.4603208
  86.9367963  45.4098696 102.4090436  86.1268691  45.0645781 102.7845682
  87.6252380  45.1006240 102.9978048  88.8658511  44.4876743 104.0314733
  89.4189550  44.9072196 104.6904756  89.1028598  43.5612491 104.0737689
  84.0904682  47.7248742  96.3958174  84.9523846  48.0503640  96.6553991
  84.2755026  46.9380237  95.8831240  76.1072098  55.8071081 108.6738363
  75.4135569  55.3925034 108.1608317  76.8545089  55.8491618 108.0771782
  92.2437318  46.5977268 103.5393397  91.6635987  47.2562072 103.1571449
  91.9773251  45.7754613 103.1280814  90.6940885  45.9982326 105.7414717
  91.1940663  46.1098860 104.9329036  91.3376493  45.6943379 106.3815526
  78.0208840  55.7389335 106.5504378  77.9979528  55.8377022 105.5986261
  78.3309477  56.5854486 106.8721544  91.0262196  48.7577358 102.5949745
  90.1388051  49.0427009 102.3769940  91.4416185  48.5971122 101.7477022
  90.1705410  58.5222033  96.6897765  90.8741260  58.7272036  97.3055421
  89.4468059  59.0898795  96.9546849  91.0003220  54.2731894 102.8100035
  90.9438422  54.7300446 101.9707668  91.5531563  53.5122579 102.6322878
  94.8108026  50.0621626 103.6350155  94.5544960  49.6618262 104.4658362
  94.1860894  50.7765420 103.5100294  92.0792107  58.9604562  98.7396225
  92.9137711  58.5285761  98.5573700  91.9176450  58.7886576  99.6673120
  91.7337999  55.4636676 100.1052564  91.6786803  55.2980947  99.1641009
  91.1084055  56.1712709 100.2614754  85.0434125  44.9644785  99.6837883
  85.0312795  45.9086625  99.8406154  85.9357547  44.7814930  99.3897344
  88.8586244  41.5587561 103.9383820  88.0918640  41.0046048 104.0840502
  89.2696949  41.6309430 104.7997971  93.4144343  65.2589337  96.4529085
  92.5373809  65.1378138  96.0891331  93.8902096  64.4675415  96.2007973
  96.1599652  66.1953724  96.2546195  95.2531107  65.8986837  96.3308908
  96.4375633  65.8983542  95.3880481  94.9298436  63.0540659  96.3958174
  95.7917600  63.3795558  96.6553991  95.1148781  62.2672155  95.8831240
  60.8571642   2.3023487  91.4855124  60.2936507   2.2113424  90.7171412
  60.7424037   1.4823392  91.9657617  66.4371201   5.9694455  86.7969589
  65.7859181   6.5548536  86.4103603  67.2315564   6.5000650  86.8564627
  60.3626828   3.0583592  87.1956723  61.1357704   2.5112579  87.0569599
  60.7152227   3.9227842  87.4071185  67.9146466   3.6584887  87.3338573
  67.2792299   3.7319514  88.0459478  67.5843872   4.2478486  86.6557653
  62.4189395   1.1204364  87.0299548  62.3025653   0.4449268  87.6980633
  62.5291654   0.6336738  86.2131701  62.1422535  10.8365710  90.3644384
  62.0646565  11.7873536  90.4432865  61.5384179  10.4911583  91.0219310
  68.6870292   3.5209360  94.9348168  68.0579154   3.6855074  94.2324236
  68.2995954   3.9350970  95.7059132  72.5659524   4.4563798  92.2892532
  71.8810562   4.8362700  91.7389565  72.6503373   5.0659125  93.0224480
  64.2398254   3.2583768  92.1998254  64.7036599   3.5371471  91.4102876
  63.9755052   2.3567213  92.0171344  70.9356283   4.9795713  97.0610233
  71.7573727   4.5775900  96.7792915  70.9318686   4.8763947  98.0126349
  64.4160904   6.1947863  89.0849924  64.2806579   7.0399399  89.5134772
  64.9570717   6.3967141  88.3215858  57.8690302   3.7123301  89.6577849
  58.3814822   4.5066552  89.8083414  58.5213015   3.0149592  89.5911450
  59.6785186   6.8289058  91.7400602  59.8551815   7.7507022  91.5521586
  60.4742020   6.5147477  92.1694982  65.9636386   3.7404352  89.5973988
  65.4357747   3.0057111  89.2847225  65.4623888   4.5179028  89.3513956
  64.1088986   1.5584562  82.6008961  63.2016048   1.3273816  82.8000110
  64.6060018   0.7622181  82.7882942  67.0157065  10.2682069  85.5205647
  66.3418764  10.5713766  86.1290605  67.4022887  11.0711150  85.1711104
  65.2877219   1.6597157  87.1232951  64.3788439   1.3756190  87.2205420
  65.3172303   2.0796236  86.2636258  70.5196487   5.2703746  90.8924118
  70.0658814   4.4294656  90.9489309  69.8890453   5.9065145  91.2298898
  68.9629426   7.1080243  91.8273936  69.2552400   7.6685300  91.1086302
  69.4728047   7.4008804  92.5827096  64.9853307   3.2005901  84.4621029
  64.5472737   2.4841760  84.0026667  65.7263748   3.4282015  83.9006121
  63.9263051   7.8860594  92.9167390  63.8839230   8.1121441  91.9875922
  64.8425750   7.6523969  93.0653191  62.0428852   4.7623623  92.7129352
  62.8369450   4.2673943  92.5111927  61.3320544   4.2341486  92.3497058
  66.8623696   7.1441719  97.0641720  66.9160719   7.7132655  97.8319436
  65.9938478   7.3143604  96.6995757  65.2148280  10.4361742  87.7352726
  65.3900036   9.9649785  88.5498349  64.5281068  11.0627508  87.9633987
  66.1705343   4.7134248  93.7816027  65.8355176   4.6735018  94.6773677
  65.6709289   4.0478964  93.3086437  59.7809365  13.5851104  94.5092586
  60.0205963  14.2169629  95.1871605  58.9378562  13.2339144  94.7957945
  64.2937227   9.3930227  96.9134090  64.2207399  10.1985198  97.4253395
  63.8514620   9.5922193  96.0882112  64.0827007   8.6301997  90.4236912
  63.2994529   9.1723677  90.5175136  64.7819752   9.1475977  90.8231153
  66.7535911   9.2917061  99.0692249  67.4663883   9.9264526  98.9968150
  66.2625939   9.3880927  98.2532251  68.4753437   3.1968314  90.6409540
  67.5409716   3.3169776  90.4714245  68.6530106   2.2940780  90.3769550
  69.9302220   5.3829454  88.1745727  70.2062064   5.2686049  89.0839601
  69.0606719   4.9846939  88.1357900  66.5656284   9.6315805  91.8178540
  66.7478678   8.8137461  92.2806293  67.3889270   9.8483497  91.3803430
  66.8998449   8.5583990  89.0793589  67.4286216   8.0476445  88.4663751
  67.1626669   8.2426520  89.9439122  60.2554197   9.6099107  91.8391365
  59.5864573  10.0945234  91.3555405  60.1167067   9.8568327  92.7534743
  64.3959466  11.6442850  98.4374023  64.9477774  11.8074472  99.2023108
  64.7365659  12.2347288  97.7654048  67.5327853   9.5924826  95.4237705
  67.4078993   8.7914566  94.9148651  68.1906944  10.0871019  94.9351675
  69.5962762   7.3933846  97.0517255  68.6493097   7.2739197  96.9795582
  69.9445535   6.5056344  97.1343517  66.6009195   7.1886562  93.2521608
  66.4534157   6.2603270  93.4329178  67.4262688   7.2106653  92.7678683
  70.2043317   8.0115121  94.3386480  71.1289864   7.8057982  94.2010931
  70.0358620   7.7631522  95.2475822  69.9938633   8.5300788  89.6948572
  70.1675511   7.9647211  88.9422424  70.4867524   9.3301683  89.5128062
  70.9813805   7.8467553  86.7945470  71.6764710   8.4674245  87.0132785
  71.3236956   6.9962904  87.0697848  72.8805229   5.2967258  88.3232801
  73.4056553   5.6354531  87.5982121  72.7927581   4.3614274  88.1395935
  64.5645889  11.3639242  92.6828054  64.1250880  10.8715620  93.3760911
  65.3154006  10.8212209  92.4420129  57.0438228   7.5550782  92.6852682
  57.8696248   7.2554554  92.3051326  56.6932280   6.7858405  93.1342471
  62.0119761   6.9077251  94.7550356  61.3899771   6.2447956  94.4552583
  62.6824628   6.9338383  94.0724003  61.5733268   5.4581174  88.2308816
  61.7221389   6.1416638  87.5775489  62.3799712   5.4386264  88.7458272
  59.3285901   1.4846352  89.2369885  59.0831943   0.5808682  89.4350095
  59.4981816   1.4863502  88.2949363  65.0728674   7.9529304  85.7020564
  64.5002641   8.5719492  85.2491035  65.6461468   8.5028666  86.2360486
  68.2925934   8.2366455  86.8329146  69.2256607   8.1712016  87.0362021
  68.2049147   9.0722721  86.3743679  70.9213950   7.5532325  83.7933093
  70.8427582   7.2192189  84.6868851  71.7423617   8.0454093  83.7924566
  57.3558939   9.6863397  94.4066496  57.2213407   8.9263798  93.8404495
  56.9391001  10.4104297  93.9395285  68.4917902   4.8700320  83.4143072
  69.1953752   5.0750323  84.0300727  67.7680551   5.4377082  83.6792155
  60.5128065  10.5832714  94.6184939  60.3960449  11.5278146  94.5163629
  59.6920511  10.2806275  95.0070738  70.4004600   5.3082850  85.4641532
  71.2350203   4.8764048  85.2819007  70.2388942   5.1364863  86.3918426
  61.5382579  11.2360976  97.8340868  62.4409826  11.2684586  98.1507362
  61.3119949  10.3061427  97.8487203  63.2936181   9.9891962  94.4950946
  62.3431812   9.9893824  94.3815318  63.5968667   9.2424697  93.9786981
  79.0288875  15.8252501  95.5596709  79.6667285  15.7059248  94.8560049
  78.9109718  16.7733345  95.6184661  75.8378581  15.7779929  95.4958233
  75.4997092  15.6620993  94.6078768  76.7068349  15.3771094  95.4759239
  71.6965397  17.6315405  91.4855124  71.1330262  17.5405342  90.7171412
  71.5817792  16.8115310  91.9657617  76.3198364  16.9314780 101.4544439
  76.3087005  16.5367579 100.5824942  76.4819003  16.1980853 102.0478210
  69.2429829  19.1266597  94.3239345  70.0351120  18.7857421  93.9085644
  69.4826479  19.2361572  95.2441498  77.2764955  21.2986373  86.7969589
  76.6252935  21.8840453  86.4103603  78.0709318  21.8292568  86.8564627
  71.2020583  18.3875510  87.1956723  71.9751459  17.8404497  87.0569599
  71.5545981  19.2519759  87.4071185  73.0405625  19.7151892 100.4023623
  72.7495491  20.6197523 100.2870289  73.6762609  19.7568420 101.1167692
  73.9661832  17.0928741  96.9924982  74.5625404  16.8684763  96.2781945
  74.0236803  16.3513486  97.5950430  73.5386860  14.5468176  84.8275173
  73.7912381  14.0249697  84.0658636  72.6011419  14.3834322  84.9301857
  78.5830143  13.5503954  92.6349917  79.3693232  13.1323378  92.2840334
  78.8468847  14.4550047  92.8031565  78.7540220  18.9876805  87.3338573
  78.1186053  19.0611431  88.0459478  78.4237627  19.5770404  86.6557653
  83.9838570  13.4879188  93.5382895  84.7163742  12.9178405  93.7720725
  83.2277926  13.1000788  93.9789401  73.2583149  16.4496282  87.0299548
  73.1419407  15.7741185  87.6980633  73.3685409  15.9628656  86.2131701
  75.6014690  15.9106429  90.7346238  75.2372897  15.3837050  91.4459159
  76.4581806  15.5204898  90.5612723  75.2420177  10.9396329  85.7307586
  75.4094579  11.8076565  86.0978057  75.0517346  11.1023611  84.8068875
  77.9995510  19.4013308  97.3973416  77.6996233  20.3038347  97.2889224
  77.6546570  19.1345491  98.2494569  71.4507992  15.8527105  93.4310121
  70.5258488  15.7203319  93.6387813  71.6992405  16.6321324  93.9280063
  81.3992654  11.9195848  95.0770854  80.4909531  11.8511256  94.7829615
  81.3480250  12.3967793  95.9052679  75.2209398  13.3953986  86.7154253
  75.1009023  13.8411037  87.5539733  74.5261986  13.7439304  86.1567791
  68.8116803  15.4960378  94.2653910  68.9409184  15.7494857  95.1793322
  68.1314254  16.0888086  93.9458565  72.9816290  26.1657628  90.3644384
  72.9040320  27.1165453  90.4432865  72.3777934  25.8203501  91.0219310
  80.9194464  13.8675460  87.5434587  81.8312320  14.1002846  87.3682284
  80.4104111  14.4512504  86.9809666  73.7279892  16.1470947 102.5823718
  74.4694576  16.6855991 102.3058542  73.0216878  16.7737236 102.7395270
  79.2035232  18.2900087 101.1795880  79.6118588  17.8482498 100.4350512
  78.4812493  17.7152715 101.4330072  75.5566302  13.2272694  98.5529436
  76.4027497  13.6512108  98.6964085  75.4964939  12.5706318  99.2468000
  79.5264046  18.8501278  94.9348168  78.8972909  19.0146992  94.2324236
  79.1389708  19.2642888  95.7059132  83.4053278  19.7855716  92.2892532
  82.7204316  20.1654617  91.7389565  83.4897128  20.3951043  93.0224480
  80.6604210  17.4315675  98.8887876  80.8721105  18.0747435  98.2122257
  80.6133958  16.5977991  98.4209806  78.2630439  10.0433496  95.7924448
  77.4014918  10.3414749  96.0841185  78.2892873  10.2603894  94.8605480
  75.0792008  18.5875686  92.1998254  75.5430354  18.8663389  91.4102876
  74.8148806  17.6859131  92.0171344  71.9716089  18.1347168  95.1378017
  72.5417446  18.5634436  94.4995501  72.5624201  17.8529752  95.8362202
  74.0160894  14.7098838  89.0087819  74.7184938  15.1619882  89.4761745
  73.6841523  14.0682657  89.6367712  72.4641256  13.3010595 103.3839028
  71.8339916  13.9826876 103.6174425  72.3577344  13.1893677 102.4392166
  67.7586228  12.9682391  94.3104952  66.9685282  13.2239920  93.8345063
  68.2497476  13.7830729  94.4156993  81.7750038  20.3087630  97.0610233
  82.5967481  19.9067818  96.7792915  81.7712441  20.2055864  98.0126349
  69.7100974  13.3326970  91.2688429  68.9132137  13.4445665  91.7871925
  69.4826566  13.6713623  90.4029319  75.5406641  19.8571674  99.2170944
  75.6051074  20.3192081 100.0529115  74.8317565  19.2269039  99.3453253
  66.0423931  13.2212882  96.7419943  66.2931970  14.1059892  97.0077519
  66.5783480  13.0417483  95.9695035  75.2554659  21.5239781  89.0849924
  75.1200334  22.3691317  89.5134772  75.7964471  21.7259059  88.3215858
  68.7084056  19.0415219  89.6577849  69.2208577  19.8358469  89.8083414
  69.3606769  18.3441510  89.5911450  70.5178941  22.1580975  91.7400602
  70.6945569  23.0798940  91.5521586  71.3135774  21.8439395  92.1694982
  69.8031298  14.2045607 101.6162765  69.6884813  13.3030865 101.9169864
  68.9475815  14.4509304 101.2647582  76.8823135  22.1463348 103.2150266
  76.4386989  21.3599726 102.8971170  77.5440349  22.3342498 102.5494157
  71.6410256  23.6759149  97.7410944  72.1917682  23.5476213  96.9687938
  70.8021732  23.9754038  97.3905837  78.9804373  22.4266148 101.2431667
  78.9622849  23.2475029 100.7511936  79.9024293  22.3020223 101.4681808
  75.4377427  19.9410277 102.0855176  75.9705764  19.1798565 101.8554484
  74.9091509  19.6483929 102.8279330  66.6732973  17.3703873  90.4337419
  67.5108195  17.7800882  90.2171127  66.8511241  16.4303316  90.4037613
  78.5697405  15.0378954  86.1221252  78.0544029  15.8083559  86.3609640
  78.2974714  14.3644090  86.7454314  76.1544516   9.8828655  91.1806491
  75.2986113   9.4935505  91.0012130  76.5671468   9.9620616  90.3206276
  77.6843663   7.4174998  95.5798051  77.1808458   7.3805133  94.7665856
  77.9774270   8.3267741  95.6394707  73.9286549   7.5013728  94.5864232
  74.7939545   7.3056537  94.2270122  73.9964058   7.2724080  95.5133589
  83.5431679  17.7911309  88.0574426  82.7661122  17.4522468  87.6129588
  84.2223160  17.7963932  87.3829391  78.3583708  12.9106046  87.9481034
  78.0533844  13.2252195  88.7991177  79.3114150  12.9887466  87.9908367
  76.8030140  19.0696270  89.5973988  76.2751502  18.3349029  89.2847225
  76.3017643  19.8470946  89.3513956  81.7822986  17.2645290  94.7141034
  81.1246661  17.9544551  94.8021163  82.5863385  17.6541722  95.0575020
  71.5348868   9.7315936  91.9580599  72.1092620   9.5091117  91.2253792
  72.1219850   9.8004630  92.7109200  80.5928445  15.6189663  92.7644976
  81.1060327  16.2519655  93.2666685  81.2429669  15.0190858  92.3988336
  71.8618455  11.7620397  85.9776484  71.0255767  12.0995083  86.2985759
  71.7223225  11.6269377  85.0403621  73.8371536   6.6057185  90.6855669
  73.1835948   6.2906202  90.0612283  73.7952010   5.9832925  91.4115491
  74.9482740  16.8876480  82.6008961  74.0409802  16.6565733  82.8000110
  75.4453772  16.0914099  82.7882942  77.8550819  25.5973987  85.5205647
  77.1812518  25.9005684  86.1290605  78.2416641  26.4003067  85.1711104
  77.0709276  13.0939118  95.0103316  76.1531837  13.3154065  94.8525004
  77.4869419  13.1685429  94.1515024  77.8544324  14.4930534  90.1405996
  78.6016143  15.0051931  89.8313118  78.1235913  14.1714587  91.0010390
  76.1270974  16.9889075  87.1232951  75.2182193  16.7048107  87.2205420
  76.1566058  17.4088153  86.2636258  81.3590241  20.5995664  90.8924118
  80.9052568  19.7586574  90.9489309  80.7284208  21.2357063  91.2298898
  80.3023161  11.5287650  92.1224786  79.5645918  11.0165036  92.4535028
  80.5549934  11.0888032  91.3108063  79.8023180  22.4372161  91.8273936
  80.0946155  22.9977218  91.1086302  80.3121801  22.7300722  92.5827096
  66.6959144  14.7094589  91.1048153  66.4983544  14.1163949  90.3799219
  66.1405808  14.4046799  91.8224092  74.6755868  14.6017695  93.2242746
  74.7304478  13.6491532  93.1485223  73.8647070  14.7577134  93.7084044
  75.8247062  18.5297818  84.4621029  75.3866492  17.8133677  84.0026667
  76.5657502  18.7573933  83.9006121  72.6148228  13.2194755  90.9833125
  71.8016093  13.5188926  91.3898317  73.1107222  12.8250444  91.7007607
  74.7656806  23.2152512  92.9167390  74.7232984  23.4413358  91.9875922
  75.6819505  22.9815887  93.0653191  83.9420176  16.8055015  90.5197348
  83.8038075  16.9956611  89.5918537  83.5856395  17.5674398  90.9765399
  72.1062303  10.7913111  96.5994360  72.7461682  10.6501870  95.9017323
  71.2739833  10.5047624  96.2232962  83.9689556  18.8731542  95.5308619
  84.4026063  18.7806831  96.3791673  84.6821137  18.8489043  94.8928635
  72.8822606  20.0915541  92.7129352  73.6763205  19.5965861  92.5111927
  72.1714299  19.5633404  92.3497058  77.7017451  22.4733636  97.0641720
  77.7554473  23.0424573  97.8319436  76.8332232  22.6435521  96.6995757
  69.1905370  14.2358623  88.7889105  68.2602958  14.1743078  89.0059067
  69.2862842  13.7134575  87.9925746  69.1090919  10.7613435  91.3767347
  69.3697736  11.6758769  91.2676507  69.9308091  10.2937878  91.5263960
  70.5815844  12.1751193  98.5466171  71.2538898  11.9668555  97.8978820
  69.7545631  11.9773279  98.1071404  76.6605551  16.6393898  98.6228652
  77.5897611  16.7905058  98.4497619  76.2396581  16.7277919  97.7677298
  75.4593882  20.6644563  96.3927189  75.3204968  20.2963347  97.2653128
  74.6708479  21.1792202  96.2211147  76.0542034  25.7653659  87.7352726
  76.2293790  25.2941703  88.5498349  75.3674822  26.3919426  87.9633987
  77.0099098  20.0426166  93.7816027  76.6748930  20.0026936  94.6773677
  76.5103043  19.3770882  93.3086437  70.9843342  15.4493796  99.3068608
  70.8463139  14.7174034  99.9080147  71.8948265  15.3602696  99.0252796
  79.9458289  17.3882200  84.0553087  79.3287460  16.6629028  83.9586140
  79.4774778  18.1491560  83.7120161  73.6125642  15.1613755  98.7952288
  74.3225261  14.5206947  98.7538906  73.5694950  15.4126650  99.7178469
  72.3254576  12.1478973 100.6147928  71.7891933  11.6969711 101.2669524
  71.7371285  12.2824882  99.8718392  70.6203120  28.9143022  94.5092586
  70.8599718  29.5461546  95.1871605  69.7772316  28.5631062  94.7957945
  71.7356835  11.6067624  83.1774391  70.8586301  11.4856425  82.8136638
  72.2114588  10.8153703  82.9253280  63.2558975  16.3944784  93.2715898
  63.9430015  16.0806514  92.6836914  63.1007104  17.2986149  92.9983150
  68.0593697  11.2834981  97.7000922  67.9751886  10.6760650  96.9651332
  67.2376404  11.7743999  97.7010418  75.1330982  24.7222145  96.9134090
  75.0601153  25.5277116  97.4253395  74.6908375  24.9214110  96.0882112
  74.9220761  23.9593915  90.4236912  74.1388283  24.5015595  90.5175136
  75.6213506  24.4767894  90.8231153  78.2317411   9.7688544  93.0671117
  78.7286111   9.0158506  92.7472187  77.4604393   9.8052861  92.5014326
  77.5929665  24.6208979  99.0692249  78.3057637  25.2556443  98.9968150
  77.1019694  24.7172845  98.2532251  79.3147192  18.5260231  90.6409540
  78.3803471  18.6461694  90.4714245  79.4923860  17.6232698  90.3769550
  74.8152380  11.9105927  92.7942802  74.4450168  11.3576967  93.4823707
  75.3111472  11.3064061  92.2417802  82.7019743  14.3677551  91.1759575
  83.1680196  15.2005542  91.1019877  83.1527244  13.9022532  91.8804833
  72.6441579  22.3703422  99.8897820  73.3451038  23.0039905 100.0427214
  72.1736694  22.7118154  99.1293459  80.7695974  20.7121372  88.1745727
  81.0455818  20.5977966  89.0839601  79.9000473  20.3138857  88.1357900
  80.4442865  14.9248030  97.7150370  79.7914315  15.1723937  97.0602823
  80.8223244  14.1112168  97.3812847  77.4050038  24.9607723  91.8178540
  77.5872433  24.1429379  92.2806293  78.2283024  25.1775415  91.3803430
  77.7392204  23.8875908  89.0793589  78.2679970  23.3768362  88.4663751
  78.0020424  23.5718438  89.9439122  68.2409297  21.9039777  96.8228922
  68.8262733  21.1583465  96.9556826  68.0434135  22.2143734  97.7065586
  71.0947952  24.9391025  91.8391365  70.4258327  25.4237152  91.3555405
  70.9560822  25.1860245  92.7534743  62.8326951  14.4745377  95.5433365
  62.8711051  13.9408968  96.3370484  62.3267244  13.9480583  94.9244343
  75.2353220  26.9734768  98.4374023  75.7871528  27.1366390  99.2023108
  75.5759414  27.5639206  97.7654048  70.2117714   9.3209918  99.0395908
  70.2759040  10.1824749  98.6273305  70.1484834   8.7083919  98.3068266
  66.4635529  13.2009479  88.6187297  66.7588970  12.2920158  88.5654351
  65.5623565  13.1797219  88.2968299  78.3721608  24.9216744  95.4237705
  78.2472747  24.1206483  94.9148651  79.0300699  25.4162937  94.9351675
  69.9929776  11.2765476  94.6014845  69.2716362  11.8901444  94.4622319
  70.7823032  11.8123241  94.5231491  80.4356516  22.7225764  97.0517255
  79.4886852  22.6031115  96.9795582  80.7839289  21.8348262  97.1343517
  68.1923371  10.8823577  88.7426622  67.8636077  10.0020956  88.5601728
  68.5462741  10.8271246  89.6303011  77.4402949  22.5178480  93.2521608
  77.2927912  21.5895187  93.4329178  78.2656443  22.5398571  92.7678683
  71.3065194  11.1696547  89.1102100  71.6461266  11.6982468  88.3880708
  71.7537314  11.5076953  89.8860666  81.0437071  23.3407039  94.3386480
  81.9683619  23.1349900  94.2010931  80.8752375  23.0923440  95.2475822
  74.0008635   9.5533598  98.5605168  73.6605455   8.7541411  98.9625848
  73.2947641   9.8535309  97.9882001  74.6525106   6.6382910  97.0132491
  75.4751176   6.1643388  96.8911381  74.8963170   7.4173394  97.5131177
  73.2933341   9.6671169  87.3095392  74.0141703  10.0452421  86.8059109
  72.6698645  10.3860045  87.4130370  77.4364464  10.3716318  88.2453725
  77.6528078  11.2540955  87.9442553  76.9558531   9.9802531  87.5159367
  72.1763685  13.3302031  94.8224469  72.0308266  13.6442334  95.7148751
  71.6988889  13.9486931  94.2695368  74.0360068  10.3204579  94.8705359
  74.0221637   9.4245672  94.5337657  74.7532496  10.3275242  95.5043645
  75.8886199  10.7541919  96.9158486  75.6303977  11.6758990  96.9142817
  75.3571239  10.3572353  97.6058950  80.8332387  23.8592706  89.6948572
  81.0069265  23.2939129  88.9422424  81.3261279  24.6593601  89.5128062
  66.6509347  15.8707375  97.7612131  66.1062815  16.6467183  97.8932405
  67.5288697  16.2178180  97.6031252  73.4396964   9.2018959  90.1392929
  73.5612875   8.2735605  90.3383817  73.1499006   9.2157645  89.2271244
  76.3088154   6.8873869  93.2759649  76.3309851   6.9513203  92.3211628
  76.7256213   6.0478378  93.4700155  86.6871779  16.6229129  91.3138871
  87.1302925  15.8736454  90.9157995  85.8098289  16.6139265  90.9312603
  81.8207560  23.1759470  86.7945470  82.5158465  23.7966163  87.0132785
  82.1630710  22.3254822  87.0697848  67.4375369  14.9977271 100.6542287
  66.6957105  15.1459907 101.2406918  67.1168113  15.2585537  99.7909037
  83.7198983  20.6259176  88.3232801  84.2450307  20.9646449  87.5982121
  83.6321336  19.6906191  88.1395935  75.3819032  24.5393250 100.4522677
  75.6906158  24.2942396 101.3245377  76.1794514  24.7439888  99.9641548
  75.4039644  26.6931159  92.6828054  74.9644634  26.2007538  93.3760911
  76.1547761  26.1504127  92.4420129  67.8831983  22.8842700  92.6852682
  68.7090003  22.5846472  92.3051326  67.5326035  22.1150323  93.1342471
  72.8513516  22.2369168  94.7550356  72.2293525  21.5739873  94.4552583
  73.5218383  22.2630300  94.0724003  66.0840588  20.8029027  93.6441616
  65.2472496  20.3751201  93.4625617  66.0564233  20.9961470  94.5812407
  72.4127023  20.7873092  88.2308816  72.5615143  21.4708556  87.5775489
  73.2193466  20.7678182  88.7458272  86.2304643  18.0934367  93.7061319
  87.0651535  18.5324171  93.8698879  86.3663772  17.6173021  92.8869565
  70.1679656  16.8138269  89.2369885  69.9225698  15.9100599  89.4350095
  70.3375570  16.8155420  88.2949363  69.4375303  12.5466627  86.7356047
  68.7444548  12.6210982  86.0796083  69.1927055  11.7826971  87.2577563
  75.9122428  23.2821222  85.7020564  75.3396396  23.9011409  85.2491035
  76.4855222  23.8320584  86.2360486  79.1319688  23.5658372  86.8329146
  80.0650361  23.5003934  87.0362021  79.0442901  24.4014639  86.3743679
  81.7607705  22.8824243  83.7933093  81.6821336  22.5484106  84.6868851
  82.5817372  23.3746011  83.7924566  76.2969227  14.6182035  83.0436616
  77.2428332  14.4888243  83.1125034  75.9183472  13.8796697  83.5206044
  74.4812144  12.5432011  82.9791501  73.5743599  12.2465124  83.0554215
  74.7588125  12.2461829  82.1125788  65.3990084  13.8638375  93.4290548
  65.0792869  13.0103683  93.1364922  64.8523513  14.0786953  94.1848515
  69.1769992  16.5800816  97.1460054  69.3956002  17.5117923  97.1648088
  69.5895766  16.2208790  97.9314858  76.0974210   7.0868901  89.1335743
  75.2874938   6.7415986  89.5090989  76.7858627   6.7776445  89.7223354
  73.2510929   9.4018947  83.1203481  74.1130093   9.7273845  83.3799298
  73.4361273   8.6150442  82.6076546  65.2678344  17.4841286  95.3983669
  64.5741816  17.0695239  94.8853624  66.0151335  17.5261823  94.8017088
  81.4043565   8.2747473  90.2638704  80.8242234   8.9332277  89.8816756
  81.1379498   7.4524818  89.8526121  79.8547132   7.6752531  92.4660024
  80.3546910   7.7869065  91.6574343  80.4982739   7.3713584  93.1060832
  67.1815087  17.4159540  93.2749684  67.1585775  17.5147227  92.3231567
  67.4915723  18.2624691  93.5966850  69.8402465  19.4735695  97.3896299
  70.7945718  19.4419637  97.3226230  69.6414988  19.0126319  98.2046525
  70.4301847  18.0436811  99.9567096  71.2494736  18.5380890  99.9801934
  70.7038655  17.1268779  99.9284664  80.1868443  10.4347563  89.3195052
  79.2994298  10.7197214  89.1015247  80.6022432  10.2741327  88.4722329
  68.1952694  25.0155314  94.4066496  68.0607162  24.2555715  93.8404495
  67.7784756  25.7396214  93.9395285  79.3311657  20.1992238  83.4143072
  80.0347507  20.4042241  84.0300727  78.6074305  20.7669000  83.6792155
  80.1609467  15.9502099  89.5345342  80.1044668  16.4070651  88.6952974
  80.7137809  15.1892784  89.3568185  83.9714273  11.7391831  90.3595461
  83.7151207  11.3388467  91.1903669  83.3467141  12.4535625  90.2345601
  71.3521820  25.9124632  94.6184939  71.2354204  26.8570064  94.5163629
  70.5314266  25.6098193  95.0070738  81.2398354  20.6374767  85.4641532
  82.0743958  20.2055966  85.2819007  81.0782697  20.4656781  86.3918426
  80.8944246  17.1406881  86.8297871  80.8393050  16.9751152  85.8886315
  80.2690302  17.8482913  86.9860061  74.2040372   6.6414990  86.4083190
  74.1919042   7.5856829  86.5651460  75.0963794   6.4585135  86.1142651
  72.3776334  26.5652893  97.8340868  73.2803580  26.5976504  98.1507362
  72.1513704  25.6353344  97.8487203  74.1329936  25.3183880  94.4950946
  73.1825567  25.3185742  94.3815318  74.4362422  24.5716615  93.9786981
  89.8682629  31.1544418  95.5596709  90.5061039  31.0351166  94.8560049
  89.7503472  32.1025262  95.6184661  86.6772335  31.1071846  95.4958233
  86.3390847  30.9912911  94.6078768  87.5462104  30.7063012  95.4759239
  82.5359151  32.9607323  91.4855124  81.9724016  32.8697260  90.7171412
  82.4211546  32.1407227  91.9657617  87.1592118  32.2606698 101.4544439
  87.1480759  31.8659496 100.5824942  87.3212758  31.5272771 102.0478210
  80.0823583  34.4558514  94.3239345  80.8744875  34.1149339  93.9085644
  80.3220233  34.5653489  95.2441498  88.1158710  36.6278291  86.7969589
  87.4646690  37.2132371  86.4103603  88.9103073  37.1584485  86.8564627
  82.0414337  33.7167428  87.1956723  82.8145213  33.1696415  87.0569599
  82.3939736  34.5811677  87.4071185  83.8799380  35.0443810 100.4023623
  83.5889246  35.9489441 100.2870289  84.5156364  35.0860338 101.1167692
  84.8055586  32.4220658  96.9924982  85.4019159  32.1976681  96.2781945
  84.8630558  31.6805404  97.5950430  84.3780615  29.8760094  84.8275173
  84.6306135  29.3541615  84.0658636  83.4405174  29.7126239  84.9301857
  89.4223898  28.8795872  92.6349917  90.2086987  28.4615295  92.2840334
  89.6862602  29.7841964  92.8031565  89.5933975  34.3168722  87.3338573
  88.9579808  34.3903349  88.0459478  89.2631381  34.9062321  86.6557653
  94.8232325  28.8171105  93.5382895  95.5557497  28.2470322  93.7720725
  94.0671680  28.4292706  93.9789401  84.0976904  31.7788200  87.0299548
  83.9813162  31.1033103  87.6980633  84.2079163  31.2920574  86.2131701
  86.4408444  31.2398347  90.7346238  86.0766652  30.7128968  91.4459159
  87.2975560  30.8496816  90.5612723  86.0813931  26.2688247  85.7307586
  86.2488334  27.1368483  86.0978057  85.8911101  26.4315528  84.8068875
  88.8389265  34.7305225  97.3973416  88.5389988  35.6330264  97.2889224
  88.4940324  34.4637409  98.2494569  82.2901746  31.1819022  93.4310121
  81.3652243  31.0495236  93.6387813  82.5386159  31.9613242  93.9280063
  92.2386408  27.2487766  95.0770854  91.3303286  27.1803174  94.7829615
  92.1874004  27.7259711  95.9052679  86.0603152  28.7245904  86.7154253
  85.9402778  29.1702955  87.5539733  85.3655741  29.0731222  86.1567791
  79.6510557  30.8252296  94.2653910  79.7802938  31.0786775  95.1793322
  78.9708008  31.4180004  93.9458565  83.8210044  41.4949546  90.3644384
  83.7434074  42.4457371  90.4432865  83.2171688  41.1495418  91.0219310
  91.7588219  29.1967377  87.5434587  92.6706075  29.4294764  87.3682284
  91.2497866  29.7804421  86.9809666  84.5673647  31.4762865 102.5823718
  85.3088331  32.0147909 102.3058542  83.8610632  32.1029153 102.7395270
  90.0428986  33.6192005 101.1795880  90.4512342  33.1774416 100.4350512
  89.3206248  33.0444633 101.4330072  86.3960056  28.5564612  98.5529436
  87.2421251  28.9804025  98.6964085  86.3358694  27.8998236  99.2468000
  90.3657801  34.1793196  94.9348168  89.7366663  34.3438910  94.2324236
  89.9783463  34.5934805  95.7059132  94.2447033  35.1147634  92.2892532
  93.5598071  35.4946535  91.7389565  94.3290882  35.7242960  93.0224480
  91.4997964  32.7607593  98.8887876  91.7114860  33.4039352  98.2122257
  91.4527713  31.9269909  98.4209806  89.1024193  25.3725413  95.7924448
  88.2408672  25.6706667  96.0841185  89.1286628  25.5895812  94.8605480
  85.9185763  33.9167604  92.1998254  86.3824108  34.1955307  91.4102876
  85.6542561  33.0151048  92.0171344  82.8109844  33.4639085  95.1378017
  83.3811201  33.8926354  94.4995501  83.4017956  33.1821670  95.8362202
  84.8554649  30.0390756  89.0087819  85.5578692  30.4911800  89.4761745
  84.5235277  29.3974575  89.6367712  83.3035010  28.6302513 103.3839028
  82.6733671  29.3118794 103.6174425  83.1971098  28.5185594 102.4392166
  78.5979983  28.2974309  94.3104952  77.8079037  28.5531837  93.8345063
  79.0891230  29.1122647  94.4156993  92.6143792  35.6379548  97.0610233
  93.4361236  35.2359735  96.7792915  92.6106195  35.5347782  98.0126349
  80.5494728  28.6618888  91.2688429  79.7525891  28.7737582  91.7871925
  80.3220320  29.0005540  90.4029319  86.3800396  35.1863591  99.2170944
  86.4444828  35.6483999 100.0529115  85.6711320  34.5560956  99.3453253
  76.8817686  28.5504799  96.7419943  77.1325724  29.4351809  97.0077519
  77.4177234  28.3709401  95.9695035  86.0948413  36.8531699  89.0849924
  85.9594088  37.6983235  89.5134772  86.6358226  37.0550976  88.3215858
  79.5477811  34.3707137  89.6577849  80.0602331  35.1650387  89.8083414
  80.2000524  33.6733427  89.5911450  81.3572695  37.4872893  91.7400602
  81.5339324  38.4090858  91.5521586  82.1529529  37.1731312  92.1694982
  80.6425052  29.5337525 101.6162765  80.5278567  28.6322782 101.9169864
  79.7869570  29.7801222 101.2647582  87.7216890  37.4755265 103.2150266
  87.2780744  36.6891644 102.8971170  88.3834103  37.6634416 102.5494157
  82.4804011  39.0051067  97.7410944  83.0311436  38.8768130  96.9687938
  81.6415487  39.3045956  97.3905837  89.8198128  37.7558065 101.2431667
  89.8016603  38.5766946 100.7511936  90.7418048  37.6312140 101.4681808
  86.2771182  35.2702195 102.0855176  86.8099519  34.5090483 101.8554484
  85.7485263  34.9775847 102.8279330  77.5126728  32.6995791  90.4337419
  78.3501950  33.1092799  90.2171127  77.6904995  31.7595233  90.4037613
  89.4091160  30.3670872  86.1221252  88.8937783  31.1375476  86.3609640
  89.1368468  29.6936008  86.7454314  86.9938271  25.2120573  91.1806491
  86.1379867  24.8227423  91.0012130  87.4065222  25.2912533  90.3206276
  88.5237417  22.7466916  95.5798051  88.0202213  22.7097051  94.7665856
  88.8168024  23.6559659  95.6394707  84.7680303  22.8305646  94.5864232
  85.6333300  22.6348454  94.2270122  84.8357812  22.6015997  95.5133589
  94.3825434  33.1203226  88.0574426  93.6054877  32.7814386  87.6129588
  95.0616915  33.1255850  87.3829391  89.1977463  28.2397964  87.9481034
  88.8927598  28.5544113  88.7991177  90.1507905  28.3179384  87.9908367
  87.6423895  34.3988187  89.5973988  87.1145256  33.6640947  89.2847225
  87.1411397  35.1762864  89.3513956  92.6216741  32.5937208  94.7141034
  91.9640415  33.2836469  94.8021163  93.4257140  32.9833640  95.0575020
  82.3742622  25.0607853  91.9580599  82.9486374  24.8383035  91.2253792
  82.9613605  25.1296548  92.7109200  91.4322199  30.9481580  92.7644976
  91.9454081  31.5811572  93.2666685  92.0823423  30.3482776  92.3988336
  82.7012209  27.0912314  85.9776484  81.8649522  27.4287001  86.2985759
  82.5616979  26.9561294  85.0403621  84.6765290  21.9349102  90.6855669
  84.0229702  21.6198120  90.0612283  84.6345764  21.3124843  91.4115491
  85.7876495  32.2168397  82.6008961  84.8803557  31.9857651  82.8000110
  86.2847527  31.4206017  82.7882942  88.6944574  40.9265905  85.5205647
  88.0206272  41.2297601  86.1290605  89.0810396  41.7294985  85.1711104
  87.9103030  28.4231036  95.0103316  86.9925592  28.6445983  94.8525004
  88.3263174  28.4977346  94.1515024  88.6938078  29.8222452  90.1405996
  89.4409897  30.3343849  89.8313118  88.9629668  29.5006504  91.0010390
  86.9664728  32.3180992  87.1232951  86.0575948  32.0340025  87.2205420
  86.9959812  32.7380071  86.2636258  92.1983996  35.9287582  90.8924118
  91.7446323  35.0878492  90.9489309  91.5677962  36.5648980  91.2298898
  91.1416915  26.8579568  92.1224786  90.4039672  26.3456954  92.4535028
  91.3943689  26.4179949  91.3108063  90.6416935  37.7664079  91.8273936
  90.9339909  38.3269136  91.1086302  91.1515556  38.0592639  92.5827096
  77.5352899  30.0386506  91.1048153  77.3377298  29.4455867  90.3799219
  76.9799563  29.7338717  91.8224092  85.5149622  29.9309613  93.2242746
  85.5698232  28.9783449  93.1485223  84.7040824  30.0869052  93.7084044
  86.6640816  33.8589736  84.4621029  86.2260246  33.1425595  84.0026667
  87.4051257  34.0865851  83.9006121  83.4541982  28.5486673  90.9833125
  82.6409848  28.8480843  91.3898317  83.9500976  28.1542361  91.7007607
  85.6050560  38.5444430  92.9167390  85.5626739  38.7705276  91.9875922
  86.5213259  38.3107804  93.0653191  94.7813931  32.1346933  90.5197348
  94.6431829  32.3248529  89.5918537  94.4250150  32.8966316  90.9765399
  82.9456057  26.1205028  96.5994360  83.5855436  25.9793787  95.9017323
  82.1133588  25.8339542  96.2232962  94.8083310  34.2023460  95.5308619
  95.2419817  34.1098749  96.3791673  95.5214891  34.1780960  94.8928635
  83.7216361  35.4207459  92.7129352  84.5156959  34.9257779  92.5111927
  83.0108053  34.8925322  92.3497058  88.5411205  37.8025554  97.0641720
  88.5948228  38.3716490  97.8319436  87.6725987  37.9727439  96.6995757
  80.0299124  29.5650540  88.7889105  79.0996712  29.5034996  89.0059067
  80.1256596  29.0426493  87.9925746  79.9484673  26.0905353  91.3767347
  80.2091491  27.0050686  91.2676507  80.7701846  25.6229796  91.5263960
  81.4209599  27.5043110  98.5466171  82.0932652  27.2960472  97.8978820
  80.5939385  27.3065196  98.1071404  87.4999305  31.9685816  98.6228652
  88.4291365  32.1196976  98.4497619  87.0790335  32.0569837  97.7677298
  86.2987637  35.9936481  96.3927189  86.1598723  35.6255265  97.2653128
  85.5102233  36.5084120  96.2211147  86.8935789  41.0945577  87.7352726
  87.0687545  40.6233620  88.5498349  86.2068577  41.7211343  87.9633987
  87.8492852  35.3718083  93.7816027  87.5142685  35.3318853  94.6773677
  87.3496798  34.7062799  93.3086437  81.8237096  30.7785713  99.3068608
  81.6856894  30.0465952  99.9080147  82.7342019  30.6894613  99.0252796
  90.7852044  32.7174118  84.0553087  90.1681214  31.9920946  83.9586140
  90.3168532  33.4783478  83.7120161  84.4519397  30.4905673  98.7952288
  85.1619015  29.8498865  98.7538906  84.4088705  30.7418567  99.7178469
  83.1648331  27.4770891 100.6147928  82.6285688  27.0261629 101.2669524
  82.5765039  27.6116799  99.8718392  81.4596874  44.2434940  94.5092586
  81.6993472  44.8753464  95.1871605  80.6166071  43.8922980  94.7957945
  82.5750590  26.9359542  83.1774391  81.6980056  26.8148343  82.8136638
  83.0508343  26.1445620  82.9253280  74.0952730  31.7236702  93.2715898
  74.7823770  31.4098432  92.6836914  73.9400858  32.6278066  92.9983150
  78.8987452  26.6126898  97.7000922  78.8145641  26.0052568  96.9651332
  78.0770158  27.1035917  97.7010418  85.9724736  40.0514062  96.9134090
  85.8994908  40.8569034  97.4253395  85.5302129  40.2506028  96.0882112
  85.7614516  39.2885832  90.4236912  84.9782038  39.8307512  90.5175136
  86.4607261  39.8059812  90.8231153  89.0711166  25.0980462  93.0671117
  89.5679865  24.3450424  92.7472187  88.2998147  25.1344778  92.5014326
  88.4323420  39.9500896  99.0692249  89.1451392  40.5848361  98.9968150
  87.9413448  40.0464762  98.2532251  90.1540946  33.8552149  90.6409540
  89.2197225  33.9753611  90.4714245  90.3317615  32.9524616  90.3769550
  85.6546135  27.2397845  92.7942802  85.2843922  26.6868885  93.4823707
  86.1505227  26.6355978  92.2417802  93.5413498  29.6969468  91.1759575
  94.0073950  30.5297460  91.1019877  93.9920998  29.2314450  91.8804833
  83.4835333  37.6995340  99.8897820  84.1844793  38.3331823 100.0427214
  83.0130448  38.0410071  99.1293459  91.6089729  36.0413290  88.1745727
  91.8849573  35.9269884  89.0839601  90.7394228  35.6430774  88.1357900
  91.2836619  30.2539947  97.7150370  90.6308069  30.5015855  97.0602823
  91.6616999  29.4404085  97.3812847  88.2443793  40.2899640  91.8178540
  88.4266187  39.4721296  92.2806293  89.0676779  40.5067333  91.3803430
  88.5785958  39.2167826  89.0793589  89.1073725  38.7060280  88.4663751
  88.8414178  38.9010356  89.9439122  79.0803051  37.2331695  96.8228922
  79.6656488  36.4875383  96.9556826  78.8827890  37.5435652  97.7065586
  81.9341706  40.2682942  91.8391365  81.2652082  40.7529070  91.3555405
  81.7954576  40.5152163  92.7534743  73.6720706  29.8037295  95.5433365
  73.7104805  29.2700886  96.3370484  73.1660999  29.2772501  94.9244343
  86.0746975  42.3026686  98.4374023  86.6265283  42.4658307  99.2023108
  86.4153168  42.8931124  97.7654048  81.0511468  24.6501836  99.0395908
  81.1152795  25.5116666  98.6273305  80.9878588  24.0375837  98.3068266
  80.5263741  26.7224968 102.6868942  81.1535780  26.3402045 103.3006466
  79.6691660  26.5039170 103.0524634  77.3029283  28.5301397  88.6187297
  77.5982725  27.6212076  88.5654351  76.4017319  28.5089137  88.2968299
  89.2115362  40.2508661  95.4237705  89.0866502  39.4498401  94.9148651
  89.8694453  40.7454855  94.9351675  80.8323530  26.6057394  94.6014845
  80.1110116  27.2193361  94.4622319  81.6216786  27.1415159  94.5231491
  91.2750271  38.0517681  97.0517255  90.3280606  37.9323033  96.9795582
  91.6233044  37.1640179  97.1343517  79.0317125  26.2115495  88.7426622
  78.7029831  25.3312874  88.5601728  79.3856496  26.1563164  89.6303011
  88.2796704  37.8470398  93.2521608  88.1321666  36.9187105  93.4329178
  89.1050197  37.8690488  92.7678683  82.1458948  26.4988465  89.1102100
  82.4855021  27.0274386  88.3880708  82.5931069  26.8368871  89.8860666
  91.8830826  38.6698956  94.3386480  92.8077373  38.4641818  94.2010931
  91.7146129  38.4215357  95.2475822  84.8402389  24.8825515  98.5605168
  84.4999209  24.0833328  98.9625848  84.1341395  25.1827226  97.9882001
  85.4918861  21.9674828  97.0132491  86.3144930  21.4935306  96.8911381
  85.7356924  22.7465312  97.5131177  84.1327095  24.9963086  87.3095392
  84.8535458  25.3744339  86.8059109  83.5092399  25.7151963  87.4130370
  88.2758218  25.7008235  88.2453725  88.4921833  26.5832873  87.9442553
  87.7952285  25.3094449  87.5159367  83.0157440  28.6593948  94.8224469
  82.8702020  28.9734251  95.7148751  82.5382643  29.2778849  94.2695368
  84.8753822  25.6496496  94.8705359  84.8615391  24.7537590  94.5337657
  85.5926251  25.6567160  95.5043645  86.7279953  26.0833837  96.9158486
  86.4697731  27.0050907  96.9142817  86.1964994  25.6864271  97.6058950
  91.6726142  39.1884624  89.6948572  91.8463019  38.6231046  88.9422424
  92.1655033  39.9885519  89.5128062  77.4903102  31.1999293  97.7612131
  76.9456570  31.9759101  97.8932405  78.3682452  31.5470097  97.6031252
  84.2790718  24.5310877  90.1392929  84.4006630  23.6027523  90.3383817
  83.9892761  24.5449563  89.2271244  87.1481909  22.2165787  93.2759649
  87.1703606  22.2805120  92.3211628  87.5649968  21.3770296  93.4700155
  97.5265533  31.9521047  91.3138871  97.9696679  31.2028372  90.9157995
  96.6492043  31.9431183  90.9312603  92.6601314  38.5051388  86.7945470
  93.3552219  39.1258081  87.0132785  93.0024465  37.6546739  87.0697848
  78.2769124  30.3269189 100.6542287  77.5350860  30.4751824 101.2406918
  77.9561868  30.5877455  99.7909037  94.5592738  35.9551094  88.3232801
  95.0844062  36.2938366  87.5982121  94.4715090  35.0198109  88.1395935
  86.2212786  39.8685167 100.4522677  86.5299913  39.6234314 101.3245377
  87.0188268  40.0731806  99.9641548  86.2433398  42.0223077  92.6828054
  85.8038389  41.5299456  93.3760911  86.9941515  41.4796045  92.4420129
  78.7225737  38.2134618  92.6852682  79.5483757  37.9138390  92.3051326
  78.3719789  37.4442240  93.1342471  83.6907270  37.5661086  94.7550356
  83.0687280  36.9031791  94.4552583  84.3612137  37.5922218  94.0724003
  76.9234342  36.1320944  93.6441616  76.0866251  35.7043119  93.4625617
  76.8957988  36.3253388  94.5812407  83.2520777  36.1165009  88.2308816
  83.4008898  36.8000474  87.5775489  84.0587221  36.0970099  88.7458272
  97.0698398  33.4226285  93.7061319  97.9045289  33.8616089  93.8698879
  97.2057527  32.9464938  92.8869565  81.0073410  32.1430187  89.2369885
  80.7619452  31.2392517  89.4350095  81.1769325  32.1447337  88.2949363
  80.2769058  27.8758545  86.7356047  79.5838303  27.9502900  86.0796083
  80.0320810  27.1118888  87.2577563  86.7516183  38.6113140  85.7020564
  86.1790150  39.2303327  85.2491035  87.3248977  39.1612502  86.2360486
  89.9713443  38.8950290  86.8329146  90.9044116  38.8295852  87.0362021
  89.8836656  39.7306557  86.3743679  92.6001459  38.2116160  83.7933093
  92.5215091  37.8776024  84.6868851  93.4211126  38.7037928  83.7924566
  87.1362981  29.9473953  83.0436616  88.0822086  29.8180161  83.1125034
  86.7577226  29.2088614  83.5206044  85.3205899  27.8723929  82.9791501
  84.4137354  27.5757042  83.0554215  85.5981880  27.5753747  82.1125788
  76.2383839  29.1930292  93.4290548  75.9186623  28.3395601  93.1364922
  75.6917267  29.4078871  94.1848515  80.0163746  31.9092733  97.1460054
  80.2349756  32.8409841  97.1648088  80.4289520  31.5500708  97.9314858
  86.9367964  22.4160819  89.1335743  86.1268693  22.0707904  89.5090989
  87.6252381  22.1068362  89.7223354  88.8658513  21.4938865  90.7560039
  89.4189551  21.9134319  91.4150062  89.1028599  20.5674614  90.7982995
  84.0904683  24.7310864  83.1203481  84.9523847  25.0565762  83.3799298
  84.2755027  23.9442360  82.6076546  76.1072099  32.8133204  95.3983669
  75.4135570  32.3987157  94.8853624  76.8545090  32.8553740  94.8017088
  92.2437320  23.6039391  90.2638704  91.6635989  24.2624195  89.8816756
  91.9773252  22.7816735  89.8526121  90.6940886  23.0044448  92.4660024
  91.1940664  23.1160983  91.6574343  91.3376494  22.7005501  93.1060832
  78.0208841  32.7451458  93.2749684  77.9979530  32.8439145  92.3231567
  78.3309478  33.5916608  93.5966850  80.6796219  34.8027613  97.3896299
  81.6339473  34.7711555  97.3226230  80.4808743  34.3418236  98.2046525
  81.2695601  33.3728729  99.9567096  82.0888490  33.8672807  99.9801934
  81.5432409  32.4560697  99.9284664  91.0262198  25.7639481  89.3195052
  90.1388053  26.0489132  89.1015247  91.4416187  25.6033244  88.4722329
  79.0346448  40.3447232  94.4066496  78.9000916  39.5847633  93.8404495
  78.6178510  41.0688132  93.9395285  90.1705411  35.5284156  83.4143072
  90.8741261  35.7334158  84.0300727  89.4468060  36.0960918  83.6792155
  91.0003221  31.2794017  89.5345342  90.9438423  31.7362568  88.6952974
  91.5531564  30.5184702  89.3568185  94.8108027  27.0683749  90.3595461
  94.5544962  26.6680384  91.1903669  94.1860895  27.7827543  90.2345601
  82.1915574  41.2416549  94.6184939  82.0747958  42.1861982  94.5163629
  81.3708020  40.9390111  95.0070738  92.0792109  35.9666685  85.4641532
  92.9137712  35.5347883  85.2819007  91.9176451  35.7948699  86.3918426
  91.7338001  32.4698798  86.8297871  91.6786805  32.3043070  85.8886315
  91.1084056  33.1774831  86.9860061  76.5230516  27.7066863 100.6559293
  77.1689379  27.1965817 101.1446518  76.3147667  28.4435544 101.2302719
  85.0434126  21.9706907  86.4083190  85.0312796  22.9148747  86.5651460
  85.9357548  21.7877053  86.1142651  83.2170088  41.8944811  97.8340868
  84.1197335  41.9268421  98.1507362  82.9907458  40.9645262  97.8487203
  84.9723690  40.6475798  94.4950946  84.0219321  40.6477659  94.3815318
  85.2756176  39.9008532  93.9786981  88.8586246  18.5649684  90.6629126
  88.0918641  18.0108171  90.8085809  89.2696951  18.6371553  91.5243278
 100.7076384  46.4836336  95.5596709 101.3454794  46.3643083  94.8560049
 100.5897227  47.4317180  95.6184661  97.5166090  46.4363764  95.4958233
  97.1784601  46.3204829  94.6078768  98.3855858  46.0354929  95.4759239
  93.3752906  48.2899241  91.4855124  92.8117771  48.1989177  90.7171412
  93.2605301  47.4699145  91.9657617  97.9985873  47.5898616 101.4544439
  97.9874514  47.1951414 100.5824942  98.1606512  46.8564688 102.0478210
  90.9217338  49.7850432  94.3239345  91.7138629  49.4441257  93.9085644
  91.1613988  49.8945407  95.2441498  98.9552464  51.9570208  86.7969589
  98.3040444  52.5424289  86.4103603  99.7496827  52.4876403  86.8564627
  92.8808091  49.0459345  87.1956723  93.6538967  48.4988332  87.0569599
  93.2333490  49.9103595  87.4071185  94.7193134  50.3735728 100.4023623
  94.4283000  51.2781358 100.2870289  95.3550118  50.4152255 101.1167692
  95.6449341  47.7512576  96.9924982  96.2412913  47.5268599  96.2781945
  95.7024312  47.0097322  97.5950430  95.2174369  45.2052011  84.8275173
  95.4699890  44.6833533  84.0658636  94.2798928  45.0418157  84.9301857
 100.2617652  44.2087790  92.6349917 101.0480741  43.7907213  92.2840334
 100.5256356  45.1133882  92.8031565 100.4327729  49.6460640  87.3338573
  99.7973562  49.7195267  88.0459478 100.1025136  50.2354239  86.6557653
 105.6626079  44.1463023  93.5382895 106.3951251  43.5762240  93.7720725
 104.9065435  43.7584624  93.9789401  94.9370658  47.1080117  87.0299548
  94.8206916  46.4325021  87.6980633  95.0472918  46.6212491  86.2131701
  97.2802199  46.5690265  90.7346238  96.9160406  46.0420886  91.4459159
  98.1369315  46.1788734  90.5612723  96.9207686  41.5980164  85.7307586
  97.0882088  42.4660401  86.0978057  96.7304855  41.7607446  84.8068875
  99.6783019  50.0597143  97.3973416  99.3783742  50.9622182  97.2889224
  99.3334079  49.7929326  98.2494569  93.1295501  46.5110940  93.4310121
  92.2045997  46.3787154  93.6387813  93.3779914  47.2905159  93.9280063
 103.0780163  42.5779683  95.0770854 102.1697040  42.5095092  94.7829615
 103.0267759  43.0551628  95.9052679  96.8996907  44.0537822  86.7154253
  96.7796532  44.4994873  87.5539733  96.2049495  44.4023139  86.1567791
  90.4904312  46.1544214  94.2653910  90.6196693  46.4078692  95.1793322
  89.8101763  46.7471922  93.9458565  94.6603799  56.8241464  90.3644384
  94.5827829  57.7749289  90.4432865  94.0565443  56.4787336  91.0219310
 102.5981973  44.5259295  87.5434587 103.5099829  44.7586682  87.3682284
 102.0891620  45.1096339  86.9809666  95.4067401  46.8054782 102.5823718
  96.1482085  47.3439826 102.3058542  94.7004386  47.4321071 102.7395270
 100.8822741  48.9483923 101.1795880 101.2906097  48.5066333 100.4350512
 100.1600002  48.3736550 101.4330072  97.2353811  43.8856530  98.5529436
  98.0815006  44.3095943  98.6964085  97.1752448  43.2290154  99.2468000
 101.2051555  49.5085113  94.9348168 100.5760418  49.6730828  94.2324236
 100.8177217  49.9226723  95.7059132 105.0840787  50.4439551  92.2892532
 104.3991825  50.8238453  91.7389565 105.1684637  51.0534878  93.0224480
 102.3391719  48.0899510  98.8887876 102.5508614  48.7331270  98.2122257
 102.2921467  47.2561827  98.4209806  99.9417948  40.7017331  95.7924448
  99.0802427  40.9998584  96.0841185  99.9680382  40.9187730  94.8605480
  96.7579517  49.2459521  92.1998254  97.2217863  49.5247224  91.4102876
  96.4936315  48.3442966  92.0171344  93.6503598  48.7931003  95.1378017
  94.2204955  49.2218271  94.4995501  94.2411710  48.5113588  95.8362202
  95.6948403  45.3682674  89.0087819  96.3972447  45.8203718  89.4761745
  95.3629032  44.7266493  89.6367712  94.1428765  43.9594430 103.3839028
  93.5127425  44.6410711 103.6174425  94.0364853  43.8477512 102.4392166
  89.4373737  43.6266226  94.3104952  88.6472791  43.8823755  93.8345063
  89.9284985  44.4414564  94.4156993 103.4537547  50.9671466  97.0610233
 104.2754990  50.5651653  96.7792915 103.4499950  50.8639700  98.0126349
  91.3888483  43.9910806  91.2688429  90.5919646  44.1029500  91.7871925
  91.1614075  44.3297458  90.4029319  97.2194150  50.5155509  99.2170944
  97.2838583  50.9775916 100.0529115  96.5105074  49.8852874  99.3453253
  87.7211440  43.8796717  96.7419943  87.9719479  44.7643727  97.0077519
  88.2570989  43.7001318  95.9695035  96.9342168  52.1823616  89.0849924
  96.7987843  53.0275152  89.5134772  97.4751980  52.3842894  88.3215858
  90.3871565  49.6999054  89.6577849  90.8996086  50.4942305  89.8083414
  91.0394278  49.0025345  89.5911450  92.1966450  52.8164811  91.7400602
  92.3733078  53.7382775  91.5521586  92.9923283  52.5023230  92.1694982
  91.4818806  44.8629443 101.6162765  91.3672322  43.9614700 101.9169864
  90.6263324  45.1093139 101.2647582  98.5610644  52.8047183 103.2150266
  98.1174498  52.0183562 102.8971170  99.2227858  52.9926333 102.5494157
  93.3197765  54.3342985  97.7410944  93.8705191  54.2060048  96.9687938
  92.4809241  54.6337874  97.3905837 100.6591882  53.0849983 101.2431667
 100.6410358  53.9058864 100.7511936 101.5811802  52.9604058 101.4681808
  97.1164936  50.5994112 102.0855176  97.6493273  49.8382401 101.8554484
  96.5879018  50.3067764 102.8279330  88.3520482  48.0287709  90.4337419
  89.1895704  48.4384717  90.2171127  88.5298750  47.0887151  90.4037613
 100.2484914  45.6962789  86.1221252  99.7331538  46.4667394  86.3609640
  99.9762223  45.0227926  86.7454314  97.8332025  40.5412490  91.1806491
  96.9773622  40.1519341  91.0012130  98.2458977  40.6204451  90.3206276
  99.3631172  38.0758833  95.5798051  98.8595967  38.0388969  94.7665856
  99.6561779  38.9851576  95.6394707  95.6074058  38.1597563  94.5864232
  96.4727054  37.9640372  94.2270122  95.6751567  37.9307915  95.5133589
 105.2219188  48.4495144  88.0574426 104.4448631  48.1106304  87.6129588
 105.9010669  48.4547767  87.3829391 100.0371217  43.5689882  87.9481034
  99.7321353  43.8836031  88.7991177 100.9901659  43.6471301  87.9908367
  98.4817649  49.7280105  89.5973988  97.9539011  48.9932864  89.2847225
  97.9805152  50.5054781  89.3513956 103.4610495  47.9229125  94.7141034
 102.8034170  48.6128387  94.8021163 104.2650894  48.3125557  95.0575020
  93.2136377  40.3899771  91.9580599  93.7880129  40.1674953  91.2253792
  93.8007359  40.4588466  92.7109200 102.2715954  46.2773498  92.7644976
 102.7847836  46.9103490  93.2666685 102.9217178  45.6774694  92.3988336
  93.5405964  42.4204232  85.9776484  92.7043276  42.7578919  86.2985759
  93.4010734  42.2853212  85.0403621  95.5159044  37.2641020  90.6855669
  94.8623457  36.9490037  90.0612283  95.4739519  36.6416761  91.4115491
  96.6270249  47.5460315  82.6008961  95.7197311  47.3149569  82.8000110
  97.1241281  46.7497934  82.7882942  99.5338328  56.2557822  85.5205647
  98.8600027  56.5589519  86.1290605  99.9204150  57.0586903  85.1711104
  98.7496785  43.7522954  95.0103316  97.8319346  43.9737901  94.8525004
  99.1656928  43.8269264  94.1515024  99.5331833  45.1514369  90.1405996
 100.2803652  45.6635766  89.8313118  99.8023422  44.8298422  91.0010390
  97.8058483  47.6472910  87.1232951  96.8969702  47.3631943  87.2205420
  97.8353567  48.0671989  86.2636258 103.0377750  51.2579499  90.8924118
 102.5840077  50.4170409  90.9489309 102.4071717  51.8940898  91.2298898
 101.9810670  42.1871486  92.1224786 101.2433427  41.6748872  92.4535028
 102.2337443  41.7471867  91.3108063 101.4810689  53.0955996  91.8273936
 101.7733664  53.6561053  91.1086302 101.9909310  53.3884557  92.5827096
  88.3746653  45.3678424  91.1048153  88.1771053  44.7747785  90.3799219
  87.8193317  45.0630634  91.8224092  96.3543377  45.2601531  93.2242746
  96.4091987  44.3075367  93.1485223  95.5434579  45.4160970  93.7084044
  97.5034571  49.1881654  84.4621029  97.0654001  48.4717513  84.0026667
  98.2445011  49.4157768  83.9006121  94.2935737  43.8778590  90.9833125
  93.4803602  44.1772761  91.3898317  94.7894731  43.4834279  91.7007607
  96.4444315  53.8736347  92.9167390  96.4020493  54.0997194  91.9875922
  97.3607013  53.6399722  93.0653191 105.6207685  47.4638851  90.5197348
 105.4825584  47.6540447  89.5918537 105.2643904  48.2258234  90.9765399
  93.7849811  41.4496946  96.5994360  94.4249191  41.3085705  95.9017323
  92.9527342  41.1631459  96.2232962 105.6477065  49.5315378  95.5308619
 106.0813572  49.4390667  96.3791673 106.3608646  49.5072878  94.8928635
  94.5610115  50.7499376  92.7129352  95.3550714  50.2549696  92.5111927
  93.8501808  50.2217239  92.3497058  99.3804960  53.1317472  97.0641720
  99.4341982  53.7008408  97.8319436  98.5119741  53.3019357  96.6995757
  90.8692879  44.8942458  88.7889105  89.9390467  44.8326914  89.0059067
  90.9650351  44.3718411  87.9925746  90.7878428  41.4197271  91.3767347
  91.0485245  42.3342604  91.2676507  91.6095600  40.9521713  91.5263960
  92.2603353  42.8335028  98.5466171  92.9326407  42.6252390  97.8978820
  91.4333140  42.6357114  98.1071404  98.3393060  47.2977734  98.6228652
  99.2685120  47.4488893  98.4497619  97.9184090  47.3861755  97.7677298
  97.1381391  51.3228398  96.3927189  96.9992477  50.9547183  97.2653128
  96.3495988  51.8376038  96.2211147  97.7329543  56.4237495  87.7352726
  97.9081299  55.9525538  88.5498349  97.0462331  57.0503261  87.9633987
  98.6886607  50.7010001  93.7816027  98.3536439  50.6610771  94.6773677
  98.1890552  50.0354717  93.3086437  92.6630851  46.1077631  99.3068608
  92.5250648  45.3757870  99.9080147  93.5735774  46.0186531  99.0252796
 101.6245798  48.0466035  84.0553087 101.0074969  47.3212863  83.9586140
 101.1562287  48.8075396  83.7120161  95.2913151  45.8197590  98.7952288
  96.0012770  45.1790783  98.7538906  95.2482459  46.0710485  99.7178469
  94.0042085  42.8062808 100.6147928  93.4679442  42.3553547 101.2669524
  93.4158794  42.9408717  99.8718392  92.2990629  59.5726858  94.5092586
  92.5387227  60.2045382  95.1871605  91.4559825  59.2214898  94.7957945
  93.4144344  42.2651460  83.1774391  92.5373810  42.1440260  82.8136638
  93.8902097  41.4737538  82.9253280  84.9346484  47.0528619  93.2715898
  85.6217524  46.7390349  92.6836914  84.7794613  47.9569984  92.9983150
  89.7381206  41.9418816  97.7000922  89.6539395  41.3344485  96.9651332
  88.9163913  42.4327834  97.7010418  96.8118491  55.3805980  96.9134090
  96.7388662  56.1860951  97.4253395  96.3695884  55.5797946  96.0882112
  96.6008270  54.6177750  90.4236912  95.8175792  55.1599430  90.5175136
  97.3001015  55.1351730  90.8231153  99.9104920  40.4272379  93.0671117
 100.4073620  39.6742342  92.7472187  99.1391902  40.4636696  92.5014326
  99.2717174  55.2792814  99.0692249  99.9845146  55.9140279  98.9968150
  98.7807203  55.3756680  98.2532251 100.9934701  49.1844067  90.6409540
 100.0590980  49.3045529  90.4714245 101.1711369  48.2816533  90.3769550
  96.4939889  42.5689762  92.7942802  96.1237677  42.0160803  93.4823707
  96.9898981  41.9647896  92.2417802 104.3807252  45.0261386  91.1759575
 104.8467704  45.8589378  91.1019877 104.8314753  44.5606368  91.8804833
  94.3229088  53.0287257  99.8897820  95.0238547  53.6623740 100.0427214
  93.8524203  53.3701989  99.1293459 102.4483483  51.3705207  88.1745727
 102.7243327  51.2561802  89.0839601 101.5787982  50.9722692  88.1357900
 102.1230374  45.5831865  97.7150370 101.4701824  45.8307772  97.0602823
 102.5010753  44.7696003  97.3812847  99.0837547  55.6191558  91.8178540
  99.2659942  54.8013214  92.2806293  99.9070533  55.8359250  91.3803430
  99.4179713  54.5459743  89.0793589  99.9467479  54.0352198  88.4663751
  99.6807933  54.2302273  89.9439122  89.9196806  52.5623612  96.8228922
  90.5050242  51.8167300  96.9556826  89.7221644  52.8727569  97.7065586
  92.7735461  55.5974860  91.8391365  92.1045836  56.0820988  91.3555405
  92.6348331  55.8444080  92.7534743  84.5114460  45.1329213  95.5433365
  84.5498560  44.5992803  96.3370484  84.0054753  44.6064418  94.9244343
  96.9140729  57.6318603  98.4374023  97.4659037  57.7950225  99.2023108
  97.2546923  58.2223041  97.7654048  91.8905223  39.9793753  99.0395908
  91.9546549  40.8408584  98.6273305  91.8272343  39.3667755  98.3068266
  91.3657495  42.0516886 102.6868942  91.9929534  41.6693963 103.3006466
  90.5085414  41.8331088 103.0524634  88.1423038  43.8593315  88.6187297
  88.4376479  42.9503993  88.5654351  87.2411074  43.8381054  88.2968299
 100.0509117  55.5800579  95.4237705  99.9260256  54.7790319  94.9148651
 100.7088208  56.0746772  94.9351675  91.6717285  41.9349311  94.6014845
  90.9503871  42.5485279  94.4622319  92.4610541  42.4707076  94.5231491
 102.1144025  53.3809599  97.0517255 101.1674361  53.2614950  96.9795582
 102.4626798  52.4932097  97.1343517  89.8710880  41.5407413  88.7426622
  89.5423586  40.6604791  88.5601728  90.2250250  41.4855081  89.6303011
  99.1190458  53.1762315  93.2521608  98.9715421  52.2479023  93.4329178
  99.9443952  53.1982406  92.7678683  92.9852703  41.8280382  89.1102100
  93.3248775  42.3566304  88.3880708  93.4324823  42.1660788  89.8860666
 102.7224580  53.9990874  94.3386480 103.6471128  53.7933735  94.2010931
 102.5539884  53.7507275  95.2475822  95.6796144  40.2117433  98.5605168
  95.3392964  39.4125246  98.9625848  94.9735150  40.5119144  97.9882001
  96.3312615  37.2966745  97.0132491  97.1538685  36.8227224  96.8911381
  96.5750679  38.0757229  97.5131177  94.9720850  40.3255004  87.3095392
  95.6929212  40.7036257  86.8059109  94.3486154  41.0443881  87.4130370
  99.1151973  41.0300153  88.2453725  99.3315587  41.9124791  87.9442553
  98.6346040  40.6386366  87.5159367  93.8551194  43.9885866  94.8224469
  93.7095775  44.3026169  95.7148751  93.3776398  44.6070766  94.2695368
  95.7147577  40.9788414  94.8705359  95.7009146  40.0829507  94.5337657
  96.4320005  40.9859078  95.5043645  97.5673708  41.4125754  96.9158486
  97.3091486  42.3342825  96.9142817  97.0358748  41.0156189  97.6058950
 102.5119896  54.5176541  89.6948572 102.6856774  53.9522964  88.9422424
 103.0048788  55.3177436  89.5128062  88.3296856  46.5291210  97.7612131
  87.7850324  47.3051018  97.8932405  89.2076206  46.8762015  97.6031252
  95.1184473  39.8602794  90.1392929  95.2400384  38.9319441  90.3383817
  94.8286515  39.8741480  89.2271244  97.9875663  37.5457705  93.2759649
  98.0097360  37.6097038  92.3211628  98.4043722  36.7062213  93.4700155
 103.4995069  53.8343306  86.7945470 104.1945974  54.4549998  87.0132785
 103.8418219  52.9838657  87.0697848  89.1162878  45.6561107 100.6542287
  88.3744614  45.8043742 101.2406918  88.7955622  45.9169372  99.7909037
 105.3986492  51.2843011  88.3232801 105.9237816  51.6230284  87.5982121
 105.3108845  50.3490027  88.1395935  97.0606541  55.1977085 100.4522677
  97.3693667  54.9526232 101.3245377  97.8582023  55.4023723  99.9641548
  97.0827153  57.3514995  92.6828054  96.6432143  56.8591373  93.3760911
  97.8335270  56.8087962  92.4420129  89.5619492  53.5426535  92.6852682
  90.3877512  53.2430307  92.3051326  89.2113544  52.7734158  93.1342471
  94.5301025  52.8953004  94.7550356  93.9081034  52.2323709  94.4552583
  95.2005892  52.9214136  94.0724003  87.7628097  51.4612862  93.6441616
  86.9260005  51.0335036  93.4625617  87.7351742  51.6545305  94.5812407
  94.0914532  51.4456927  88.2308816  94.2402652  52.1292391  87.5775489
  94.8980975  51.4262017  88.7458272  91.8467165  47.4722105  89.2369885
  91.6013207  46.5684435  89.4350095  92.0163079  47.4739255  88.2949363
  91.1162812  43.2050462  86.7356047  90.4232057  43.2794817  86.0796083
  90.8714564  42.4410806  87.2577563  97.5909937  53.9405057  85.7020564
  97.0183904  54.5595245  85.2491035  98.1642731  54.4904419  86.2360486
 100.8107197  54.2242208  86.8329146 101.7437870  54.1587769  87.0362021
 100.7230410  55.0598474  86.3743679 103.4395214  53.5408078  83.7933093
 103.3608845  53.2067942  84.6868851 104.2604881  54.0329846  83.7924566
  97.9756736  45.2765870  83.0436616  98.9215841  45.1472078  83.1125034
  97.5970981  44.5380532  83.5206044  96.1599653  43.2015847  82.9791501
  95.2531108  42.9048959  83.0554215  96.4375634  42.9045665  82.1125788
  87.0777593  44.5222210  93.4290548  86.7580378  43.6687518  93.1364922
  86.5311022  44.7370788  94.1848515  90.8557501  47.2384651  97.1460054
  91.0743511  48.1701759  97.1648088  91.2683275  46.8792625  97.9314858
  97.7761719  37.7452736  89.1335743  96.9662447  37.3999821  89.5090989
  98.4646136  37.4360280  89.7223354  99.7052267  36.8230783  90.7560039
 100.2583306  37.2426237  91.4150062  99.9422353  35.8966531  90.7982995
  94.9298438  40.0602782  83.1203481  95.7917602  40.3857680  83.3799298
  95.1148782  39.2734278  82.6076546  86.9465853  48.1425122  95.3983669
  86.2529325  47.7279074  94.8853624  87.6938844  48.1845658  94.8017088
 103.0831074  38.9331308  90.2638704 102.5029743  39.5916112  89.8816756
 102.8167007  38.1108653  89.8526121 101.5334641  38.3336366  92.4660024
 102.0334419  38.4452901  91.6574343 102.1770248  38.0297419  93.1060832
  88.8602596  48.0743375  93.2749684  88.8373284  48.1731063  92.3231567
  89.1703232  48.9208526  93.5966850  91.5189974  50.1319530  97.3896299
  92.4733227  50.1003473  97.3226230  91.3202497  49.6710154  98.2046525
  92.1089356  48.7020646  99.9567096  92.9282245  49.1964725  99.9801934
  92.3826164  47.7852615  99.9284664 101.8655952  41.0931399  89.3195052
 100.9781807  41.3781049  89.1015247 102.2809941  40.9325162  88.4722329
  89.8740203  55.6739150  94.4066496  89.7394671  54.9139551  93.8404495
  89.4572265  56.3980050  93.9395285 101.0099166  50.8576073  83.4143072
 101.7135016  51.0626076  84.0300727 100.2861814  51.4252835  83.6792155
 101.8396976  46.6085935  89.5345342 101.7832177  47.0654486  88.6952974
 102.3925318  45.8476619  89.3568185 105.6501782  42.3975666  90.3595461
 105.3938716  41.9972302  91.1903669 105.0254650  43.1119460  90.2345601
  93.0309328  56.5708467  94.6184939  92.9141713  57.5153899  94.5163629
  92.2101775  56.2682028  95.0070738 102.9185863  51.2958603  85.4641532
 103.7531467  50.8639801  85.2819007 102.7570206  51.1240616  86.3918426
 102.5731755  47.7990716  86.8297871 102.5180559  47.6334987  85.8886315
 101.9477810  48.5066749  86.9860061  87.3624270  43.0358780 100.6559293
  88.0083134  42.5257734 101.1446518  87.1541421  43.7727462 101.2302719
  95.8827881  37.2998825  86.4083190  95.8706551  38.2440665  86.5651460
  96.7751303  37.1168970  86.1142651  94.0563843  57.2236729  97.8340868
  94.9591089  57.2560339  98.1507362  93.8301213  56.2937180  97.8487203
  95.8117445  55.9767715  94.4950946  94.8613076  55.9769577  94.3815318
  96.1149931  55.2300450  93.9786981  99.6980000  33.8941602  90.6629126
  98.9312396  33.3400088  90.8085809 100.1090705  33.9663470  91.5243278
 104.2146660  63.6191158  91.4855124 103.6511525  63.5281095  90.7171412
 104.0999055  62.7991063  91.9657617 103.7201846  64.3751263  87.1956723
 104.4932722  63.8280250  87.0569599 104.0727245  65.2395512  87.4071185
 106.0568124  60.5343929  84.8275173 106.3093644  60.0125450  84.0658636
 105.1192683  60.3710075  84.9301857 105.7764413  62.4372035  87.0299548
 105.6600671  61.7616939  87.6980633 105.8866672  61.9504409  86.2131701
 107.7601440  56.9272082  85.7307586 107.9275843  57.7952318  86.0978057
 107.5698610  57.0899364  84.8068875 103.9689255  61.8402858  93.4310121
 103.0439752  61.7079072  93.6387813 104.2173668  62.6197077  93.9280063
 107.7390661  59.3829739  86.7154253 107.6190287  59.8286790  87.5539733
 107.0443250  59.7315057  86.1567791 101.3298066  61.4836131  94.2653910
 101.4590447  61.7370610  95.1793322 100.6495517  62.0763839  93.9458565
 107.5973272  64.5751439  92.1998254 108.0611617  64.8539142  91.4102876
 107.3330070  63.6734884  92.0171344 106.5342158  60.6974592  89.0087819
 107.2366201  61.1495635  89.4761745 106.2022786  60.0558410  89.6367712
 100.2767492  58.9558144  94.3104952  99.4866546  59.2115673  93.8345063
 100.7678739  59.7706482  94.4156993 102.2282237  59.3202723  91.2688429
 101.4313400  59.4321418  91.7871925 102.0007829  59.6589376  90.4029319
  98.5605195  59.2088635  96.7419943  98.8113233  60.0935645  97.0077519
  99.0964743  59.0293236  95.9695035 107.7735922  67.5115534  89.0849924
 107.6381597  68.3567070  89.5134772 108.3145735  67.7134812  88.3215858
 101.2265320  65.0290972  89.6577849 101.7389840  65.8234222  89.8083414
 101.8788033  64.3317263  89.5911450 103.0360204  68.1456728  91.7400602
 103.2126833  69.0674693  91.5521586 103.8317038  67.8315148  92.1694982
  99.1914237  63.3579626  90.4337419 100.0289459  63.7676635  90.2171127
  99.3692504  62.4179069  90.4037613 106.4467812  53.4889481  94.5864232
 107.3120809  53.2932290  94.2270122 106.5145321  53.2599833  95.5133589
 104.0530131  55.7191689  91.9580599 104.6273883  55.4966870  91.2253792
 104.6401114  55.7880383  92.7109200 104.3799718  57.7496150  85.9776484
 103.5437031  58.0870836  86.2985759 104.2404488  57.6145130  85.0403621
 106.3552799  52.5932938  90.6855669 105.7017211  52.2781955  90.0612283
 106.3133273  51.9708678  91.4115491 107.4664004  62.8752233  82.6008961
 106.5591066  62.6441486  82.8000110 107.9635036  62.0789852  82.7882942
  99.2140408  60.6970342  91.1048153  99.0164807  60.1039702  90.3799219
  98.6587072  60.3922552  91.8224092 107.1937131  60.5893448  93.2242746
 107.2485741  59.6367285  93.1485223 106.3828333  60.7452887  93.7084044
 105.1329491  59.2070508  90.9833125 104.3197357  59.5064679  91.3898317
 105.6288485  58.8126197  91.7007607 104.6243566  56.7788864  96.5994360
 105.2642945  56.6377623  95.9017323 103.7921097  56.4923377  96.2232962
 105.4003870  66.0791294  92.7129352 106.1944468  65.5841614  92.5111927
 104.6895562  65.5509157  92.3497058 101.7086633  60.2234376  88.7889105
 100.7784221  60.1618831  89.0059067 101.8044105  59.7010328  87.9925746
 101.6272182  56.7489189  91.3767347 101.8879000  57.6634522  91.2676507
 102.4489355  56.2813631  91.5263960 104.2538099  57.5943377  83.1774391
 103.3767565  57.4732178  82.8136638 104.7295852  56.8029456  82.9253280
  95.7740239  62.3820537  93.2715898  96.4611279  62.0682267  92.6836914
  95.6188367  63.2861902  92.9983150 100.5774961  57.2710734  97.7000922
 100.4933150  56.6636403  96.9651332  99.7557667  57.7619752  97.7010418
 107.3333643  57.8981680  92.7942802 106.9631431  57.3452720  93.4823707
 107.8292736  57.2939814  92.2417802  95.3508215  60.4621130  95.5433365
  95.3892314  59.9284721  96.3370484  94.8448508  59.9356336  94.9244343
 102.7298977  55.3085671  99.0395908 102.7940304  56.1700502  98.6273305
 102.6666097  54.6959673  98.3068266  98.9816792  59.1885233  88.6187297
  99.2770234  58.2795911  88.5654351  98.0804828  59.1672972  88.2968299
 102.5111039  57.2641229  94.6014845 101.7897625  57.8777197  94.4622319
 103.3004295  57.7998994  94.5231491 100.7104634  56.8699330  88.7426622
 100.3817340  55.9896709  88.5601728 101.0644005  56.8146999  89.6303011
 103.8246457  57.1572300  89.1102100 104.1642530  57.6858221  88.3880708
 104.2718578  57.4952706  89.8860666 107.1706370  52.6258663  97.0132491
 107.9932439  52.1519141  96.8911381 107.4144433  53.4049147  97.5131177
 105.8114604  55.6546922  87.3095392 106.5322967  56.0328174  86.8059109
 105.1879908  56.3735798  87.4130370 104.6944949  59.3177784  94.8224469
 104.5489529  59.6318087  95.7148751 104.2170152  59.9362684  94.2695368
 106.5541331  56.3080332  94.8705359 106.5402900  55.4121425  94.5337657
 107.2713760  56.3150995  95.5043645 105.9578227  55.1894712  90.1392929
 106.0794139  54.2611358  90.3383817 105.6680270  55.2033398  89.2271244
 100.4013246  68.8718453  92.6852682 101.2271266  68.5722225  92.3051326
 100.0507298  68.1026076  93.1342471  98.6021851  66.7904780  93.6441616
  97.7653760  66.3626954  93.4625617  98.5745497  66.9837223  94.5812407
 104.9308286  66.7748845  88.2308816 105.0796407  67.4584309  87.5775489
 105.7374730  66.7553935  88.7458272 102.6860919  62.8014022  89.2369885
 102.4406961  61.8976352  89.4350095 102.8556834  62.8031173  88.2949363
 101.9556567  58.5342380  86.7356047 101.2625812  58.6086735  86.0796083
 101.7108319  57.7702724  87.2577563 106.9993408  58.5307764  82.9791501
 106.0924863  58.2340877  83.0554215 107.2769389  58.2337582  82.1125788
  97.9171348  59.8514128  93.4290548  97.5974132  58.9979436  93.1364922
  97.3704776  60.0662706  94.1848515 105.7692192  55.3894700  83.1203481
 106.6311356  55.7149598  83.3799298 105.9542536  54.6026195  82.6076546
  97.7859608  63.4717039  95.3983669  97.0923079  63.0570992  94.8853624
  98.5332599  63.5137576  94.8017088  99.6996350  63.4035293  93.2749684
  99.6767039  63.5022980  92.3231567 100.0096987  64.2500444  93.5966850
 106.7221635  52.6290743  86.4083190 106.7100305  53.5732582  86.5651460
 107.6145057  52.4460888  86.1142651  70.6203121   5.9205145  81.2337893
  70.8599719   6.5523669  81.9116911  69.7772317   5.5693185  81.5203252
  82.5359152   9.9669445  78.2100431  81.9724018   9.8759382  77.4416719
  82.4211547   9.1469350  78.6902923  80.0823584  11.4620637  81.0484651
  80.8744876  11.1211462  80.6330951  80.3220234  11.5715612  81.9686805
  88.1158711  13.6340413  73.5214896  87.4646691  14.2194494  73.1348910
  88.9103074  14.1646608  73.5809933  82.0414338  10.7229550  73.9202030
  82.8145214  10.1758537  73.7814906  82.3939737  11.5873800  74.1316491
  83.8799381  12.0505933  87.1268929  83.5889247  12.9551563  87.0115596
  84.5156365  12.0922460  87.8412999  84.8055588   9.4282781  83.7170289
  85.4019160   9.2038803  83.0027252  84.8630559   8.6867527  84.3195737
  89.5933976  11.3230845  74.0583880  88.9579809  11.3965472  74.7704785
  89.2631383  11.9124444  73.3802959  84.0976905   8.7850322  73.7544855
  83.9813163   8.1095226  74.4225939  84.2079165   8.2982696  72.9377008
  88.8389266  11.7367348  84.1218723  88.5389989  12.6392387  84.0134530
  88.4940325  11.4699531  84.9739876  82.2901747   8.1881145  80.1555427
  81.3652244   8.0557359  80.3633119  82.5386161   8.9675364  80.6525370
  79.6510558   7.8314418  80.9899217  79.7802940   8.0848897  81.9038628
  78.9708010   8.4242126  80.6703872  83.8210046  18.5011668  77.0889691
  83.7434075  19.4519494  77.1678171  83.2171689  18.1557541  77.7464617
  84.5673648   8.4824987  89.3069025  85.3088332   9.0210031  89.0303848
  83.8610633   9.1091276  89.4640576  90.0428987  10.6254128  87.9041186
  90.4512343  10.1836538  87.1595819  89.3206249  10.0506755  88.1575379
  90.3657802  11.1855318  81.6593475  89.7366665  11.3501032  80.9569543
  89.9783464  11.5996928  82.4304439  94.2447034  12.1209756  79.0137839
  93.5598072  12.5008658  78.4634872  94.3290883  12.7305083  79.7469787
  85.9185764  10.9229726  78.9243560  86.3824109  11.2017429  78.1348183
  85.6542562  10.0213171  78.7416651  82.8109845  10.4701208  81.8623323
  83.3811202  10.8988476  81.2240808  83.4017957  10.1883793  82.5607509
  92.6143794  12.6441671  83.7855540  93.4361237  12.2421858  83.5038221
  92.6106196  12.5409905  84.7371655  86.3800397  12.1925714  85.9416250
  86.4444829  12.6546121  86.7774422  85.6711321  11.5623079  86.0698560
  76.8817687   5.5566922  83.4665250  77.1325725   6.4413932  83.7322826
  77.4177235   5.3771523  82.6940341  86.0948415  13.8593821  75.8095230
  85.9594089  14.7045357  76.2380078  86.6358227  14.0613099  75.0461164
  79.5477812  11.3769259  76.3823156  80.0602333  12.1712510  76.5328720
  80.2000525  10.6795550  76.3156757  81.3572697  14.4935016  78.4645909
  81.5339325  15.4152980  78.2766893  82.1529530  14.1793435  78.8940289
  87.7216891  14.4817388  89.9395573  87.2780745  13.6953766  89.6216477
  88.3834105  14.6696538  89.2739463  82.4804012  16.0113189  84.4656251
  83.0311437  15.8830253  83.6933245  81.6415488  16.3108078  84.1151144
  89.8198129  14.7620188  87.9676974  89.8016604  15.5829069  87.4757243
  90.7418049  14.6374263  88.1927115  86.2771183  12.2764317  88.8100482
  86.8099520  11.5152605  88.5799790  85.7485264  11.9837969  89.5524637
  77.5126729   9.7057914  77.1582726  78.3501951  10.1154922  76.9416434
  77.6904996   8.7657356  77.1282920  87.6423896  11.4050310  76.3219294
  87.1145258  10.6703069  76.0092532  87.1411399  12.1824986  76.0759263
  85.7876496   9.2230520  69.3254267  84.8803558   8.9919773  69.5245416
  86.2847528   8.4268139  69.5128249  88.6944575  17.9328027  72.2450953
  88.0206274  18.2359724  72.8535911  89.0810397  18.7357108  71.8956410
  86.9664730   9.3243115  73.8478257  86.0575949   9.0402148  73.9450727
  86.9959813   9.7442193  72.9881564  92.1983997  12.9349704  77.6169425
  91.7446324  12.0940614  77.6734615  91.5677964  13.5711103  77.9544205
  90.6416936  14.7726201  78.5519243  90.9339911  15.3331258  77.8331609
  91.1515557  15.0654762  79.3072402  77.5352900   7.0448629  77.8293460
  77.3377300   6.4517990  77.1044526  76.9799564   6.7400839  78.5469398
  86.6640817  10.8651859  71.1866336  86.2260247  10.1487718  70.7271973
  87.4051258  11.0927973  70.6251427  85.6050561  15.5506552  79.6412696
  85.5626740  15.7767398  78.7121228  86.5213260  15.3169927  79.7898497
  83.7216362  12.4269581  79.4374659  84.5156961  11.9319901  79.2357234
  83.0108055  11.8987444  79.0742365  88.5411207  14.8087677  83.7887027
  88.5948229  15.3778613  84.5564743  87.6725988  14.9789562  83.4241064
  87.4999306   8.9747939  85.3473958  88.4291366   9.1259098  85.1742926
  87.0790336   9.0631960  84.4922605  86.2987638  12.9998603  83.1172496
  86.1598724  12.6317388  83.9898434  85.5102234  13.5146243  82.9456454
  86.8935790  18.1007700  74.4598033  87.0687546  17.6295743  75.2743655
  86.2068578  18.7273466  74.6879293  87.8492853  12.3780206  80.5061334
  87.5142686  12.3380976  81.4018984  87.3496799  11.7124922  80.0331744
  81.8237097   7.7847836  86.0313915  81.6856895   7.0528075  86.6325454
  82.7342021   7.6956736  85.7498103  81.4596875  21.2497062  81.2337893
  81.6993474  21.8815587  81.9116911  80.6166072  20.8985102  81.5203252
  74.0952731   8.7298824  79.9961205  74.7823771   8.4160554  79.4082220
  73.9400860   9.6340189  79.7228456  85.9724737  17.0576185  83.6379397
  85.8994909  17.8631156  84.1498701  85.5302130  17.2568151  82.8127418
  85.7614517  16.2947955  77.1482218  84.9782039  16.8369635  77.2420443
  86.4607262  16.8121935  77.5476459  88.4323421  16.9563019  85.7937555
  89.1451393  17.5910484  85.7213457  87.9413449  17.0526885  84.9777557
  90.1540948  10.8614272  77.3654847  89.2197226  10.9815734  77.1959551
  90.3317616   9.9586738  77.1014857  83.4835334  14.7057462  86.6143126
  84.1844794  15.3393945  86.7672520  83.0130449  15.0472194  85.8538766
  91.6089730  13.0475412  74.8991033  91.8849574  12.9332007  75.8084907
  90.7394229  12.6492897  74.8603206  88.2443794  17.2961763  78.5423847
  88.4266189  16.4783419  79.0051599  89.0676780  17.5129455  78.1048737
  88.5785960  16.2229948  75.8038895  89.1073726  15.7122403  75.1909057
  88.8414179  15.9072478  76.6684428  79.0803052  14.2393817  83.5474229
  79.6656489  13.4937505  83.6802133  78.8827891  14.5497774  84.4310893
  81.9341708  17.2745065  78.5636671  81.2652083  17.7591192  78.0800711
  81.7954577  17.5214285  79.4780050  73.6720707   6.8099418  82.2678672
  73.7104807   6.2763008  83.0615790  73.1661000   6.2834623  81.6489649
  86.0746976  19.3088808  85.1619330  86.6265284  19.4720430  85.9268415
  86.4153170  19.8993246  84.4899355  89.2115363  17.2570784  82.1483012
  89.0866503  16.4560524  81.6393957  89.8694455  17.7516977  81.6596982
  91.2750272  15.0579804  83.7762562  90.3280607  14.9385155  83.7040889
  91.6233045  14.1702302  83.8588823  88.2796705  14.8532520  79.9766914
  88.1321668  13.9249228  80.1574484  89.1050199  14.8752611  79.4923989
  91.8830827  15.6761079  81.0631787  92.8077374  15.4703940  80.9256238
  91.7146130  15.4277480  81.9721128  91.6726143  16.1946746  76.4193878
  91.8463021  15.6293169  75.6667731  92.1655034  16.9947641  76.2373368
  77.4903103   8.2061415  84.4857437  76.9456571   8.9821223  84.6177711
  78.3682453   8.5532220  84.3276559  92.6601316  15.5113511  73.5190777
  93.3552220  16.1320203  73.7378091  93.0024466  14.6608862  73.7943155
  78.2769125   7.3331312  87.3787594  77.5350861   7.4813947  87.9652224
  77.9561869   7.5939577  86.5154343  94.5592739  12.9613216  75.0478107
  95.0844063  13.3000489  74.3227427  94.4715091  12.0260232  74.8641242
  86.2212788  16.8747290  87.1767984  86.5299914  16.6296437  88.0490684
  87.0188270  17.0793928  86.6886854  86.2433400  19.0285200  79.4073361
  85.8038390  18.5361578  80.1006217  86.9941517  18.4858167  79.1665436
  78.7225739  15.2196740  79.4097989  79.5483758  14.9200512  79.0296632
  78.3719791  14.4504363  79.8587777  83.6907272  14.5723209  81.4795662
  83.0687281  13.9093914  81.1797890  84.3612139  14.5984341  80.7969310
  76.9234344  13.1383067  80.3686922  76.0866252  12.7105241  80.1870924
  76.8957989  13.3315510  81.3057713  83.2520779  13.1227132  74.9554123
  83.4008899  13.8062596  74.3020796  84.0587222  13.1032222  75.4703579
  81.0073412   9.1492310  75.9615192  80.7619454   8.2454640  76.1595402
  81.1769326   9.1509460  75.0194670  86.7516184  15.6175262  72.4265870
  86.1790151  16.2365450  71.9736342  87.3248978  16.1674624  72.9605792
  89.9713444  15.9012413  73.5574452  90.9044117  15.8357974  73.7607328
  89.8836657  16.7368679  73.0988985  92.6001461  15.2178283  70.5178400
  92.5215092  14.8838146  71.4114158  93.4211127  15.7100051  70.5169872
  76.2383840   6.1992415  80.1535854  75.9186625   5.3457723  79.8610228
  75.6917268   6.4140993  80.9093822  80.0163748   8.9154856  83.8705361
  80.2349758   9.8471964  83.8893395  80.4289522   8.5562830  84.6560165
  76.1072100   9.8195326  82.1228976  75.4135572   9.4049279  81.6098930
  76.8545091   9.8615863  81.5262395  78.0208843   9.7513580  79.9994991
  77.9979531   9.8501268  79.0476874  78.3309479  10.5978731  80.3212157
  80.6796221  11.8089735  84.1141605  81.6339474  11.7773678  84.0471537
  80.4808744  11.3480359  84.9291831  81.2695603  10.3790851  86.6812403
  82.0888492  10.8734930  86.7047240  81.5432410   9.4622819  86.6529970
  79.0346449  17.3509355  81.1311803  78.9000917  16.5909756  80.5649801
  78.6178512  18.0750255  80.6640592  90.1705412  12.5346278  70.1388378
  90.8741263  12.7396281  70.7546034  89.4468061  13.1023040  70.4037462
  82.1915575  18.2478672  81.3430246  82.0747959  19.1924104  81.2408936
  81.3708022  17.9452233  81.7316045  92.0792110  12.9728807  72.1886838
  92.9137714  12.5410006  72.0064313  91.9176453  12.8010821  73.1163733
  83.2170089  18.9006934  84.5586174  84.1197336  18.9330544  84.8752669
  82.9907459  17.9707385  84.5732510  84.9723691  17.6537920  81.2196253
  84.0219322  17.6539782  81.1060625  85.2756178  16.9070655  80.7032287
 100.7076385  23.4898459  82.2842015 101.3454795  23.3705206  81.5805355
 100.5897228  24.4379303  82.3429967  97.5166091  23.4425887  82.2203540
  97.1784603  23.3266951  81.3324075  98.3855859  23.0417052  82.2004546
  93.3752907  25.2961363  78.2100431  92.8117772  25.2051300  77.4416719
  93.2605302  24.4761268  78.6902923  97.9985874  24.5960738  88.1789745
  97.9874515  24.2013537  87.3070249  98.1606514  23.8626811  88.7723517
  90.9217339  26.7912555  81.0484651  91.7138631  26.4503379  80.6330951
  91.1613989  26.9007530  81.9686805  98.9552466  28.9632331  73.5214896
  98.3040445  29.5486411  73.1348910  99.7496828  29.4938526  73.5809933
  92.8808093  26.0521468  73.9202030  93.6538969  25.5050455  73.7814906
  93.2333492  26.9165717  74.1316491  94.7193135  27.3797850  87.1268929
  94.4283001  28.2843481  87.0115596  95.3550120  27.4214378  87.8412999
  95.6449342  24.7574699  83.7170289  96.2412914  24.5330721  83.0027252
  95.7024314  24.0159444  84.3195737  95.2174371  22.2114134  71.5520480
  95.4699891  21.6895655  70.7903943  94.2798930  22.0480280  71.6547164
 100.2617653  21.2149912  79.3595223 101.0480743  20.7969336  79.0085640
 100.5256358  22.1196005  79.5276872 100.4327731  26.6522763  74.0583880
  99.7973564  26.7257389  74.7704785 100.1025137  27.2416362  73.3802959
 105.6626081  21.1525146  80.2628202 106.3951252  20.5824362  80.4966031
 104.9065436  20.7646746  80.7034707  94.9370659  24.1142240  73.7544855
  94.8206917  23.4387143  74.4225939  95.0472919  23.6274614  72.9377008
  97.2802200  23.5752387  77.4591544  96.9160407  23.0483008  78.1704466
  98.1369316  23.1850856  77.2858030  96.9207687  18.6042287  72.4552893
  97.0882090  19.4722523  72.8223364  96.7304856  18.7669569  71.5314182
  99.6783020  27.0659266  84.1218723  99.3783743  27.9684305  84.0134530
  99.3334080  26.7991449  84.9739876  93.1295502  23.5173063  80.1555427
  92.2045998  23.3849277  80.3633119  93.3779915  24.2967282  80.6525370
 103.0780164  19.5841806  81.8016160 102.1697042  19.5157214  81.5074921
 103.0267760  20.0613751  82.6297986  96.8996908  21.0599944  73.4399560
  96.7796533  21.5056995  74.2785040  96.2049496  21.4085262  72.8813098
  90.4904313  23.1606336  80.9899217  90.6196694  23.4140815  81.9038628
  89.8101764  23.7534044  80.6703872  94.6603800  33.8303586  77.0889691
  94.5827830  34.7811411  77.1678171  94.0565444  33.4849459  77.7464617
 102.5981974  21.5321418  74.2679894 103.5099830  21.7648804  74.0927591
 102.0891621  22.1158462  73.7054972  95.4067402  23.8116905  89.3069025
  96.1482087  24.3501949  89.0303848  94.7004388  24.4383194  89.4640576
 100.8822742  25.9546045  87.9041186 101.2906098  25.5128456  87.1595819
 100.1600003  25.3798673  88.1575379  97.2353812  20.8918652  85.2774743
  98.0815007  21.3158066  85.4209392  97.1752450  20.2352276  85.9713306
 101.2051557  26.5147236  81.6593475 100.5760419  26.6792950  80.9569543
 100.8177219  26.9288846  82.4304439 105.0840788  27.4501674  79.0137839
 104.3991827  27.8300575  78.4634872 105.1684638  28.0597000  79.7469787
 102.3391720  25.0961633  85.6133182 102.5508615  25.7393393  84.9367563
 102.2921468  24.2623949  85.1455112  99.9417949  17.7079453  82.5169754
  99.0802428  18.0060707  82.8086492  99.9680384  17.9249852  81.5850787
  96.7579518  26.2521644  78.9243560  97.2217864  26.5309347  78.1348183
  96.4936317  25.3505089  78.7416651  93.6503599  25.7993126  81.8623323
  94.2204957  26.2280394  81.2240808  94.2411711  25.5175710  82.5607509
  95.6948404  22.3744796  75.7333125  96.3972448  22.8265840  76.2007052
  95.3629033  21.7328615  76.3613018  94.1428766  20.9656553  90.1084335
  93.5127427  21.6472834  90.3419731  94.0364854  20.8539635  89.1637473
  89.4373738  20.6328349  81.0350259  88.6472792  20.8885878  80.5590369
  89.9284986  21.4476687  81.1402299 103.4537548  27.9733588  83.7855540
 104.2754992  27.5713776  83.5038221 103.4499951  27.8701822  84.7371655
  91.3888484  20.9972928  77.9933736  90.5919647  21.1091623  78.5117231
  91.1614076  21.3359581  77.1274626  97.2194151  27.5217632  85.9416250
  97.2838584  27.9838039  86.7774422  96.5105075  26.8914996  86.0698560
  87.7211441  20.8858840  83.4665250  87.9719480  21.7705849  83.7322826
  88.2570990  20.7063441  82.6940341  96.9342169  29.1885739  75.8095230
  96.7987844  30.0337275  76.2380078  97.4751982  29.3905017  75.0461164
  90.3871567  26.7061177  76.3823156  90.8996087  27.5004427  76.5328720
  91.0394279  26.0087468  76.3156757  92.1966451  29.8226933  78.4645909
  92.3733080  30.7444898  78.2766893  92.9923285  29.5085353  78.8940289
  91.4818808  21.8691565  88.3408072  91.3672323  20.9676822  88.6415171
  90.6263325  22.1155262  87.9892888  98.5610645  29.8109306  89.9395573
  98.1174500  29.0245684  89.6216477  99.2227859  29.9988456  89.2739463
  93.3197767  31.3405107  84.4656251  93.8705192  31.2122171  83.6933245
  92.4809243  31.6399996  84.1151144 100.6591884  30.0912105  87.9676974
 100.6410359  30.9120987  87.4757243 101.5811804  29.9666181  88.1927115
  97.1164938  27.6056235  88.8100482  97.6493275  26.8444523  88.5799790
  96.5879019  27.3129887  89.5524637  88.3520483  25.0349831  77.1582726
  89.1895705  25.4446840  76.9416434  88.5298751  24.0949274  77.1282920
 100.2484915  22.7024912  72.8466559  99.7331539  23.4729517  73.0854946
  99.9762224  22.0290048  73.4699621  97.8332026  17.5474613  77.9051797
  96.9773623  17.1581463  77.7257436  98.2458978  17.6266574  77.0451583
  99.3631173  15.0820956  82.3043357  98.8595969  15.0451091  81.4911162
  99.6561780  15.9913699  82.3640014  95.6074059  15.1659686  81.3109539
  96.4727056  14.9702494  80.9515428  95.6751568  14.9370038  82.2378896
 105.2219190  25.4557267  74.7819733 104.4448632  25.1168426  74.3374895
 105.9010671  25.4609890  74.1074698 100.0371219  20.5752004  74.6726340
  99.7321354  20.8898153  75.5236483 100.9901661  20.6533424  74.7153673
  98.4817650  26.7342227  76.3219294  97.9539012  25.9994987  76.0092532
  97.9805153  27.5116904  76.0759263 103.4610496  24.9291248  81.4386341
 102.8034171  25.6190509  81.5266469 104.2650896  25.3187680  81.7820327
  93.2136378  17.3961894  78.6825906  93.7880130  17.1737075  77.9499099
  93.8007360  17.4650588  79.4354507 102.2715955  23.2835621  79.4890282
 102.7847837  23.9165612  79.9911992 102.9217179  22.6836816  79.1233642
  93.5405965  19.4266355  72.7021791  92.7043277  19.7641041  73.0231066
  93.4010735  19.2915335  71.7648928  95.5159046  14.2703143  77.4100975
  94.8623458  13.9552160  76.7857590  95.4739520  13.6478883  78.1360798
  96.6270251  24.5522438  69.3254267  95.7197312  24.3211691  69.5245416
  97.1241283  23.7560057  69.5128249  99.5338329  33.2619945  72.2450953
  98.8600028  33.5651642  72.8535911  99.9204151  34.0649025  71.8956410
  98.7496786  20.7585076  81.7348623  97.8319347  20.9800023  81.5770311
  99.1656930  20.8331387  80.8760330  99.5331834  22.1576492  76.8651303
 100.2803653  22.6697889  76.5558425  99.8023423  21.8360545  77.7255697
  97.8058484  24.6535033  73.8478257  96.8969703  24.3694065  73.9450727
  97.8353568  25.0734111  72.9881564 103.0377751  28.2641622  77.6169425
 102.5840079  27.4232532  77.6734615 102.4071718  28.9003020  77.9544205
 101.9810671  19.1933608  78.8470092 101.2433428  18.6810994  79.1780335
 102.2337445  18.7533990  78.0353369 101.4810691  30.1018119  78.5519243
 101.7733665  30.6623176  77.8331609 101.9909311  30.3946680  79.3072402
  88.3746654  22.3740547  77.8293460  88.1771054  21.7809907  77.1044526
  87.8193318  22.0692757  78.5469398  96.3543378  22.2663653  79.9488053
  96.4091988  21.3137490  79.8730529  95.5434580  22.4223092  80.4329351
  97.5034572  26.1943776  71.1866336  97.0654002  25.4779635  70.7271973
  98.2445013  26.4219891  70.6251427  94.2935738  20.8840713  77.7078432
  93.4803604  21.1834883  78.1143624  94.7894732  20.4896402  78.4252914
  96.4444316  30.8798470  79.6412696  96.4020495  31.1059316  78.7121228
  97.3607015  30.6461844  79.7898497 105.6207687  24.4700973  77.2442654
 105.4825585  24.6602569  76.3163844 105.2643905  25.2320356  77.7010706
  93.7849813  18.4559068  83.3239667  94.4249192  18.3147828  82.6262630
  92.9527343  18.1693582  82.9478269 105.6477066  26.5377500  82.2553926
 106.0813573  26.4452789  83.1036980 106.3608647  26.5135001  81.6173942
  94.5610117  27.7561499  79.4374659  95.3550715  27.2611819  79.2357234
  93.8501809  27.2279362  79.0742365  99.3804961  30.1379594  83.7887027
  99.4341983  30.7070531  84.5564743  98.5119742  30.3081479  83.4241064
  90.8692880  21.9004581  75.5134412  89.9390468  21.8389036  75.7304374
  90.9650352  21.3780533  74.7171053  90.7878429  18.4259393  78.1012653
  91.0485246  19.3404727  77.9921814  91.6095602  17.9583836  78.2509266
  92.2603355  19.8397151  85.2711478  92.9326408  19.6314513  84.6224127
  91.4333141  19.6419237  84.8316710  98.3393061  24.3039856  85.3473958
  99.2685121  24.4551016  85.1742926  97.9184091  24.3923877  84.4922605
  97.1381393  28.3290521  83.1172496  96.9992478  27.9609305  83.9898434
  96.3495989  28.8438160  82.9456454  97.7329545  33.4299617  74.4598033
  97.9081300  32.9587661  75.2743655  97.0462333  34.0565384  74.6879293
  98.6886608  27.7072124  80.5061334  98.3536440  27.6672894  81.4018984
  98.1890553  27.0416839  80.0331744  92.6630852  23.1139754  86.0313915
  92.5250650  22.3819992  86.6325454  93.5735775  23.0248654  85.7498103
 101.6245799  25.0528158  70.7798394 101.0074970  24.3274986  70.6831446
 101.1562288  25.8137518  70.4365468  95.2913152  22.8259713  85.5197595
  96.0012771  22.1852905  85.4784213  95.2482461  23.0772608  86.4423775
  94.0042086  19.8124931  87.3393234  93.4679443  19.3615669  87.9914830
  93.4158795  19.9470840  86.5963698  92.2990630  36.5788980  81.2337893
  92.5387228  37.2107504  81.9116911  91.4559826  36.2277020  81.5203252
  93.4144345  19.2713582  69.9019698  92.5373812  19.1502383  69.5381944
  93.8902098  18.4799661  69.6498586  84.9346485  24.0590742  79.9961205
  85.6217525  23.7452472  79.4082220  84.7794614  24.9632107  79.7228456
  89.7381208  18.9480938  84.4246229  89.6539396  18.3406608  83.6896639
  88.9163914  19.4389957  84.4255725  96.8118492  32.3868103  83.6379397
  96.7388663  33.1923074  84.1498701  96.3695885  32.5860068  82.8127418
  96.6008271  31.6239873  77.1482218  95.8175793  32.1661553  77.2420443
  97.3001017  32.1413852  77.5476459  99.9104922  17.4334502  79.7916424
 100.4073621  16.6804464  79.4717494  99.1391903  17.4698819  79.2259633
  99.2717175  32.2854937  85.7937555  99.9845148  32.9202401  85.7213457
  98.7807204  32.3818803  84.9777557 100.9934702  26.1906189  77.3654847
 100.0590981  26.3107652  77.1959551 101.1711371  25.2878656  77.1014857
  96.4939890  19.5751885  79.5188108  96.1237678  19.0222925  80.2069014
  96.9898983  18.9710018  78.9663108 104.3807254  22.0323509  77.9004881
 104.8467706  22.8651500  77.8265184 104.8314754  21.5668490  78.6050140
  94.3229089  30.0349380  86.6143126  95.0238548  30.6685863  86.7672520
  93.8524204  30.3764112  85.8538766 102.4483485  28.3767330  74.8991033
 102.7243329  28.2623924  75.8084907 101.5787983  27.9784815  74.8603206
 102.1230375  22.5893987  84.4395677 101.4701825  22.8369895  83.7848129
 102.5010755  21.7758126  84.1058154  99.0837549  32.6253681  78.5423847
  99.2659943  31.8075337  79.0051599  99.9070535  32.8421373  78.1048737
  99.4179714  31.5521866  75.8038895  99.9467481  31.0414320  75.1909057
  99.6807934  31.2364396  76.6684428  89.9196807  29.5685735  83.5474229
  90.5050244  28.8229423  83.6802133  89.7221645  29.8789692  84.4310893
  92.7735462  32.6036982  78.5636671  92.1045837  33.0883110  78.0800711
  92.6348332  32.8506203  79.4780050  84.5114462  22.1391335  82.2678672
  84.5498561  21.6054926  83.0615790  84.0054754  21.6126541  81.6489649
  96.9140731  34.6380726  85.1619330  97.4659039  34.8012347  85.9268415
  97.2546924  35.2285164  84.4899355  91.8905224  16.9855876  85.7641214
  91.9546550  17.8470707  85.3518612  91.8272344  16.3729877  85.0313573
  91.3657496  19.0579008  89.4114249  91.9929535  18.6756086  90.0251773
  90.5085415  18.8393210  89.7769941  88.1423039  20.8655437  75.3432603
  88.4376480  19.9566116  75.2899657  87.2411075  20.8443177  75.0213606
 100.0509118  32.5862702  82.1483012  99.9260257  31.7852441  81.6393957
 100.7088209  33.0808895  81.6596982  91.6717286  18.9411434  81.3260152
  90.9503872  19.5547402  81.1867625  92.4610542  19.4769199  81.2476798
 102.1144026  30.3871722  83.7762562 101.1674362  30.2677073  83.7040889
 102.4626799  29.4994220  83.8588823  89.8710881  18.5469535  75.4671929
  89.5423587  17.6666914  75.2847035  90.2250251  18.4917204  76.3548318
  99.1190460  30.1824438  79.9766914  98.9715422  29.2541145  80.1574484
  99.9443953  30.2044529  79.4923989  92.9852704  18.8342505  75.8347406
  93.3248776  19.3628426  75.1126015  93.4324824  19.1722911  76.6105973
 102.7224581  31.0052997  81.0631787 103.6471129  30.7995858  80.9256238
 102.5539885  30.7569398  81.9721128  95.6796145  17.2179556  85.2850474
  95.3392965  16.4187369  85.6871154  94.9735151  17.5181266  84.7127308
  96.3312617  14.3028868  83.7377797  97.1538686  13.8289346  83.6156688
  96.5750680  15.0819352  84.2376484  94.9720851  17.3317126  74.0340699
  95.6929214  17.7098379  73.5304416  94.3486155  18.0506003  74.1375677
  99.1151974  18.0362275  74.9699031  99.3315588  18.9186913  74.6687860
  98.6346041  17.6448489  74.2404673  93.8551195  20.9947989  81.5469776
  93.7095776  21.3088292  82.4394057  93.3776399  21.6132889  80.9940675
  95.7147578  17.9850537  81.5950666  95.7009147  17.0891630  81.2582963
  96.4320006  17.9921200  82.2288952  97.5673709  18.4187877  83.6403793
  97.3091487  19.3404948  83.6388123  97.0358749  18.0218311  84.3304257
 102.5119898  31.5238664  76.4193878 102.6856775  30.9585086  75.6667731
 103.0048789  32.3239559  76.2373368  88.3296858  23.5353333  84.4857437
  87.7850326  24.3113141  84.6177711  89.2076207  23.8824138  84.3276559
  95.1184474  16.8664917  76.8638236  95.2400385  15.9381563  77.0629123
  94.8286517  16.8803603  75.9516551  97.9875665  14.5519827  80.0004956
  98.0097361  14.6159160  79.0456935  98.4043724  13.7124336  80.1945462
 103.4995070  30.8405428  73.5190777 104.1945975  31.4612121  73.7378091
 103.8418220  29.9900780  73.7943155  89.1162879  22.6623229  87.3787594
  88.3744615  22.8105865  87.9652224  88.7955624  22.9231495  86.5154343
 105.3986493  28.2905134  75.0478107 105.9237817  28.6292407  74.3227427
 105.3108846  27.3552149  74.8641242  97.0606542  32.2039208  87.1767984
  97.3693668  31.9588354  88.0490684  97.8582024  32.4085846  86.6886854
  97.0827154  34.3577117  79.4073361  96.6432144  33.8653496  80.1006217
  97.8335271  33.8150085  79.1665436  89.5619493  30.5488658  79.4097989
  90.3877513  30.2492430  79.0296632  89.2113545  29.7796281  79.8587777
  94.5301026  29.9015126  81.4795662  93.9081036  29.2385831  81.1797890
  95.2005893  29.9276258  80.7969310  87.7628098  28.4674985  80.3686922
  86.9260006  28.0397159  80.1870924  87.7351744  28.6607428  81.3057713
  94.0914533  28.4519050  74.9554123  94.2402653  29.1354514  74.3020796
  94.8980977  28.4324140  75.4703579  91.8467166  24.4784227  75.9615192
  91.6013208  23.5746557  76.1595402  92.0163081  24.4801378  75.0194670
  91.1162814  20.2112585  73.4601353  90.4232059  20.2856940  72.8041389
  90.8714566  19.4472928  73.9822870  97.5909939  30.9467180  72.4265870
  97.0183906  31.5657367  71.9736342  98.1642732  31.4966542  72.9605792
 100.8107198  31.2304330  73.5574452 101.7437872  31.1649892  73.7607328
 100.7230411  32.0660597  73.0988985 103.4395215  30.5470201  70.5178400
 103.3608847  30.2130064  71.4114158 104.2604882  31.0391968  70.5169872
  97.9756737  22.2827993  69.7681923  98.9215842  22.1534201  69.8370341
  97.5970982  21.5442655  70.2451351  96.1599654  20.2077969  69.7036808
  95.2531110  19.9111082  69.7799522  96.4375635  19.9107787  68.8371094
  87.0777595  21.5284333  80.1535854  86.7580379  20.6749641  79.8610228
  86.5311023  21.7432911  80.9093822  90.8557502  24.2446774  83.8705361
  91.0743512  25.1763881  83.8893395  91.2683276  23.8854748  84.6560165
  97.7761720  14.7514859  75.8581049  96.9662448  14.4061944  76.2336295
  98.4646137  14.4422403  76.4468661  94.9298439  17.0664904  69.8448787
  95.7917603  17.3919803  70.1044604  95.1148783  16.2796400  69.3321853
  86.9465855  25.1487244  82.1228976  86.2529326  24.7341197  81.6098930
  87.6938846  25.1907781  81.5262395 103.0831075  15.9393431  76.9884010
 102.5029744  16.5978235  76.6062063 102.8167008  15.1170776  76.5771428
 101.5334642  15.3398489  79.1905330 102.0334420  15.4515023  78.3819649
 102.1770250  15.0359541  79.8306139  88.8602597  25.0805498  79.9994991
  88.8373285  25.1793185  79.0476874  89.1703234  25.9270649  80.3212157
  91.5189975  27.1381653  84.1141605  92.4733229  27.1065595  84.0471537
  91.3202499  26.6772277  84.9291831  92.1089357  25.7082769  86.6812403
  92.9282246  26.2026848  86.7047240  92.3826165  24.7914737  86.6529970
 101.8655953  18.0993521  76.0440358 100.9781808  18.3843172  75.8260553
 102.2809943  17.9387285  75.1967635  89.8740204  32.6801272  81.1311803
  89.7394672  31.9201673  80.5649801  89.4572266  33.4042172  80.6640592
 101.0099167  27.8638196  70.1388378 101.7135017  28.0688198  70.7546034
 100.2861816  28.4314958  70.4037462 101.8396977  23.6148057  76.2590649
 101.7832179  24.0716609  75.4198281 102.3925320  22.8538742  76.0813491
 105.6501783  19.4037789  77.0840768 105.3938717  19.0034425  77.9148976
 105.0254651  20.1181583  76.9590907  93.0309330  33.5770589  81.3430246
  92.9141714  34.5216022  81.2408936  92.2101776  33.2744151  81.7316045
 102.9185864  28.3020725  72.1886838 103.7531468  27.8701924  72.0064313
 102.7570207  28.1302739  73.1163733 102.5731756  24.8052838  73.5543178
 102.5180560  24.6397110  72.6131622 101.9477812  25.5128871  73.7105367
  87.3624271  20.0420903  87.3804600  88.0083135  19.5319857  87.8691825
  87.1541423  20.7789584  87.9548025  95.8827882  14.3060947  73.1328496
  95.8706552  15.2502787  73.2896767  96.7751304  14.1231093  72.8387957
  94.0563844  34.2298851  84.5586174  94.9591091  34.2622462  84.8752669
  93.8301214  33.2999302  84.5732510  95.8117446  32.9829838  81.2196253
  94.8613077  32.9831699  81.1060625  96.1149932  32.2362572  80.7032287
 104.2146661  40.6253281  78.2100431 103.6511527  40.5343218  77.4416719
 104.0999056  39.8053185  78.6902923 101.7611093  42.1204472  81.0484651
 102.5532385  41.7795297  80.6330951 102.0007743  42.2299447  81.9686805
 103.7201847  41.3813386  73.9202030 104.4932723  40.8342373  73.7814906
 104.0727246  42.2457635  74.1316491 105.5586890  42.7089768  87.1268929
 105.2676756  43.6135399  87.0115596 106.1943874  42.7506296  87.8412999
 106.4843097  40.0866616  83.7170289 107.0806669  39.8622639  83.0027252
 106.5418068  39.3451362  84.3195737 106.0568125  37.5406052  71.5520480
 106.3093646  37.0187573  70.7903943 105.1192684  37.3772197  71.6547164
 105.7764414  39.4434158  73.7544855 105.6600672  38.7679061  74.4225939
 105.8866674  38.9566532  72.9377008 107.7601442  33.9334205  72.4552893
 107.9275844  34.8014441  72.8223364 107.5698611  34.0961486  71.5314182
 103.9689256  38.8464980  80.1555427 103.0439753  38.7141194  80.3633119
 104.2173670  39.6259200  80.6525370 107.7390663  36.3891862  73.4399560
 107.6190288  36.8348913  74.2785040 107.0443251  36.7377180  72.8813098
 101.3298067  38.4898254  80.9899217 101.4590449  38.7432733  81.9038628
 100.6495519  39.0825962  80.6703872 105.4997555  49.1595504  77.0889691
 105.4221584  50.1103329  77.1678171 104.8959198  48.8141376  77.7464617
 106.2461157  39.1408823  89.3069025 106.9875841  39.6793867  89.0303848
 105.5398142  39.7675111  89.4640576 107.5973273  41.5813562  78.9243560
 108.0611618  41.8601265  78.1348183 107.3330071  40.6797006  78.7416651
 104.4897354  41.1285043  81.8623323 105.0598711  41.5572312  81.2240808
 105.0805466  40.8467628  82.5607509 106.5342159  37.7036714  75.7333125
 107.2366202  38.1557758  76.2007052 106.2022787  37.0620533  76.3613018
 104.9822521  36.2948471  90.1084335 104.3521181  36.9764752  90.3419731
 104.8758608  36.1831552  89.1637473 100.2767493  35.9620267  81.0350259
  99.4866547  36.2177795  80.5590369 100.7678740  36.7768605  81.1402299
 102.2282238  36.3264846  77.9933736 101.4313402  36.4383540  78.5117231
 102.0007831  36.6651498  77.1274626 108.0587906  42.8509549  85.9416250
 108.1232338  43.3129956  86.7774422 107.3498830  42.2206914  86.0698560
  98.5605196  36.2150757  83.4665250  98.8113234  37.0997767  83.7322826
  99.0964744  36.0355359  82.6940341 107.7735924  44.5177657  75.8095230
 107.6381598  45.3629192  76.2380078 108.3145736  44.7196934  75.0461164
 101.2265321  42.0353095  76.3823156 101.7389842  42.8296345  76.5328720
 101.8788034  41.3379385  76.3156757 103.0360206  45.1518851  78.4645909
 103.2126834  46.0736816  78.2766893 103.8317039  44.8377270  78.8940289
 102.3212562  37.1983483  88.3408072 102.2066077  36.2968740  88.6415171
 101.4657080  37.4447180  87.9892888 104.1591521  46.6697025  84.4656251
 104.7098946  46.5414088  83.6933245 103.3202997  46.9691914  84.1151144
  99.1914238  40.3641749  77.1582726 100.0289460  40.7738757  76.9416434
  99.3692505  39.4241191  77.1282920 106.4467813  30.4951603  81.3109539
 107.3120810  30.2994412  80.9515428 106.5145322  30.2661955  82.2378896
 104.0530133  32.7253811  78.6825906 104.6273884  32.5028993  77.9499099
 104.6401115  32.7942506  79.4354507 104.3799720  34.7558272  72.7021791
 103.5437032  35.0932959  73.0231066 104.2404489  34.6207252  71.7648928
 106.3552800  29.5995060  77.4100975 105.7017213  29.2844077  76.7857590
 106.3133274  28.9770801  78.1360798 107.4664005  39.8814355  69.3254267
 106.5591067  39.6503609  69.5245416 107.9635037  39.0851975  69.5128249
  99.2140409  37.7032464  77.8293460  99.0164809  37.1101825  77.1044526
  98.6587073  37.3984675  78.5469398 107.1937133  37.5955571  79.9488053
 107.2485742  36.6429407  79.8730529 106.3828335  37.7515010  80.4329351
 105.1329492  36.2132631  77.7078432 104.3197358  36.5126801  78.1143624
 105.6288487  35.8188319  78.4252914 107.2838070  46.2090388  79.6412696
 107.2414249  46.4351234  78.7121228 108.2000769  45.9753762  79.7898497
 104.6243567  33.7850986  83.3239667 105.2642947  33.6439745  82.6262630
 103.7921098  33.4985500  82.9478269 105.4003871  43.0853417  79.4374659
 106.1944470  42.5903737  79.2357234 104.6895564  42.5571280  79.0742365
 101.7086635  37.2296498  75.5134412 100.7784223  37.1680954  75.7304374
 101.8044107  36.7072451  74.7171053 101.6272184  33.7551311  78.1012653
 101.8879001  34.6696644  77.9921814 102.4489356  33.2875754  78.2509266
 103.0997109  35.1689068  85.2711478 103.7720162  34.9606430  84.6224127
 102.2726896  34.9711154  84.8316710 107.9775147  43.6582439  83.1172496
 107.8386233  43.2901223  83.9898434 107.1889743  44.1730078  82.9456454
 103.5024606  38.4431671  86.0313915 103.3644404  37.7111910  86.6325454
 104.4129530  38.3540571  85.7498103 106.1306907  38.1551631  85.5197595
 106.8406525  37.5144823  85.4784213 106.0876215  38.4064525  86.4423775
 104.8435841  35.1416848  87.3393234 104.3073198  34.6907587  87.9914830
 104.2552549  35.2762757  86.5963698 103.1384384  51.9080898  81.2337893
 103.3780983  52.5399422  81.9116911 102.2953581  51.5568938  81.5203252
 104.2538100  34.6005500  69.9019698 103.3767566  34.4794301  69.5381944
 104.7295853  33.8091578  69.6498586  95.7740240  39.3882660  79.9961205
  96.4611280  39.0744390  79.4082220  95.6188369  40.2924024  79.7228456
 100.5774962  34.2772856  84.4246229 100.4933151  33.6698526  83.6896639
  99.7557669  34.7681874  84.4255725 107.6512246  47.7160020  83.6379397
 107.5782418  48.5214992  84.1498701 107.2089639  47.9151986  82.8127418
 107.4402026  46.9531790  77.1482218 106.6569548  47.4953470  77.2420443
 108.1394771  47.4705770  77.5476459 107.3333645  34.9043803  79.5188108
 106.9631432  34.3514843  80.2069014 107.8292737  34.3001936  78.9663108
 105.1622843  45.3641298  86.6143126 105.8632303  45.9977781  86.7672520
 104.6917958  45.7056029  85.8538766 100.7590561  44.8977653  83.5474229
 101.3443998  44.1521341  83.6802133 100.5615400  45.2081609  84.4310893
 103.6129217  47.9328900  78.5636671 102.9439592  48.4175028  78.0800711
 103.4742086  48.1798121  79.4780050  95.3508216  37.4683253  82.2678672
  95.3892316  36.9346844  83.0615790  94.8448509  36.9418458  81.6489649
 107.7534485  49.9672644  85.1619330 108.3052793  50.1304265  85.9268415
 108.0940679  50.5577081  84.4899355 102.7298978  32.3147793  85.7641214
 102.7940305  33.1762624  85.3518612 102.6666099  31.7021795  85.0313573
 102.2051251  34.3870926  89.4114249 102.8323290  34.0048003  90.0251773
 101.3479170  34.1685128  89.7769941  98.9816794  36.1947355  75.3432603
  99.2770235  35.2858034  75.2899657  98.0804829  36.1735095  75.0213606
 102.5111041  34.2703352  81.3260152 101.7897626  34.8839319  81.1867625
 103.3004296  34.8061117  81.2476798 100.7104635  33.8761453  75.4671929
 100.3817341  32.9958832  75.2847035 101.0644006  33.8209121  76.3548318
 103.8246458  34.1634423  75.8347406 104.1642531  34.6920344  75.1126015
 104.2718579  34.5014829  76.6105973 106.5189899  32.5471473  85.2850474
 106.1786720  31.7479286  85.6871154 105.8128906  32.8473184  84.7127308
 107.1706371  29.6320786  83.7377797 107.9932440  29.1581264  83.6156688
 107.4144435  30.4111269  84.2376484 105.8114606  32.6609044  74.0340699
 106.5322968  33.0390297  73.5304416 105.1879910  33.3797921  74.1375677
 104.6944950  36.3239906  81.5469776 104.5489531  36.6380209  82.4394057
 104.2170153  36.9424807  80.9940675 106.5541333  33.3142454  81.5950666
 106.5402901  32.4183548  81.2582963 107.2713761  33.3213118  82.2288952
  99.1690612  38.8645251  84.4857437  98.6244080  39.6405059  84.6177711
 100.0469962  39.2116055  84.3276559 105.9578229  32.1956835  76.8638236
 106.0794140  31.2673481  77.0629123 105.6680271  32.2095521  75.9516551
  99.9556634  37.9915147  87.3787594  99.2138370  38.1397782  87.9652224
  99.6349378  38.2523413  86.5154343 100.4013248  45.8780576  79.4097989
 101.2271267  45.5784348  79.0296632 100.0507300  45.1088198  79.8587777
 105.3694781  45.2307044  81.4795662 104.7474790  44.5677749  81.1797890
 106.0399648  45.2568176  80.7969310  98.6021853  43.7966902  80.3686922
  97.7653761  43.3689077  80.1870924  98.5745498  43.9899346  81.3057713
 104.9308288  43.7810967  74.9554123 105.0796408  44.4646432  74.3020796
 105.7374731  43.7616057  75.4703579 102.6860921  39.8076145  75.9615192
 102.4406963  38.9038475  76.1595402 102.8556835  39.8093295  75.0194670
 101.9556568  35.5404503  73.4601353 101.2625813  35.6148858  72.8041389
 101.7108320  34.7764846  73.9822870 106.9993409  35.5369887  69.7036808
 106.0924864  35.2403000  69.7799522 107.2769390  35.2399705  68.8371094
  97.9171349  36.8576250  80.1535854  97.5974134  36.0041559  79.8610228
  97.3704777  37.0724828  80.9093822 101.6951257  39.5738691  83.8705361
 101.9137267  40.5055799  83.8893395 102.1077031  39.2146666  84.6560165
 105.7692193  32.3956822  69.8448787 106.6311357  32.7211720  70.1044604
 105.9542538  31.6088318  69.3321853  97.7859609  40.4779162  82.1228976
  97.0923081  40.0633115  81.6098930  98.5332600  40.5199698  81.5262395
  99.6996352  40.4097416  79.9994991  99.6767040  40.5085103  79.0476874
 100.0096988  41.2562566  80.3212157 102.3583730  42.4673571  84.1141605
 103.3126983  42.4357513  84.0471537 102.1596253  42.0064194  84.9291831
 102.9483112  41.0374687  86.6812403 103.7676001  41.5318765  86.7047240
 103.2219919  40.1206655  86.6529970 100.7133958  48.0093190  81.1311803
 100.5788426  47.2493591  80.5649801 100.2966021  48.7334090  80.6640592
 103.8703084  48.9062507  81.3430246 103.7535468  49.8507940  81.2408936
 103.0495531  48.6036069  81.7316045  98.2018026  35.3712821  87.3804600
  98.8476890  34.8611775  87.8691825  97.9935177  36.1081502  87.9548025
 106.7221636  29.6352865  73.1328496 106.7100306  30.5794705  73.2896767
 107.6145058  29.4523011  72.8387957 104.8957598  49.5590769  84.5586174
 105.7984845  49.5914379  84.8752669 104.6694968  48.6291220  84.5732510
 106.6511200  48.3121756  81.2196253 105.7006831  48.3123617  81.1060625
 106.9543687  47.5654490  80.7032287 106.6133994  54.7174577  79.9961205
 107.3005034  54.4036307  79.4082220 106.4582123  55.6215942  79.7228456
 106.1901971  52.7975171  82.2678672 106.2286070  52.2638761  83.0615790
 105.6842263  52.2710376  81.6489649  92.2990631  13.5851103  67.9583199
  92.5387229  14.2169627  68.6362218  91.4559828  13.2339143  68.2448559
 104.2146663  17.6315403  64.9345737 103.6511528  17.5405340  64.1662025
 104.0999058  16.8115308  65.4148230 101.7611095  19.1266595  67.7729958
 102.5532386  18.7857420  67.3576257 102.0007745  19.2361570  68.6932111
 103.7201848  18.3875508  60.6447337 104.4932724  17.8404495  60.5060213
 104.0727247  19.2519758  60.8561798 105.5586891  19.7151891  73.8514236
 105.2676757  20.6197521  73.7360902 106.1943875  19.7568418  74.5658306
 106.4843098  17.0928739  70.4415596 107.0806670  16.8684761  69.7272559
 106.5418069  16.3513485  71.0441044 105.7764415  16.4496280  60.4790162
 105.6600673  15.7741184  61.1471246 105.8866675  15.9628654  59.6622315
 103.9689258  15.8527103  66.8800734 103.0439754  15.7203317  67.0878426
 104.2173671  16.6321322  67.3770677 101.3298069  15.4960376  67.7144523
 101.4590450  15.7494855  68.6283935 100.6495520  16.0888084  67.3949178
 105.4997556  26.1657626  63.8134997 105.4221586  27.1165451  63.8923478
 104.8959200  25.8203499  64.4709924 106.2461158  16.1470945  76.0314331
 106.9875842  16.6855989  75.7549155 105.5398143  16.7737234  76.1885883
 107.5973274  18.5875684  65.6488867 108.0611620  18.8663387  64.8593489
 107.3330072  17.6859129  65.4661957 104.4897355  18.1347166  68.5868630
 105.0598712  18.5634434  67.9486115 105.0805467  17.8529751  69.2852816
 108.0587907  19.8571672  72.6661557 108.1232340  20.3192079  73.5019729
 107.3498831  19.2269037  72.7943867  98.5605197  13.2212880  70.1910556
  98.8113236  14.1059890  70.4568132  99.0964746  13.0417481  69.4185648
 107.7735925  21.5239779  62.5340537 107.6381600  22.3691315  62.9625385
 108.3145737  21.7259057  61.7706471 101.2265322  19.0415217  63.1068462
 101.7389843  19.8358468  63.2574027 101.8788035  18.3441508  63.0402064
 103.0360207  22.1580974  65.1891215 103.2126835  23.0798938  65.0012199
 103.8317040  21.8439393  65.6185595 104.1591522  23.6759147  71.1901558
 104.7098948  23.5476211  70.4178552 103.3202998  23.9754036  70.8396451
  99.1914239  17.3703872  63.8828033 100.0289461  17.7800880  63.6661740
  99.3692507  16.4303314  63.8528227 107.4664006  16.8876478  56.0499574
 106.5591068  16.6565731  56.2490723 107.9635038  16.0914097  56.2373555
  99.2140410  14.7094587  64.5538766  99.0164810  14.1163948  63.8289833
  98.6587074  14.4046797  65.2714705 107.2838072  23.2152510  66.3658003
 107.2414250  23.4413356  65.4366535 108.2000770  22.9815885  66.5143804
 105.4003872  20.0915539  66.1619966 106.1944471  19.5965859  65.9602541
 104.6895565  19.5633402  65.7987671 107.9775148  20.6644561  69.8417803
 107.8386234  20.2963346  70.7143741 107.1889745  21.1792201  69.6701761
 103.5024608  15.4493794  72.7559222 103.3644405  14.7174033  73.3570761
 104.4129531  15.3602694  72.4743409 103.1384386  28.9143020  67.9583199
 103.3780984  29.5461545  68.6362218 102.2953582  28.5631060  68.2448559
  95.7740241  16.3944782  66.7206512  96.4611281  16.0806512  66.1327527
  95.6188370  17.2986147  66.4473763 107.6512248  24.7222143  70.3624703
 107.5782419  25.5277114  70.8744008 107.2089641  24.9214109  69.5372725
 107.4402027  23.9593913  63.8727525 106.6569549  24.5015593  63.9665749
 108.1394772  24.4767892  64.2721766 105.1622845  22.3703420  73.3388433
 105.8632304  23.0039903  73.4917827 104.6917960  22.7118152  72.5784072
 100.7590563  21.9039775  70.2719536 101.3443999  21.1583463  70.4047440
 100.5615401  22.2143732  71.1556199 103.6129218  24.9391023  65.2881978
 102.9439593  25.4237150  64.8046018 103.4742088  25.1860243  66.2025356
  95.3508217  14.4745376  68.9923979  95.3892317  13.9408966  69.7861097
  94.8448510  13.9480581  68.3734956 107.7534486  26.9734766  71.8864636
 108.3052794  27.1366388  72.6513722 108.0940680  27.5639204  71.2144661
  99.1690613  15.8707373  71.2102744  98.6244081  16.6467181  71.3423018
 100.0469963  16.2178178  71.0521865  99.9556635  14.9977270  74.1032901
  99.2138371  15.1459905  74.6897531  99.6349379  15.2585535  73.2399650
 100.4013249  22.8842698  66.1343295 101.2271269  22.5846470  65.7541939
 100.0507301  22.1150321  66.5833084 105.3694782  22.2369167  68.2040969
 104.7474791  21.5739872  67.9043197 106.0399649  22.2630298  67.5214617
  98.6021854  20.8029025  67.0932229  97.7653762  20.3751199  66.9116230
  98.5745499  20.9961468  68.0303020 104.9308289  20.7873090  61.6799429
 105.0796409  21.4708554  61.0266102 105.7374732  20.7678180  62.1948885
 102.6860922  16.8138268  62.6860498 102.4406964  15.9100598  62.8840708
 102.8556836  16.8155418  61.7439976  97.9171350  13.8638373  66.8781161
  97.5974135  13.0103681  66.5855535  97.3704779  14.0786951  67.6339128
 101.6951258  16.5800814  70.5950668 101.9137268  17.5117922  70.6138701
 102.1077032  16.2208788  71.3805471  97.7859610  17.4841284  68.8474283
  97.0923082  17.0695237  68.3344237  98.5332601  17.5261821  68.2507701
  99.6996353  17.4159538  66.7240297  99.6767041  17.5147225  65.7722181
 100.0096989  18.2624689  67.0457464 102.3583731  19.4735693  70.8386912
 103.3126984  19.4419636  70.7716843 102.1596254  19.0126317  71.6537138
 102.9483113  18.0436809  73.4057710 103.7676002  18.5380888  73.4292547
 103.2219921  17.1268777  73.3775277 100.7133960  25.0155313  67.8557110
 100.5788428  24.2555714  67.2895108 100.2966022  25.7396213  67.3885899
 103.8703086  25.9124630  68.0675552 103.7535470  26.8570062  67.9654243
 103.0495532  25.6098191  68.4561352 104.8957600  26.5652892  71.2831481
 105.7984846  26.5976502  71.5997976 104.6694970  25.6353343  71.2977817
 106.6511202  25.3183878  67.9441559 105.7006833  25.3185740  67.8305932
 106.9543688  24.5716613  67.4277594 106.6133996  31.7236700  66.7206512
 107.3005036  31.4098430  66.1327527 106.4582124  32.6278065  66.4473763
 106.1901972  29.8037293  68.9923979 106.2286071  29.2700884  69.7861097
 105.6842265  29.2772499  68.3734956  34.4975799  56.2557824 112.0715030
  33.8237498  56.5589521 112.6799988  34.8841621  57.0586904 111.7220487
  38.4032684  53.5408080 110.3442477  38.3246316  53.2067943 111.2378235
  39.2242351  54.0329848 110.3433949  35.9736636  50.8576075 109.9652455
  36.6772486  51.0626078 110.5810111  35.2499285  51.4252837 110.2301539
  39.1784131  63.6191160 118.0364508  38.6148996  63.5281097 117.2680796
  39.0636526  62.7991064 118.5167000  44.7583689  67.2862128 113.3478973
  44.1071669  67.8716208 112.9612987  45.5528052  67.8168323 113.4074010
  38.6839317  64.3751265 113.7466107  39.4570193  63.8280252 113.6078983
  39.0364715  65.2395514 113.9580568  41.0205594  60.5343931 111.3784557
  41.2731115  60.0125452 110.6168020  40.0830153  60.3710076 111.4811241
  46.0648877  59.5379709 119.1859300  46.8511966  59.1199132 118.8349717
  46.3287581  60.4425801 119.3540949  46.2358955  64.9752560 113.8847957
  45.6004787  65.0487186 114.5968862  45.9056361  65.5646158 113.2067036
  40.7401883  62.4372037 113.5808932  40.6238141  61.7616940 114.2490016
  40.8504143  61.9504411 112.7641085  43.0833424  61.8982184 117.2855621
  42.7191631  61.3712805 117.9968543  43.9400540  61.5080653 117.1122107
  42.7238911  56.9272084 112.2816970  42.8913313  57.7952320 112.6487441
  42.5336080  57.0899365 111.3578259  42.7028132  59.3829741 113.2663637
  42.5827757  59.8286792 114.1049117  42.0080720  59.7315059 112.7077175
  48.4013198  59.8551214 114.0943971  49.3131054  60.0878601 113.9191668
  47.8922845  60.4388259 113.5319049  42.5610742  64.5751441 118.7507637
  43.0249088  64.8539144 117.9612260  42.2967540  63.6734885 118.5680728
  41.4979628  60.6974593 115.5597202  42.2003672  61.1495637 116.0271129
  41.1660257  60.0558412 116.1877095  42.7373393  67.5115536 115.6359307
  42.6019068  68.3567072 116.0644155  43.2783205  67.7134814 114.8725241
  36.1902790  65.0290974 116.2087233  36.7027311  65.8234224 116.3592797
  36.8425503  64.3317264 116.1420834  37.9997675  68.1456730 118.2909986
  38.1764303  69.0674695 118.1030970  38.7954509  67.8315149 118.7204366
  46.0516139  61.0254709 112.6730636  45.5362763  61.7959314 112.9119023
  45.7793448  60.3519845 113.2963698  51.0250413  63.7787064 114.6083810
  50.2479856  63.4398223 114.1638972  51.7041894  63.7839687 113.9338775
  45.8402442  58.8981801 114.4990417  45.5352578  59.2127950 115.3500560
  46.7932884  58.9763221 114.5417750  44.2848874  65.0572024 116.1483371
  43.7570236  64.3224784 115.8356609  43.7836377  65.8346701 115.9023340
  39.3437189  57.7496152 112.5285868  38.5074501  58.0870838 112.8495143
  39.2041959  57.6145131 111.5913005  42.4301474  62.8752235 109.1518344
  41.5228536  62.6441488 109.3509493  42.9272506  62.0789854 109.3392326
  45.3369553  71.5849742 112.0715030  44.6631252  71.8881439 112.6799988
  45.7235375  72.3878822 111.7220487  45.3363058  60.4806289 116.6915380
  46.0834877  60.9927686 116.3822502  45.6054647  60.1590341 117.5519774
  43.6089708  62.9764829 113.6742334  42.7000927  62.6923862 113.7714804
  43.6384792  63.3963908 112.8145641  47.7841895  57.5163405 118.6734169
  47.0464652  57.0040791 119.0044412  48.0368668  57.0763787 117.8617446
  43.3065796  64.5173573 111.0130413  42.8685226  63.8009432 110.5536050
  44.0476236  64.7449688 110.4515504  40.3641340  66.0791296 119.2638736
  41.1581939  65.5841616 119.0621311  39.6533033  65.5509159 118.9006442
  36.6724104  60.2234377 115.3398489  35.7421692  60.1618833 115.5568451
  36.7681576  59.7010330 114.5435130  47.4277023  63.3757955 110.6062471
  46.8106194  62.6504783 110.5095523  46.9593512  64.1367315 110.2629545
  39.2175569  57.5943379 109.7283775  38.3405035  57.4732180 109.3646021
  39.6933322  56.8029457 109.4762663  46.7965926  64.5135986 117.1918924
  45.8622205  64.6337449 117.0223628  46.9742594  63.6108453 116.9278934
  50.1838477  60.3553305 117.7268958  50.6498930  61.1881297 117.6529261
  50.6345978  59.8898287 118.4314217  48.2514708  66.6997127 114.7255110
  48.5274552  66.5853721 115.6348984  47.3819207  66.3014612 114.6867283
  40.7752075  55.6546923 113.8604776  41.4960437  56.0328176 113.3568493
  40.1517379  56.3735800 113.9639754  44.9183198  56.3592072 114.7963108
  45.1346812  57.2416710 114.4951937  44.4377265  55.9678286 114.0668750
  39.8945757  66.7748847 114.7818200  40.0433877  67.4584311 114.1284873
  40.7012200  66.7553937 115.2967656  37.6498390  62.8014024 115.7879269
  37.4044432  61.8976354 115.9859479  37.8194304  62.8031175 114.8458747
  36.9194037  58.5342382 113.2865430  36.2263282  58.6086737 112.6305466
  36.6745789  57.7702725 113.8086947  43.3941162  69.2696977 112.2529947
  42.8215130  69.8887164 111.8000419  43.9673956  69.8196339 112.7869869
  46.6138422  69.5534127 113.3838530  47.5469095  69.4879689 113.5871405
  46.5261635  70.3890394 112.9253062  49.2426439  68.8699997 110.3442477
  49.1640070  68.5359861 111.2378235  50.0636106  69.3621765 110.3433949
  43.7787961  60.6057790 109.5946000  44.7247066  60.4763998 109.6634418
  43.4002206  59.8672452 110.0715428  41.9630878  58.5307766 109.5300885
  41.0562333  58.2340879 109.6063599  42.2406859  58.2337584 108.6635171
  40.7329663  55.3894701 109.6712864  41.5948827  55.7149600 109.9308681
  40.9180007  54.6026197 109.1585930  48.8862299  54.2623228 116.8148087
  48.3060968  54.9208032 116.4326140  48.6198232  53.4400572 116.4035505
  47.6687177  56.4223318 115.8704435  46.7813032  56.7072969 115.6524630
  48.0841166  56.2617082 115.0231712  51.0201713  56.4469839 119.5858775
  51.7962103  56.9366292 119.8583391  50.2949848  56.8727893 120.0430644
  46.8130391  66.1867993 109.9652455  47.5166241  66.3917995 110.5810111
  46.0893039  66.7544755 110.2301539  47.6428201  61.9377854 116.0854726
  47.5863402  62.3946406 115.2462358  48.1956543  61.1768539 115.9077568
  51.4533007  57.7267586 116.9104845  51.1969941  57.3264222 117.7413053
  50.8285875  58.4411380 116.7854984  48.7217088  66.6250522 112.0150915
  49.5562692  66.1931721 111.8328390  48.5601431  66.4532536 112.9427810
  48.3762980  63.1282635 113.3807255  48.3211784  62.9626907 112.4395699
  47.7509036  63.8358668 113.5369444  41.6859106  52.6290744 112.9592573
  41.6737776  53.5732584 113.1160844  42.5782528  52.4460890 112.6652034
  50.0569324  72.9235297 109.7283775  49.1798790  72.8024098 109.3646021
  50.5327077  72.1321375 109.4762663  52.8024633  73.8599684 109.5300885
  51.8956088  73.5632796 109.6063599  53.0800614  73.5629502 108.6635171
  51.5723417  70.7186619 109.6712864  52.4342581  71.0441517 109.9308681
  51.7573761  69.9318115 109.1585930  34.4975800  33.2619947  98.7960337
  33.8237499  33.5651643  99.4045295  34.8841622  34.0649027  98.4465794
  38.4032686  30.5470202  97.0687784  38.3246317  30.2130066  97.9623542
  39.2242352  31.0391970  97.0679256  35.9736637  27.8638198  96.6897762
  36.6772488  28.0688200  97.3055418  35.2499286  28.4314960  96.9546846
  39.1784132  40.6253283 104.7609814  38.6148997  40.5343220 103.9926102
  39.0636527  39.8053187 105.2412307  44.7583691  44.2924250 100.0724279
  44.1071670  44.8778331  99.6858293  45.5528053  44.8230445 100.1319317
  38.6839318  41.3813387 100.4711414  39.4570194  40.8342375 100.3324290
  39.0364717  42.2457637 100.6825875  41.0205596  37.5406054  98.1029864
  41.2731116  37.0187575  97.3413327  40.0830155  37.3772199  98.2056547
  46.0648878  36.5441832 105.9104607  46.8511968  36.1261255 105.5595024
  46.3287583  37.4487924 106.0786255  46.2358956  41.9814682 100.6093264
  45.6004789  42.0549309 101.3214168  45.9056362  42.5708281  99.9312343
  51.4657306  36.4817065 106.8137585  52.1982477  35.9116282 107.0475415
  50.7096661  36.0938666 107.2544091  40.7401884  39.4434160 100.3054239
  40.6238142  38.7679063 100.9735323  40.8504144  38.9566533  99.4886392
  43.0833425  38.9044307 104.0100928  42.7191632  38.3774928 104.7213849
  43.9400541  38.5142776 103.8367413  42.7238912  33.9334206  99.0062276
  42.8913315  34.8014443  99.3732747  42.5336081  34.0961488  98.0823566
  42.7028133  36.3891864  99.9908943  42.5827758  36.8348915 100.8294423
  42.0080722  36.7377181  99.4322481  40.4635025  49.1595506 103.6399074
  40.3859055  50.1103331 103.7187555  39.8596669  48.8141378 104.2974001
  48.4013199  36.8613337 100.8189277  49.3131055  37.0940724 100.6436975
  47.8922846  37.4450381 100.2564356  47.0082782  41.8439155 108.2102859
  46.3791644  42.0084870 107.5078927  46.6208444  42.2580765 108.9813823
  50.8872013  42.7793593 105.5647222  50.2023052  43.1592495 105.0144256
  50.9715863  43.3888920 106.2979170  42.5610743  41.5813564 105.4752944
  43.0249089  41.8601267 104.6857566  42.2967542  40.6797008 105.2926034
  41.4979630  37.7036716 102.2842509  42.2003673  38.1557760 102.7516435
  41.1660258  37.0620535 102.9122402  49.2568773  43.3025508 110.3364923
  50.0786217  42.9005695 110.0547605  49.2531176  43.1993742 111.2881039
  57.3474766  39.6464256 106.6849895  56.5938474  39.0771654 106.5293899
  57.4822307  39.6126921 107.6320529  42.7373394  44.5177659 102.3604614
  42.6019069  45.3629194 102.7889462  43.2783207  44.7196936 101.5970548
  36.1902792  42.0353097 102.9332539  36.7027312  42.8296347 103.0838104
  36.8425504  41.3379387 102.8666141  37.9997676  45.1518853 105.0155292
  38.1764305  46.0736818 104.8276276  38.7954510  44.8377272 105.4449672
  46.0516140  38.0316831  99.3975943  45.5362764  38.8021436  99.6364330
  45.7793449  37.3581968 100.0209004  51.0250415  40.7849186 101.3329116
  50.2479857  40.4460346 100.8884278  51.7041896  40.7901809 100.6584081
  45.8402444  35.9043924 101.2235724  45.5352579  36.2190073 102.0745867
  46.7932886  35.9825343 101.2663057  44.2848875  42.0634147 102.8728678
  43.7570237  41.3286906 102.5601915  43.7836378  42.8408823 102.6268646
  49.2641721  40.2583167 107.9895724  48.6065396  40.9482429 108.0775853
  50.0682121  40.6479599 108.3329711  48.0747180  38.6127540 106.0399666
  48.5879062  39.2457532 106.5421376  48.7248404  38.0128736 105.6743026
  39.3437190  34.7558274  99.2531175  38.5074502  35.0932961  99.5740449
  39.2041960  34.6207254  98.3158312  42.4301476  39.8814357  95.8763651
  41.5228537  39.6503611  96.0754800  42.9272508  39.0851976  96.0637632
  45.3369555  48.5911864  98.7960337  44.6631253  48.8943561  99.4045295
  45.7235376  49.3940945  98.4465794  45.3363059  37.4868411 103.4160687
  46.0834878  37.9989809 103.1067809  45.6054648  37.1652464 104.2765080
  43.6089709  39.9826952 100.3987641  42.7000928  39.6985985 100.4960111
  43.6384793  40.4026031  99.5390948  48.8408976  43.5933542 104.1678809
  48.3871304  42.7524451 104.2243999  48.2102943  44.2294940 104.5053589
  47.7841896  34.5225528 105.3979476  47.0464653  34.0102914 105.7289719
  48.0368670  34.0825909 104.5862753  47.2841916  45.4310038 105.1028627
  47.5764890  45.9915095 104.3840992  47.7940536  45.7238599 105.8581786
  43.3065797  41.5235696  97.7375720  42.8685227  40.8071555  97.2781357
  44.0476238  41.7511811  97.1760811  42.2475541  46.2090389 106.1922080
  42.2051720  46.4351236 105.2630612  43.1638240  45.9753764 106.3407881
  51.4238912  39.7992893 103.7952038  51.2856810  39.9894489 102.8673227
  51.0675130  40.5612276 104.2520089  51.4508291  41.8669420 108.8063310
  51.8844798  41.7744709 109.6546364  52.1639872  41.8426920 108.1683326
  40.3641342  43.0853418 105.9884043  41.1581940  42.5903738 105.7866618
  39.6533034  42.5571281 105.6251748  45.1836186  45.4671514 110.3396410
  45.2373208  46.0362450 111.1074126  44.3150968  45.6373399 109.9750447
  36.6724105  37.2296500 102.0643795  35.7421693  37.1680956 102.2813757
  36.7681577  36.7072453 101.2680437  43.5360770  48.7591537 101.0107416
  43.7112525  48.2879580 101.8253039  42.8493558  49.3857303 101.2388677
  44.4917833  43.0364043 107.0570718  44.1567665  42.9964813 107.9528367
  43.9921779  42.3708759 106.5841128  47.4277024  40.3820077  97.3307777
  46.8106195  39.6566906  97.2340830  46.9593513  41.1429438  96.9874851
  38.1021855  51.9080900 107.7847276  38.3418453  52.5399424 108.4626295
  37.2591051  51.5568940 108.0712636  39.2175570  34.6005502  96.4529081
  38.3405037  34.4794302  96.0891328  39.6933323  33.8091580  96.2007970
  42.6149717  47.7160022 110.1888780  42.5419888  48.5214993 110.7008085
  42.1727110  47.9151988 109.3636802  42.4039496  46.9531792 103.6991602
  41.6207018  47.4953472 103.7929826  43.1032242  47.4705772 104.0985843
  53.5665904  38.4666787 107.9844099  53.5555780  39.3491502 107.6138032
  52.6983283  38.1138338 107.7898636  45.0748400  47.6146856 112.3446939
  45.7876373  48.2494321 112.2722841  44.5838429  47.7110722 111.5286941
  46.7965927  41.5198109 103.9164231  45.8622206  41.6399571 103.7468935
  46.9742596  40.6170575 103.6524241  50.1838479  37.3615428 104.4514265
  50.6498931  38.1943420 104.3774568  50.6345979  36.8960410 105.1559523
  48.2514710  43.7059249 101.4500417  48.5274554  43.5915844 102.3594291
  47.3819208  43.3076734 101.4112590  44.8868774  47.9545600 105.0933231
  45.0691168  47.1367256 105.5560983  45.7101760  48.1713292 104.6558121
  45.2210939  46.8813785 102.3548279  45.7498706  46.3706240 101.7418441
  45.4839159  46.5656315 103.2193812  38.5766687  47.9328902 105.1146055
  37.9077062  48.4175030 104.6310095  38.4379557  48.1798122 106.0289433
  42.7171956  49.9672645 111.7128713  43.2690264  50.1304267 112.4777799
  43.0578149  50.5577083 111.0408738  45.8540343  47.9154621 108.6992395
  45.7291482  47.1144361 108.1903341  46.5119434  48.4100814 108.2106365
  47.9175251  45.7163641 110.3271946  46.9705587  45.5968992 110.2550272
  48.2658025  44.8286139 110.4098207  44.9221685  45.5116357 106.5276298
  44.7746647  44.5833065 106.7083868  45.7475178  45.5336448 106.0433373
  48.5255807  46.3344916 107.6141171  49.4502354  46.1287777 107.4765622
  48.3571110  46.0861317 108.5230512  40.7752076  32.6609046 100.5850083
  41.4960439  33.0390299 100.0813800  40.1517380  33.3797923 100.6885061
  44.9183199  33.3654195 101.5208415  45.1346813  34.2478833 101.2197243
  44.4377266  32.9740408 100.7914057  48.3151123  46.8530583 102.9703262
  48.4888000  46.2877006 102.2177114  48.8080014  47.6531478 102.7882752
  54.1690514  39.6167006 104.5893562  54.6121660  38.8674332 104.1912685
  53.2917024  39.6077143 104.2067294  49.3026295  46.1697348 100.0700160
  49.9977200  46.7904041 100.2887475  49.6449445  45.3192699 100.3452538
  51.2017718  43.6197053 101.5987491  51.7269042  43.9584326 100.8736811
  51.1140071  42.6844069 101.4150626  42.8858379  49.6869037 105.9582744
  42.4463369  49.1945415 106.6515601  43.6366496  49.1442004 105.7174819
  35.3650718  45.8780578 105.9607372  36.1908738  45.5784349 105.5806016
  35.0144770  45.1088200 106.4097161  40.3332251  45.2307046 108.0305046
  39.7112261  44.5677751 107.7307274  41.0037118  45.2568178 107.3478694
  39.8945758  43.7810969 101.5063506  40.0433879  44.4646433 100.8530179
  40.7012202  43.7616059 102.0212962  53.7123379  41.0872245 106.9816009
  54.5470270  41.5262049 107.1453570  53.8482507  40.6110898 106.1624255
  37.6498391  39.8076147 102.5124575  37.4044433  38.9038477 102.7104785
  37.8194306  39.8093297 101.5704053  36.9194039  35.5404504 100.0110737
  36.2263284  35.6148859  99.3550773  36.6745791  34.7764848 100.5332254
  43.3941164  46.2759100  98.9775254  42.8215131  46.8949287  98.5245726
  43.9673957  46.8258461  99.5115176  46.6138423  46.5596250 100.1083836
  47.5469097  46.4941811 100.3116712  46.5261636  47.3952517  99.6498369
  49.2426440  45.8762120  97.0687784  49.1640072  45.5421984  97.9623542
  50.0636107  46.3683888  97.0679256  43.7787962  37.6119912  96.3191306
  44.7247067  37.4826120  96.3879724  43.4002207  36.8734574  96.7960735
  57.7581181  39.8039866 109.4170139  58.4884570  39.5425154 109.9777842
  57.1488127  39.0668588 109.4572207  55.8396478  37.9447729 110.0144590
  55.1129642  37.8103694 109.4061082  55.4243765  38.2524557 110.8201308
  41.9630879  35.5369889  96.2546192  41.0562335  35.2403001  96.3308905
  42.2406860  35.2399707  95.3880478  40.7329664  32.3956824  96.3958171
  41.5948828  32.7211722  96.6553988  40.9180008  31.6088320  95.8831237
  48.8862300  31.2685350 103.5393394  48.3060969  31.9270154 103.1571446
  48.6198233  30.4462695 103.1280811  47.6687178  33.4285441 102.5949742
  46.7813033  33.7135091 102.3769937  48.0841168  33.2679204 101.7477019
  51.0201715  33.4531962 106.3104081  51.7962105  33.9428414 106.5828698
  50.2949849  33.8790016 106.7675951  53.4574273  34.1659581 107.3678022
  54.0518764  33.9255317 106.6571330  53.5300857  33.4466712 107.9951558
  35.6771429  48.0093192 107.6821187  35.5425897  47.2493593 107.1159185
  35.2603491  48.7334092 107.2149976  46.8130392  43.1930115  96.6897762
  47.5166242  43.3980118  97.3055418  46.0893041  43.7606877  96.9546846
  47.6428202  38.9439977 102.8100032  47.5863404  39.4008528 101.9707665
  48.1956545  38.1830661 102.6322875  51.4533008  34.7329709 103.6350152
  51.1969942  34.3326344 104.4658359  50.8285876  35.4473502 103.5100291
  55.7645346  37.4725782 106.1421443  55.2044904  37.5418971 106.9153005
  55.1588849  37.2966766 105.4220939  38.8340555  48.9062509 107.8939629
  38.7172939  49.8507941 107.7918320  38.0133001  48.6036070 108.2825429
  48.7217089  43.6312645  98.7396222  49.5562693  43.1993843  98.5573697
  48.5601432  43.4594658  99.6673117  48.3762982  40.1344758 100.1052561
  48.3211785  39.9689029  99.1641006  47.7509037  40.8420791 100.2614751
  41.6859107  29.6352867  99.6837880  41.6737777  30.5794707  99.8406151
  42.5782529  29.4523012  99.3897341  39.8595069  49.5590771 111.1095558
  40.7622316  49.5914381 111.4262053  39.6332439  48.6291222 111.1241894
  41.6148671  48.3121757 107.7705636  40.6644302  48.3123619 107.6570009
  41.9181157  47.5654492 107.2541671  57.3501364  54.1482296 108.8351399
  57.9879774  54.0289043 108.1314739  57.2322207  55.0963140 108.8939351
  54.1591071  54.1009724 108.7712924  53.8209582  53.9850789 107.8833458
  55.0280839  53.7000889 108.7513930  50.0177886  55.9545200 104.7609814
  49.4542752  55.8635137 103.9926102  49.9030281  55.1345105 105.2412307
  54.6410854  55.2544576 114.7299129  54.6299494  54.8597374 113.8579633
  54.8031493  54.5210648 115.3232901  47.5642318  57.4496392 107.5994035
  48.3563610  57.1087216 107.1840334  47.8038968  57.5591367 108.5196188
  55.5977445  59.6216168 100.0724279  54.9465425  60.2070248  99.6858293
  56.3921808  60.1522363 100.1319317  49.5233072  56.7105305 100.4711414
  50.2963948  56.1634292 100.3324290  49.8758471  57.5749554 100.6825875
  51.3618115  58.0381687 113.6778313  51.0707981  58.9427318 113.5624979
  51.9975099  58.0798215 114.3922383  52.2874322  55.4158536 110.2679673
  52.8837894  55.1914558 109.5536636  52.3449293  54.6743281 110.8705121
  51.8599350  52.8697971  98.1029864  52.1124871  52.3479492  97.3413327
  50.9223909  52.7064117  98.2056547  56.9042633  51.8733750 105.9104607
  57.6905722  51.4553173 105.5595024  57.1681337  52.7779842 106.0786255
  57.0752710  57.3106600 100.6093264  56.4398543  57.3841226 101.3214168
  56.7450117  57.9000199  99.9312343  62.3051060  51.8108983 106.8137585
  63.0376232  51.2408200 107.0475415  61.5490416  51.4230583 107.2544091
  51.5795639  54.7726077 100.3054239  51.4631897  54.0970981 100.9735323
  51.6897899  54.2858451  99.4886392  53.9227180  54.2336224 104.0100928
  53.5585387  53.7066845 104.7213849  54.7794296  53.8434693 103.8367413
  59.8276480  45.5230557 111.2732194  59.4959805  46.3925968 111.0493409
  59.2322094  45.2066841 111.9526224  53.5632667  49.2626124  99.0062276
  53.7307069  50.1306360  99.3732747  53.3729836  49.4253406  98.0823566
  56.3208000  57.7243103 110.6728107  56.0208723  58.6268142 110.5643914
  55.9759059  57.4575286 111.5249260  49.7720481  54.1756900 106.7064811
  48.8470978  54.0433114 106.9142503  50.0204895  54.9551119 107.2034754
  59.7205144  50.2425643 108.3525544  58.8122021  50.1741051 108.0584305
  59.6692740  50.7197588 109.1807370  53.5421888  51.7183781  99.9908943
  53.4221513  52.1640832 100.8294423  52.8474476  52.0669099  99.4322481
  47.1329292  53.8190173 107.5408600  47.2621674  54.0724652 108.4548012
  46.4526744  54.4117881 107.2213255  51.3028780  64.4887423 103.6399074
  51.2252809  65.4395248 103.7187555  50.6990423  64.1433296 104.2974001
  53.7946009  51.6615289 116.2960441  53.0179344  52.2209209 116.2863306
  54.4336573  52.1472072 116.8175311  61.5866790  48.4442081 110.1303418
  60.9441170  48.7374615 109.4843213  61.0821719  48.3295002 110.9356615
  59.2406954  52.1905255 100.8189277  60.1524810  52.4232641 100.6436975
  58.7316601  52.7742299 100.2564356  52.0492382  54.4700742 115.8578408
  52.7907066  55.0085786 115.5813232  51.3429367  55.0967031 116.0149960
  57.5247721  56.6129882 114.4550570  57.9331077  56.1712293 113.7105202
  56.8024983  56.0382510 114.7084763  53.8778791  51.5502489 111.8284127
  54.7239987  51.9741903 111.9718776  53.8177429  50.8936114 112.5222690
  57.8476536  57.1731073 108.2102859  57.2185399  57.3376787 107.5078927
  57.4602198  57.5872683 108.9813823  61.7265768  58.1085511 105.5647222
  61.0416806  58.4884412 105.0144256  61.8109617  58.7180838 106.2979170
  57.0278237  49.2106858 113.4865300  56.7839169  49.9648918 112.9499576
  57.3038167  49.5892205 114.3212547  58.9816700  55.7545470 112.1642566
  59.1933595  56.3977230 111.4876947  58.9346448  54.9207787 111.6964496
  56.5842929  48.3663291 109.0679138  55.7227408  48.6644544 109.3595876
  56.6105363  48.5833690 108.1360171  53.4004498  56.9105481 105.4752944
  53.8642843  57.1893184 104.6857566  53.1361296  56.0088926 105.2926034
  50.2928579  56.4576963 108.4132707  50.8629936  56.8864231 107.7750192
  50.8836691  56.1759547 109.1116893  52.3373384  53.0328634 102.2842509
  53.0397427  53.4849677 102.7516435  52.0054013  52.3912452 102.9122402
  50.7853746  51.6240390 116.6593718  50.1552406  52.3056671 116.8929115
  50.6789833  51.5123472 115.7146857  46.0798718  51.2912186 107.5859642
  45.2897772  51.5469715 107.1099753  46.5709965  52.1060524 107.6911683
  60.0962528  58.6317425 110.3364923  60.9179971  58.2297613 110.0547605
  60.0924930  58.5285660 111.2881039  48.0313463  51.6556765 104.5443119
  47.2344627  51.7675460 105.0626615  47.8039056  51.9943418 103.6784010
  53.8619131  58.1801469 112.4925634  53.9263563  58.6421876 113.3283806
  53.1530055  57.5498834 112.6207944  44.3636421  51.5442677 110.0174633
  44.6144459  52.4289687 110.2832209  44.8995969  51.3647278 109.2449725
  68.1868521  54.9756174 106.6849895  67.4332229  54.4063572 106.5293899
  68.3216062  54.9418838 107.6320529  53.5767149  59.8469576 102.3604614
  53.4412823  60.6921112 102.7889462  54.1176961  60.0488854 101.5970548
  47.0296546  57.3645014 102.9332539  47.5421067  58.1588264 103.0838104
  47.6819259  56.6671305 102.8666141  48.8391431  60.4810771 105.0155292
  49.0158059  61.4028735 104.8276276  49.6348264  60.1669190 105.4449672
  48.1243787  52.5275402 114.8917456  48.0097302  51.6260660 115.1924555
  47.2688305  52.7739099 114.5402272  55.2035625  60.4693143 116.4904956
  54.7599479  59.6829521 116.1725861  55.8652839  60.6572293 115.8248847
  49.9622746  61.9988944 111.0165635  50.5130171  61.8706008 110.2442629
  49.1234222  62.2983833 110.6660528  57.3016863  60.7495943 114.5186358
  57.2835338  61.5704824 114.0266627  58.2236783  60.6250018 114.7436499
  53.7589917  58.2640072 115.3609866  54.2918254  57.5028360 115.1309174
  53.2303998  57.9713724 116.1034020  56.9259612  43.3700138 110.8903508
  56.5823882  44.2601780 110.8142618  57.2938575  43.1801796 110.0273093
  44.9945463  55.6933669 103.7092110  45.8320685  56.1030677 103.4925817
  45.1723731  54.7533111 103.6792304  56.8909895  53.3608749  99.3975943
  56.3756518  54.1313354  99.6364330  56.6187203  52.6873885 100.0209004
  54.4757006  48.2058450 104.4561181  53.6198602  47.8165300 104.2766820
  54.8883958  48.2850411 103.5960967  56.0056153  45.7404793 108.8552741
  55.5020948  45.7034928 108.0420546  56.2986759  46.6497536 108.9149398
  52.2499038  45.8243523 107.8618923  53.1152035  45.6286332 107.5024812
  52.3176547  45.5953875 108.7888279  61.8644169  56.1141104 101.3329116
  61.0873612  55.7752263 100.8884278  62.5435650  56.1193727 100.6584081
  56.6796198  51.2335841 101.2235724  56.3746334  51.5481990 102.0745867
  57.6326640  51.3117261 101.2663057  55.1242630  57.3926065 102.8728678
  54.5963992  56.6578824 102.5601915  54.6230133  58.1700741 102.6268646
  60.1035476  55.5875085 107.9895724  59.4459150  56.2774346 108.0775853
  60.9075875  55.9771517 108.3329711  49.8561358  48.0545731 105.2335289
  50.4305109  47.8320912 104.5008482  50.4432340  48.1234425 105.9863891
  58.9140935  53.9419458 106.0399666  59.4272817  54.5749450 106.5421376
  59.5642159  53.3420653 105.6743026  50.1830945  50.0850192  99.2531175
  49.3468257  50.4224878  99.5740449  50.0435714  49.9499172  98.3158312
  52.1584025  44.9286980 103.9610359  51.5048438  44.6135997 103.3366974
  52.1164499  44.3062720 104.6870182  53.2695230  55.2106275  95.8763651
  52.3622292  54.9795528  96.0754800  53.7666262  54.4143894  96.0637632
  56.1763309  63.9203782  98.7960337  55.5025008  64.2235479  99.4045295
  56.5629131  64.7232862  98.4465794  55.3921766  51.4168913 108.2858006
  54.4744327  51.6383860 108.1279695  55.8081909  51.4915224 107.4269714
  56.1756813  52.8160329 103.4160687  56.9228632  53.3281726 103.1067809
  56.4448403  52.4944382 104.2765080  54.4483464  55.3118870 100.3987641
  53.5394683  55.0277903 100.4960111  54.4778547  55.7317948  99.5390948
  59.6802731  58.9225459 104.1678809  59.2265058  58.0816369 104.2243999
  59.0496698  59.5586858 104.5053589  58.6235651  49.8517445 105.3979476
  57.8858407  49.3394831 105.7289719  58.8762424  49.4117827 104.5862753
  58.1235670  60.7601956 105.1028627  58.4158645  61.3207013 104.3840992
  58.6334291  61.0530517 105.8581786  58.7247278  42.6293697 105.9921245
  59.0306155  41.7691061 105.7047160  59.4499883  43.2211317 105.7920239
  45.0171634  53.0324384 104.3802843  44.8196034  52.4393745 103.6553910
  44.4618298  52.7276594 105.0978782  52.9968358  52.9247490 106.4997436
  53.0516967  51.9721327 106.4239913  52.1859560  53.0806929 106.9838735
  54.1459551  56.8527613  97.7375720  53.7078981  56.1363472  97.2781357
  54.8869992  57.0803728  97.1760811  50.9360718  51.5424550 104.2587815
  50.1228583  51.8418721 104.6653007  51.4319712  51.1480239 104.9762297
  53.0869295  61.5382307 106.1922080  53.0445474  61.7643153 105.2630612
  54.0031994  61.3045682 106.3407881  56.5334929  52.0066375 113.0902709
  56.8884317  52.2337848 113.9497175  57.1807060  52.3384751 112.4679964
  62.2632666  55.1284810 103.7952038  62.1250565  55.3186406 102.8673227
  61.9068885  55.8904193 104.2520089  50.4274792  49.1142906 109.8749050
  51.0674172  48.9731665 109.1772013  49.5952323  48.8277419 109.4987652
  62.2902046  57.1961337 108.8063310  62.7238552  57.1036627 109.6546364
  63.0033626  57.1718838 108.1683326  51.2035096  58.4145336 105.9884043
  51.9975695  57.9195656 105.7866618  50.4926789  57.8863199 105.6251748
  56.0229941  60.7963432 110.3396410  56.0766963  61.3654368 111.1074126
  55.1544722  60.9665317 109.9750447  47.5117860  52.5588418 102.0643795
  46.5815448  52.4972873 102.2813757  47.6075332  52.0364371 101.2680437
  47.4303409  49.0843231 104.6522037  47.6910226  49.9988564 104.5431197
  48.2520581  48.6167673 104.8018650  48.9028334  50.4980988 111.8220862
  49.5751387  50.2898350 111.1733510  48.0758121  50.3003074 111.3826094
  63.1517595  57.2385038 111.3396195  63.3453485  58.1430849 111.5855470
  63.0518213  56.7792457 112.1734780  54.8053906  47.1242929 113.8386522
  54.1581821  47.8232878 113.7450999  55.5754921  47.5579073 114.2062771
  54.9818040  54.9623694 111.8983342  55.9110100  55.1134853 111.7252309
  54.5609070  55.0507714 111.0431989  53.7806372  58.9874358 109.6681880
  53.6417458  58.6193142 110.5407818  52.9920968  59.5021997 109.4965838
  54.3754524  64.0883454 101.0107416  54.5506280  63.6171498 101.8253039
  53.6887312  64.7149221 101.2388677  55.3311587  58.3655961 107.0570718
  54.9961420  58.3256731 107.9528367  54.8315533  57.7000677 106.5841128
  49.3055831  53.7723591 112.5823299  49.1675629  53.0403830 113.1834838
  50.2160755  53.6832491 112.3007486  58.2670779  55.7111995  97.3307777
  57.6499950  54.9858823  97.2340830  57.7987267  56.4721355  96.9874851
  51.9338132  53.4843550 112.0706978  52.6437750  52.8436742 112.0293597
  51.8907440  53.7356445 112.9933159  50.6467066  50.4708768 113.8902618
  50.1104423  50.0199506 114.5424214  50.0583774  50.6054677 113.1473082
  48.9415609  67.2372817 107.7847276  49.1812208  67.8691341 108.4626295
  48.0984806  66.8860857 108.0712636  50.0569325  49.9297419  96.4529081
  49.1798791  49.8086220  96.0891328  50.5327078  49.1383498  96.2007970
  59.9242318  58.3850487 113.2227537  59.0369097  58.0476409 113.3453936
  60.4940869  57.6533519 113.4596303  41.5771465  54.7174579 106.5470589
  42.2642505  54.4036309 105.9591604  41.4219594  55.6215944 106.2737840
  46.3806187  49.6064776 110.9755612  46.2964376  48.9990445 110.2406022
  45.5588894  50.0973794 110.9765109  53.4543471  63.0451940 110.1888780
  53.3813643  63.8506911 110.7008085  53.0120864  63.2443905 109.3636802
  53.2433251  62.2823710 103.6991602  52.4600773  62.8245390 103.7929826
  53.9425996  62.7997689 104.0985843  56.5529901  48.0918339 106.3425807
  57.0498601  47.3388301 106.0226878  55.7816883  48.1282656 105.7769017
  64.4059658  53.7958705 107.9844099  64.3949535  54.6783420 107.6138032
  63.5377038  53.4430256 107.7898636  55.9142155  62.9438774 112.3446939
  56.6270127  63.5786239 112.2722841  55.4232183  63.0402640 111.5286941
  57.6359682  56.8490026 103.9164231  56.7015960  56.9691489 103.7468935
  57.8136350  55.9462493 103.6524241  53.1364870  50.2335722 106.0697492
  52.7662657  49.6806763 106.7578398  53.6323962  49.6293856 105.5172492
  61.0232233  52.6907346 104.4514265  61.4892685  53.5235337 104.3774568
  61.4739734  52.2252327 105.1559523  50.9654068  60.6933217 113.1652510
  51.6663528  61.3269700 113.3181904  50.4949183  61.0347949 112.4048149
  59.0908464  59.0351167 101.4500417  59.3668308  58.9207762 102.3594291
  58.2212963  58.6368652 101.4112590  58.9948896  45.0587933 108.4905166
  58.0811976  45.2892159 108.6587373  59.4241997  45.1426377 109.3419199
  58.7655354  53.2477825 110.9905060  58.1126805  53.4953732 110.3357513
  59.1435734  52.4341963 110.6567538  55.7262528  63.2837518 105.0933231
  55.9084923  62.4659174 105.5560983  56.5495514  63.5005210 104.6558121
  56.0604694  62.2105703 102.3548279  56.5892460  61.6998158 101.7418441
  56.3232913  61.8948233 103.2193812  54.8142927  53.9897636 117.4771097
  54.1383564  53.8891765 118.1473473  55.6370561  53.8336849 117.9407095
  46.5621786  60.2269572 110.0983613  47.1475223  59.4813260 110.2311517
  46.3646625  60.5373529 110.9820276  49.4160442  63.2620820 105.1146055
  48.7470817  63.7466947 104.6310095  49.2773311  63.5090040 106.0289433
  41.1539441  52.7975172 108.8188056  41.1923541  52.2638763 109.6125174
  40.6479734  52.2710378 108.1999033  53.5565710  65.2964563 111.7128713
  54.1084018  65.4596185 112.4777799  53.8971904  65.8869001 111.0408738
  48.5330203  47.6439713 112.3150598  48.5971530  48.5054544 111.9027996
  48.4697324  47.0313715 111.5822957  44.7848019  51.5239275 101.8941987
  45.0801460  50.6149953 101.8409041  43.8836054  51.5027014 101.5722989
  56.6934097  63.2446539 108.6992395  56.5685237  62.4436278 108.1903341
  57.3513189  63.7392732 108.2106365  48.3142266  49.5995271 107.8769536
  47.5928851  50.2131239 107.7377009  49.1035521  50.1353036 107.7986182
  58.7569006  61.0455559 110.3271946  57.8099341  60.9260910 110.2550272
  59.1051779  60.1578057 110.4098207  51.1168579  46.9349698 114.1510187
  51.6402981  47.1811994 114.9136497  50.8980913  47.7669732 113.7313325
  46.5135860  49.2053372 102.0181312  46.1848566  48.3250751 101.8356418
  46.8675231  49.1501041 102.9057702  55.7615439  60.8408275 106.5276298
  55.6140402  59.9124982 106.7083868  56.5868933  60.8628366 106.0433373
  49.6277683  49.4926342 102.3856790  49.9673756  50.0212263 101.6635398
  50.0749804  49.8306748 103.1615356  59.3649561  61.6636834 107.6141171
  60.2896108  61.4579695 107.4765622  59.1964864  61.4153235 108.5230512
  52.3221124  47.8763393 111.8359858  51.9817945  47.0771206 112.2380538
  51.6160131  48.1765104 111.2636691  52.9737596  44.9612705 110.2887181
  53.7963665  44.4873183 110.1666071  53.2175660  45.7403189 110.7885867
  51.6145831  47.9900964 100.5850083  52.3354193  48.3682216 100.0813800
  50.9911135  48.7089840 100.6885061  55.7576953  48.6946113 101.5208415
  55.9740568  49.5770750 101.2197243  55.2771021  48.3032326 100.7914057
  50.4976175  51.6531826 108.0979160  50.3520756  51.9672129 108.9903441
  50.0201379  52.2716726 107.5450058  52.3572558  48.6434374 108.1460049
  52.3434127  47.7475467 107.8092347  53.0744986  48.6505038 108.7798335
  54.2098688  49.0771714 110.1913177  53.9516466  49.9988785 110.1897507
  53.6783729  48.6802149 110.8813641  59.1544877  62.1822501 102.9703262
  59.3281755  61.6168924 102.2177114  59.6473768  62.9823396 102.7882752
  44.9721837  54.1937170 111.0366821  44.4275305  54.9696978 111.1687095
  45.8501187  54.5407975 110.8785942  51.7609454  47.5248754 103.4147619
  51.8825365  46.5965400 103.6138507  51.4711496  47.5387440 102.5025935
  54.6300644  45.2103665 106.5514339  54.6522341  45.2742998 105.5966319
  55.0468703  44.3708173 106.7454845  65.0084268  54.9458924 104.5893562
  65.4515414  54.1966249 104.1912685  64.1310779  54.9369060 104.2067294
  60.1420050  61.4989266 100.0700160  60.8370954  62.1195958 100.2887475
  60.4843200  60.6484617 100.3452538  45.7587859  53.3207066 113.9296978
  45.0169595  53.4689702 114.5161608  45.4380603  53.5815332 113.0663727
  62.0411473  58.9488971 101.5987491  62.5662797  59.2876244 100.8736811
  61.9533825  58.0135986 101.4150626  53.7031522  62.8623045 113.7277368
  54.0118648  62.6172191 114.6000067  54.5007004  63.0669683 113.2396238
  53.7252134  65.0160954 105.9582744  53.2857124  64.5237333 106.6515601
  54.4760251  64.4733922 105.7174819  46.2044473  61.2072495 105.9607372
  47.0302492  60.9076267 105.5806016  45.8538525  60.4380118 106.4097161
  51.1726006  60.5598963 108.0305046  50.5506015  59.8969668 107.7307274
  51.8430873  60.5860095 107.3478694  44.4053078  59.1258822 106.9196306
  43.5684986  58.6980996 106.7380307  44.3776723  59.3191265 107.8567097
  61.8503254  56.4314341 114.2171418  61.9001259  56.2664349 115.1586940
  61.7417177  55.5641600 113.8269298  50.7339513  59.1102887 101.5063506
  50.8827633  59.7938351 100.8530179  51.5405956  59.0907977 102.0212962
  59.1407016  52.4145269 115.5330724  60.0416879  52.2751734 115.2414722
  59.2154991  52.5799724 116.4728902  53.4749822  49.7912124 114.3783911
  52.6053131  50.0845690 114.1066499  53.7109302  50.3752569 115.0991174
  64.5517133  56.4164162 106.9816009  65.3864024  56.8553966 107.1453570
  64.6876262  55.9402816 106.1624255  61.6008639  53.9743897 112.9293497
  62.0762761  54.1671544 112.1212348  60.6774204  54.0303083 112.6836881
  48.4892146  55.1368064 102.5124575  48.2438188  54.2330394 102.7104785
  48.6588060  55.1385215 101.5704053  56.1788856  46.0091741 111.8949331
  56.6970799  46.7452768 111.5695820  55.8243988  46.3155734 112.7296090
  47.7587793  50.8696422 100.0110737  47.0657038  50.9440777  99.3550773
  47.5139545  50.1056766 100.5332254  56.4301450  42.4292023 107.4150228
  56.7103203  41.7615212 108.0410654  57.2152057  42.6221119 106.9024891
  54.2334918  61.6051017  98.9775254  53.6608885  62.2241204  98.5245726
  54.8067712  62.1550379  99.5115176  60.3010308  50.8509657 111.1621803
  61.2527731  50.9507755 111.1834027  60.1313758  50.0587926 111.6719887
  58.3224687  47.9365241 111.3481204  57.7274620  48.2170253 110.6527692
  58.0374384  48.4259141 112.1197945  57.4532178  61.8888167 100.1083836
  58.3862851  61.8233729 100.3116712  57.3655391  62.7244434  99.6498369
  60.0820195  61.2054038  97.0687784  60.0033826  60.8713901  97.9623542
  60.9029861  61.6975806  97.0679256  62.7798386  54.0715777 110.2764102
  62.7474706  53.1331778 110.4623786  63.3899009  54.1499814 109.5429927
  54.6181717  52.9411830  96.3191306  55.5640821  52.8118038  96.3879724
  54.2395962  52.2026492  96.7960735  62.9292874  50.8626820 110.3222386
  62.4131923  50.0785277 110.1352314  63.8132823  50.5345537 110.4868905
  60.5903601  44.6067836 106.2818198  60.3928422  44.2982924 107.1661530
  61.2003307  45.3329475 106.4116128  68.5974936  55.1331784 109.4170139
  69.3278324  54.8717072 109.9777842  67.9881881  54.3960506 109.4572207
  66.6790233  53.2739646 110.0144590  65.9523396  53.1395611 109.4061082
  66.2637520  53.5816475 110.8201308  54.5020409  56.9929576 117.7791963
  55.4223419  57.1708175 117.9732010  54.4669992  56.0485621 117.6271663
  52.8024634  50.8661806  96.2546192  51.8956089  50.5694919  96.3308905
  53.0800615  50.5691624  95.3880478  43.7202574  52.1868170 106.7045238
  43.4005359  51.3333478 106.4119612  43.1736002  52.4016748 107.4603205
  47.4982482  54.9030611 110.4214745  47.7168492  55.8347719 110.4402778
  47.9108256  54.5438585 111.2069548  54.4186700  45.4098696 102.4090433
  53.6087428  45.0645781 102.7845679  55.1071116  45.1006240 102.9978044
  56.3477248  44.4876743 104.0314730  56.9008286  44.9072196 104.6904753
  56.5847334  43.5612491 104.0737686  51.5723418  47.7248742  96.3958171
  52.4342582  48.0503640  96.6553988  51.7573763  46.9380237  95.8831237
  43.5890834  55.8071081 108.6738360  42.8954306  55.3925034 108.1608314
  44.3363825  55.8491618 108.0771778  59.7256055  46.5977268 103.5393394
  59.1454724  47.2562072 103.1571446  59.4591988  45.7754613 103.1280811
  58.1759621  45.9982326 105.7414714  58.6759400  46.1098860 104.9329033
  58.8195229  45.6943379 106.3815523  52.2341617  53.9060955 118.6282555
  51.7508699  54.7061315 118.8346444  52.3202556  53.9168900 117.6749999
  45.5027577  55.7389335 106.5504374  45.4798265  55.8377022 105.5986258
  45.8128213  56.5854486 106.8721541  48.1614955  57.7965490 110.6650989
  49.1158208  57.7649432 110.5980920  47.9627478  57.3356114 111.4801215
  48.7514337  56.3666606 113.2321787  49.5707226  56.8610685 113.2556624
  49.0251144  55.4498574 113.2039354  58.5080933  48.7577358 102.5949742
  57.6206788  49.0427009 102.3769937  58.9234922  48.5971122 101.7477019
  61.8595469  48.7823879 106.3104081  62.6355859  49.2720332 106.5828698
  61.1343603  49.2081934 106.7675951  64.2968028  49.4951499 107.3678022
  64.8912519  49.2547235 106.6571330  64.3694611  48.7758629 107.9951558
  46.5165183  63.3385110 107.6821187  46.3819651  62.5785510 107.1159185
  46.0997246  64.0626009 107.2149976  57.6524146  58.5222033  96.6897762
  58.3559997  58.7272036  97.3055418  56.9286795  59.0898795  96.9546846
  58.4821957  54.2731894 102.8100032  58.4257158  54.7300446 101.9707665
  59.0350299  53.5122579 102.6322875  62.2926763  50.0621626 103.6350152
  62.0363697  49.6618262 104.4658359  61.6679631  50.7765420 103.5100291
  66.6039100  52.8017699 106.1421443  66.0438658  52.8710889 106.9153005
  65.9982604  52.6258684 105.4220939  49.6734309  64.2354427 107.8939629
  49.5566693  65.1799859 107.7918320  48.8526756  63.9327988 108.2825429
  59.5610844  58.9604562  98.7396222  60.3956448  58.5285761  98.5573697
  59.3995187  58.7886576  99.6673117  59.2156736  55.4636676 100.1052561
  59.1605540  55.2980947  99.1641006  58.5902791  56.1712709 100.2614751
  52.5252861  44.9644785  99.6837880  52.5131531  45.9086625  99.8406151
  53.4176283  44.7814930  99.3897341  50.6988823  64.8882688 111.1095558
  51.6016070  64.9206299 111.4262053  50.4726193  63.9583139 111.1241894
  52.4542425  63.6413675 107.7705636  51.5038056  63.6415537 107.6570009
  52.7574912  62.8946410 107.2541671  56.3404981  41.5587561 103.9383817
  55.5737377  41.0046048 104.0840499  56.7515686  41.6309430 104.7997968
  60.8571641  71.2837118 104.7609814  60.2936506  71.1927055 103.9926102
  60.7424036  70.4637022 105.2412307  66.4371200  74.9508086 100.0724279
  65.7859179  75.5362166  99.6858293  67.2315562  75.4814281 100.1319317
  60.3626827  72.0397223 100.4711414  61.1357703  71.4926210 100.3324290
  60.7152226  72.9041472 100.6825875  62.6993105  68.1989889  98.1029864
  62.9518625  67.6771410  97.3413327  61.7617664  68.0356034  98.2056547
  67.7436387  67.2025667 105.9104607  68.5299477  66.7845090 105.5595024
  68.0075092  68.1071759 106.0786255  67.9146465  72.6398518 100.6093264
  67.2792298  72.7133144 101.3214168  67.5843871  73.2292116  99.9312343
  62.4189393  70.1017995 100.3054239  62.3025651  69.4262898 100.9735323
  62.5291653  69.6150369  99.4886392  64.7620934  69.5628142 104.0100928
  64.3979141  69.0358763 104.7213849  65.6188050  69.1726611 103.8367413
  64.4026421  64.5918042  99.0062276  64.5700824  65.4598278  99.3732747
  64.2123590  64.7545323  98.0823566  60.6114236  69.5048817 106.7064811
  59.6864732  69.3725032 106.9142503  60.8598649  70.2843037 107.2034754
  64.3815642  67.0475699  99.9908943  64.2615267  67.4932750 100.8294423
  63.6868230  67.3961017  99.4322481  57.9723047  69.1482091 107.5408600
  58.1015428  69.4016570 108.4548012  57.2920498  69.7409799 107.2213255
  70.0800708  67.5197172 100.8189277  70.9918564  67.7524559 100.6436975
  69.5710355  68.1034217 100.2564356  67.4236683  63.6955208 109.0679138
  66.5621162  63.9936462 109.3595876  67.4499118  63.9125607 108.1360171
  64.2398252  72.2397399 105.4752944  64.7036598  72.5185102 104.6857566
  63.9755051  71.3380843 105.2926034  63.1767139  68.3620551 102.2842509
  63.8791182  68.8141595 102.7516435  62.8447767  67.7204370 102.9122402
  56.9192472  66.6204104 107.5859642  56.1291526  66.8761632 107.1099753
  57.4103720  67.4352442 107.6911683  58.8707218  66.9848683 104.5443119
  58.0738381  67.0967377 105.0626615  58.6432810  67.3235335 103.6784010
  55.2030175  66.8734594 110.0174633  55.4538214  67.7581604 110.2832209
  55.7389724  66.6939196 109.2449725  64.4160903  75.1761494 102.3604614
  64.2806578  76.0213030 102.7889462  64.9570716  75.3780772 101.5970548
  57.8690301  72.6936932 102.9332539  58.3814821  73.4880182 103.0838104
  58.5213013  71.9963222 102.8666141  59.6785185  75.8102688 105.0155292
  59.8551814  76.7320653 104.8276276  60.4742019  75.4961107 105.4449672
  67.7653367  58.6992056 110.8903508  67.4217636  59.5893697 110.8142618
  68.1332329  58.5093713 110.0273093  55.8339217  71.0225586 103.7092110
  56.6714439  71.4322595 103.4925817  56.0117485  70.0825028 103.6792304
  67.7303649  68.6900667  99.3975943  67.2150273  69.4605271  99.6364330
  67.4580958  68.0165803 100.0209004  65.3150760  63.5350368 104.4561181
  64.4592357  63.1457218 104.2766820  65.7277712  63.6142328 103.5960967
  66.8449907  61.0696711 108.8552741  66.3414703  61.0326846 108.0420546
  67.1380514  61.9789454 108.9149398  63.0892793  61.1535441 107.8618923
  63.9545790  60.9578249 107.5024812  63.1570302  60.9245792 108.7888279
  72.7037924  71.4433021 101.3329116  71.9267366  71.1044181 100.8884278
  73.3829405  71.4485645 100.6584081  67.5189953  66.5627759 101.2235724
  67.2140088  66.8773908 102.0745867  68.4720395  66.6409179 101.2663057
  65.9636384  72.7217982 102.8728678  65.4357746  71.9870742 102.5601915
  65.4623887  73.4992659 102.6268646  60.6955112  63.3837649 105.2335289
  61.2698864  63.1612830 104.5008482  61.2826094  63.4526343 105.9863891
  61.0224699  65.4142110  99.2531175  60.1862011  65.7516796  99.5740449
  60.8829469  65.2791089  98.3158312  62.9977780  60.2578897 103.9610359
  62.3442192  59.9427915 103.3366974  62.9558254  59.6354638 104.6870182
  64.1088985  70.5398193  95.8763651  63.2016046  70.3087446  96.0754800
  64.6060017  69.7435812  96.0637632  67.0157063  79.2495700  98.7960337
  66.3418762  79.5527396  99.4045295  67.4022885  80.0524780  98.4465794
  66.2315520  66.7460831 108.2858006  65.3138081  66.9675778 108.1279695
  66.6475664  66.8207141 107.4269714  67.0150568  68.1452247 103.4160687
  67.7622387  68.6573644 103.1067809  67.2842157  67.8236299 104.2765080
  65.2877218  70.6410787 100.3987641  64.3788437  70.3569820 100.4960111
  65.3172302  71.0609866  99.5390948  69.4629405  65.1809363 105.3979476
  68.7252162  64.6686749 105.7289719  69.7156179  64.7409745 104.5862753
  69.5641032  57.9585615 105.9921245  69.8699909  57.0982978 105.7047160
  70.2893637  58.5503235 105.7920239  55.8565388  68.3616302 104.3802843
  55.6589788  67.7685662 103.6553910  55.3012052  68.0568512 105.0978782
  63.8362112  68.2539408 106.4997436  63.8910722  67.3013244 106.4239913
  63.0253314  68.4098847 106.9838735  64.9853306  72.1819531  97.7375720
  64.5472736  71.4655390  97.2781357  65.7263747  72.4095646  97.1760811
  61.7754472  66.8716468 104.2587815  60.9622338  67.1710638 104.6653007
  62.2713466  66.4772157 104.9762297  61.2668547  64.4434823 109.8749050
  61.9067926  64.3023582 109.1772013  60.4346077  64.1569337 109.4987652
  62.0428851  73.7437254 105.9884043  62.8369449  73.2487574 105.7866618
  61.3320543  73.2155117 105.6251748  58.3511614  67.8880335 102.0643795
  57.4209202  67.8264791 102.2813757  58.4469086  67.3656288 101.2680437
  58.2697163  64.4135148 104.6522037  58.5303980  65.3280482 104.5431197
  59.0914336  63.9459591 104.8018650  69.1064533  71.0403913  97.3307777
  68.4893704  70.3150741  97.2340830  68.6381022  71.8013273  96.9874851
  60.8963079  65.2589337  96.4529081  60.0192546  65.1378138  96.0891328
  61.3720832  64.4675415  96.2007970  52.4165220  70.0466497 106.5470589
  53.1036259  69.7328227 105.9591604  52.2613348  70.9507861 106.2737840
  57.2199942  64.9356693 110.9755612  57.1358130  64.3282363 110.2406022
  56.3982648  65.4265712 110.9765109  67.3923656  63.4210257 106.3425807
  67.8892355  62.6680219 106.0226878  66.6210637  63.4574573 105.7769017
  68.4753436  72.1781944 103.9164231  67.5409715  72.2983407 103.7468935
  68.6530105  71.2754411 103.6524241  63.9758624  65.5627640 106.0697492
  63.6056412  65.0098680 106.7578398  64.4717717  64.9585773 105.5172492
  71.8625988  68.0199263 104.4514265  72.3286440  68.8527255 104.3774568
  72.3133488  67.5544245 105.1559523  69.9302219  74.3643085 101.4500417
  70.2062063  74.2499679 102.3594291  69.0606717  73.9660569 101.4112590
  69.8342650  60.3879850 108.4905166  68.9205730  60.6184077 108.6587373
  70.2635752  60.4718294 109.3419199  51.9933196  68.1267090 108.8188056
  52.0317295  67.5930681 109.6125174  51.4873488  67.6002296 108.1999033
  59.3723958  62.9731631 112.3150598  59.4365284  63.8346462 111.9027996
  59.3091078  62.3605632 111.5822957  55.6241773  66.8531192 101.8941987
  55.9195214  65.9441871 101.8409041  54.7229809  66.8318932 101.5722989
  59.1536020  64.9287189 107.8769536  58.4322606  65.5423157 107.7377009
  59.9429276  65.4644954 107.7986182  57.3529615  64.5345290 102.0181312
  57.0242321  63.6542669 101.8356418  57.7068985  64.4792959 102.9057702
  60.4671438  64.8218260 102.3856790  60.8067510  65.3504181 101.6635398
  60.9143558  65.1598666 103.1615356  63.8131351  60.2904623 110.2887181
  64.6357420  59.8165101 110.1666071  64.0569414  61.0695107 110.7885867
  62.4539585  63.3192881 100.5850083  63.1747948  63.6974134 100.0813800
  61.8304889  64.0381758 100.6885061  66.5970708  64.0238030 101.5208415
  66.8134322  64.9062668 101.2197243  66.1164775  63.6324244 100.7914057
  61.3369929  66.9823744 108.0979160  61.1914510  67.2964047 108.9903441
  60.8595133  67.6008644 107.5450058  63.1966312  63.9726291 108.1460049
  63.1827881  63.0767385 107.8092347  63.9138740  63.9796955 108.7798335
  62.6003208  62.8540672 103.4147619  62.7219119  61.9257318 103.6138507
  62.3105251  62.8679358 102.5025935  65.4694399  60.5395582 106.5514339
  65.4916095  60.6034915 105.5966319  65.8862458  59.7000091 106.7454845
  57.0438227  76.5364413 105.9607372  57.8696247  76.2368185 105.5806016
  56.6932279  75.7672035 106.4097161  55.2446832  74.4550739 106.9196306
  54.4078740  74.0272914 106.7380307  55.2170478  74.6483183 107.8567097
  61.5733267  74.4394804 101.5063506  61.7221388  75.1230269 100.8530179
  62.3799711  74.4199895 102.0212962  59.3285900  70.4659982 102.5124575
  59.0831942  69.5622312 102.7104785  59.4981815  70.4677133 101.5704053
  58.5981548  66.1988340 100.0110737  57.9050793  66.2732695  99.3550773
  58.3533300  65.4348683 100.5332254  67.2695204  57.7583941 107.4150228
  67.5496958  57.0907130 108.0410654  68.0545811  57.9513037 106.9024891
  65.0728673  76.9342935  98.9775254  64.5002640  77.5533122  98.5245726
  65.6461466  77.4842297  99.5115176  68.2925932  77.2180085 100.1083836
  69.2256606  77.1525647 100.3116712  68.2049145  78.0536352  99.6498369
  70.9213949  76.5345955  97.0687784  70.8427581  76.2005819  97.9623542
  71.7423616  77.0267723  97.0679256  65.4575471  68.2703748  96.3191306
  66.4034576  68.1409956  96.3879724  65.0789716  67.5318410  96.7960735
  71.4297356  59.9359754 106.2818198  71.2322177  59.6274842 107.1661530
  72.0397061  60.6621393 106.4116128  63.6418388  66.1953724  96.2546192
  62.7349844  65.8986837  96.3308905  63.9194369  65.8983542  95.3880478
  54.5596329  67.5160087 106.7045238  54.2399113  66.6625396 106.4119612
  54.0129757  67.7308666 107.4603205  65.2580454  60.7390614 102.4090433
  64.4481182  60.3937699 102.7845679  65.9464871  60.4298157 102.9978044
  67.1871002  59.8168661 104.0314730  67.7402041  60.2364114 104.6904753
  67.4241089  58.8904409 104.0737686  62.4117173  63.0540659  96.3958171
  63.2736337  63.3795558  96.6553988  62.5967517  62.2672155  95.8831237
  54.4284589  71.1362999 108.6738360  53.7348060  70.7216952 108.1608314
  55.1757580  71.1783535 108.0771778  70.5649809  61.9269186 103.5393394
  69.9848478  62.5853990 103.1571446  70.2985742  61.1046530 103.1280811
  69.0153376  61.3274243 105.7414714  69.5153154  61.4390778 104.9329033
  69.6588984  61.0235296 106.3815523  56.3421331  71.0681253 106.5504374
  56.3192019  71.1668940 105.5986258  56.6521968  71.9146404 106.8721541
  69.3474687  64.0869276 102.5949742  68.4600542  64.3718927 102.3769937
  69.7628677  63.9263039 101.7477019  72.6989224  64.1115797 106.3104081
  73.4749614  64.6012250 106.5828698  71.9737358  64.5373851 106.7675951
  68.4917901  73.8513951  96.6897762  69.1953751  74.0563953  97.3055418
  67.7680550  74.4190713  96.9546846  69.3215711  69.6023812 102.8100032
  69.2650913  70.0592363 101.9707665  69.8744054  68.8414497 102.6322875
  73.1320517  65.3913544 103.6350152  72.8757451  64.9910180 104.4658359
  72.5073385  66.1057338 103.5100291  70.4004598  74.2896480  98.7396222
  71.2350202  73.8577678  98.5573697  70.2388941  74.1178494  99.6673117
  70.0550490  70.7928593 100.1052561  69.9999294  70.6272865  99.1641006
  69.4296546  71.5004626 100.2614751  63.3646616  60.2936702  99.6837880
  63.3525286  61.2378542  99.8406151  64.2570038  60.1106848  99.3897341
  67.1798735  56.8879479 103.9383817  66.4131131  56.3337966 104.0840499
  67.5909440  56.9601348 104.7997968  71.7356834  80.5881255  96.4529081
  70.8586300  80.4670055  96.0891328  72.2114587  79.7967333  96.2007970
  74.4812143  81.5245642  96.2546192  73.5743598  81.2278754  96.3308905
  74.7588124  81.2275460  95.3880478  73.2510927  78.3832577  96.3958171
  74.1130091  78.7087475  96.6553988  73.4361272  77.5964073  95.8831237
  34.4975801  10.2682069  85.5205644  33.8237500  10.5713766  86.1290602
  34.8841623  11.0711150  85.1711101  38.4032687   7.5532325  83.7933090
  38.3246318   7.2192189  84.6868848  39.2242354   8.0454093  83.7924563
  35.9736639   4.8700320  83.4143069  36.6772489   5.0750323  84.0300724
  35.2499287   5.4377082  83.6792152  39.1784133  17.6315405  91.4855121
  38.6148998  17.5405342  90.7171409  39.0636528  16.8115310  91.9657614
  44.7583692  21.2986373  86.7969586  44.1071672  21.8840453  86.4103600
  45.5528055  21.8292568  86.8564623  38.6839319  18.3875510  87.1956720
  39.4570195  17.8404497  87.0569596  39.0364718  19.2519759  87.4071182
  41.0205597  14.5468176  84.8275170  41.2731118  14.0249697  84.0658633
  40.0830156  14.3834322  84.9301854  46.0648880  13.5503954  92.6349914
  46.8511969  13.1323378  92.2840331  46.3287584  14.4550047  92.8031562
  46.2358957  18.9876805  87.3338570  45.6004790  19.0611431  88.0459475
  45.9056363  19.5770404  86.6557650  51.4657307  13.4879188  93.5382892
  52.1982479  12.9178405  93.7720722  50.7096663  13.1000788  93.9789398
  40.7401886  16.4496282  87.0299545  40.6238144  15.7741185  87.6980630
  40.8504145  15.9628656  86.2131698  43.0833427  15.9106429  90.7346234
  42.7191634  15.3837050  91.4459156  43.9400542  15.5204898  90.5612720
  42.7238914  10.9396329  85.7307583  42.8913316  11.8076565  86.0978054
  42.5336083  11.1023611  84.8068872  42.7028134  13.3953986  86.7154250
  42.5827760  13.8411037  87.5539730  42.0080723  13.7439304  86.1567788
  40.4635026  26.1657628  90.3644381  40.3859056  27.1165453  90.4432862
  39.8596670  25.8203501  91.0219307  48.4013201  13.8675460  87.5434584
  49.3131057  14.1002846  87.3682281  47.8922848  14.4512504  86.9809662
  47.0082783  18.8501278  94.9348165  46.3791645  19.0146992  94.2324233
  46.6208445  19.2642888  95.7059129  50.8872015  19.7855716  92.2892529
  50.2023053  20.1654617  91.7389562  50.9715864  20.3951043  93.0224477
  42.5610745  18.5875686  92.1998250  43.0249090  18.8663389  91.4102873
  42.2967543  17.6859131  92.0171341  41.4979631  14.7098838  89.0087816
  42.2003674  15.1619882  89.4761742  41.1660259  14.0682657  89.6367709
  49.2568774  20.3087630  97.0610230  50.0786218  19.9067818  96.7792912
  49.2531177  20.2055864  98.0126346  57.3474767  16.6526379  93.4095201
  56.5938476  16.0833777  93.2539206  57.4822309  16.6189043  94.3565836
  42.7373395  21.5239781  89.0849921  42.6019070  22.3691317  89.5134769
  43.2783208  21.7259059  88.3215855  36.1902793  19.0415219  89.6577846
  36.7027313  19.8358469  89.8083411  36.8425506  18.3441510  89.5911447
  37.9997677  22.1580975  91.7400599  38.1764306  23.0798940  91.5521583
  38.7954511  21.8439395  92.1694979  46.0516142  15.0378954  86.1221249
  45.5362765  15.8083559  86.3609637  45.7793450  14.3644090  86.7454311
  51.0250416  17.7911309  88.0574423  50.2479859  17.4522468  87.6129585
  51.7041897  17.7963932  87.3829388  45.8402445  12.9106046  87.9481031
  45.5352580  13.2252195  88.7991174  46.7932887  12.9887466  87.9908364
  44.2848877  19.0696270  89.5973985  43.7570238  18.3349029  89.2847222
  43.7836379  19.8470946  89.3513953  49.2641723  17.2645290  94.7141031
  48.6065397  17.9544551  94.8021159  50.0682122  17.6541722  95.0575017
  48.0747182  15.6189663  92.7644973  48.5879063  16.2519655  93.2666682
  48.7248405  15.0190858  92.3988333  39.3437191  11.7620397  85.9776481
  38.5074504  12.0995083  86.2985756  39.2041961  11.6269377  85.0403618
  42.4301477  16.8876480  82.6008958  41.5228539  16.6565733  82.8000107
  42.9272509  16.0914099  82.7882939  45.3369556  25.5973987  85.5205644
  44.6631255  25.9005684  86.1290602  45.7235378  26.4003067  85.1711101
  45.3363060  14.4930534  90.1405993  46.0834879  15.0051931  89.8313115
  45.6054650  14.1714587  91.0010387  43.6089710  16.9889075  87.1232948
  42.7000930  16.7048107  87.2205417  43.6384794  17.4088153  86.2636254
  48.8408978  20.5995664  90.8924115  48.3871305  19.7586574  90.9489306
  48.2102944  21.2357063  91.2298895  47.7841897  11.5287650  92.1224783
  47.0464654  11.0165036  92.4535025  48.0368671  11.0888032  91.3108060
  47.2841917  22.4372161  91.8273933  47.5764891  22.9977218  91.1086299
  47.7940538  22.7300722  92.5827092  43.3065798  18.5297818  84.4621026
  42.8685228  17.8133677  84.0026664  44.0476239  18.7573933  83.9006118
  42.2475542  23.2152512  92.9167387  42.2051721  23.4413358  91.9875919
  43.1638241  22.9815887  93.0653188  51.4238913  16.8055015  90.5197345
  51.2856812  16.9956611  89.5918534  51.0675132  17.5674398  90.9765396
  51.4508293  18.8731542  95.5308616  51.8844799  18.7806831  96.3791670
  52.1639873  18.8489043  94.8928632  40.3641343  20.0915541  92.7129349
  41.1581941  19.5965861  92.5111924  39.6533035  19.5633404  92.3497055
  45.1836187  22.4733636  97.0641717  45.2373210  23.0424573  97.8319433
  44.3150969  22.6435521  96.6995754  36.6724106  14.2358623  88.7889102
  35.7421695  14.1743078  89.0059064  36.7681578  13.7134575  87.9925743
  43.5360771  25.7653659  87.7352723  43.7112527  25.2941703  88.5498346
  42.8493559  26.3919426  87.9633984  44.4917834  20.0426166  93.7816024
  44.1567667  20.0026936  94.6773674  43.9921780  19.3770882  93.3086434
  47.4277026  17.3882200  84.0553084  46.8106196  16.6629028  83.9586136
  46.9593514  18.1491560  83.7120158  38.1021856  28.9143022  94.5092583
  38.3418454  29.5461546  95.1871602  37.2591053  28.5631062  94.7957942
  39.2175572  11.6067624  83.1774388  38.3405038  11.4856425  82.8136635
  39.6933325  10.8153703  82.9253277  42.6149718  24.7222145  96.9134087
  42.5419890  25.5277116  97.4253392  42.1727111  24.9214110  96.0882108
  42.4039498  23.9593915  90.4236909  41.6207020  24.5015595  90.5175133
  43.1032243  24.4767894  90.8231150  53.5665905  15.4728910  94.7089405
  53.5555781  16.3553625  94.3383339  52.6983285  15.1200460  94.5143943
  45.0748402  24.6208979  99.0692246  45.7876374  25.2556443  98.9968147
  44.5838430  24.7172845  98.2532248  46.7965928  18.5260231  90.6409537
  45.8622207  18.6461694  90.4714242  46.9742597  17.6232698  90.3769547
  50.1838480  14.3677551  91.1759572  50.6498932  15.2005542  91.1019874
  50.6345980  13.9022532  91.8804830  48.2514711  20.7121372  88.1745724
  48.5274555  20.5977966  89.0839598  47.3819210  20.3138857  88.1357897
  44.8868775  24.9607723  91.8178537  45.0691169  24.1429379  92.2806290
  45.7101761  25.1775415  91.3803427  45.2210940  23.8875908  89.0793586
  45.7498707  23.3768362  88.4663748  45.4839160  23.5718438  89.9439119
  38.5766688  24.9391025  91.8391362  37.9077064  25.4237152  91.3555402
  38.4379558  25.1860245  92.7534740  42.7171957  26.9734768  98.4374020
  43.2690265  27.1366390  99.2023105  43.0578150  27.5639206  97.7654045
  45.8540344  24.9216744  95.4237702  45.7291484  24.1206483  94.9148648
  46.5119435  25.4162937  94.9351672  47.9175253  22.7225764  97.0517252
  46.9705588  22.6031115  96.9795579  48.2658026  21.8348262  97.1343514
  44.9221686  22.5178480  93.2521604  44.7746648  21.5895187  93.4329174
  45.7475179  22.5398571  92.7678680  48.5255808  23.3407039  94.3386477
  49.4502355  23.1349900  94.2010928  48.3571111  23.0923440  95.2475819
  40.7752077   9.6671169  87.3095389  41.4960440  10.0452421  86.8059106
  40.1517382  10.3860045  87.4130367  44.9183200  10.3716318  88.2453722
  45.1346815  11.2540955  87.9442550  44.4377267   9.9802531  87.5159364
  48.3151124  23.8592706  89.6948569  48.4888002  23.2939129  88.9422421
  48.8080015  24.6593601  89.5128059  54.1690515  16.6229129  91.3138868
  54.6121661  15.8736454  90.9157992  53.2917025  16.6139265  90.9312600
  49.3026296  23.1759470  86.7945467  49.9977201  23.7966163  87.0132782
  49.6449447  22.3254822  87.0697845  51.2017720  20.6259176  88.3232798
  51.7269044  20.9646449  87.5982118  51.1140072  19.6906191  88.1395932
  42.8858380  26.6931159  92.6828051  42.4463371  26.2007538  93.3760908
  43.6366497  26.1504127  92.4420126  35.3650719  22.8842700  92.6852679
  36.1908739  22.5846472  92.3051322  35.0144771  22.1150323  93.1342468
  40.3332253  22.2369168  94.7550353  39.7112262  21.5739873  94.4552580
  41.0037119  22.2630300  94.0724000  39.8945759  20.7873092  88.2308813
  40.0433880  21.4708556  87.5775486  40.7012203  20.7678182  88.7458269
  53.7123380  18.0934367  93.7061316  54.5470271  18.5324171  93.8698876
  53.8482509  17.6173021  92.8869562  37.6498392  16.8138269  89.2369882
  37.4044434  15.9100599  89.4350092  37.8194307  16.8155420  88.2949360
  36.9194040  12.5466627  86.7356043  36.2263285  12.6210982  86.0796079
  36.6745792  11.7826971  87.2577560  43.3941165  23.2821222  85.7020561
  42.8215132  23.9011409  85.2491032  43.9673959  23.8320584  86.2360482
  46.6138425  23.5658372  86.8329143  47.5469098  23.5003934  87.0362018
  46.5261638  24.4014639  86.3743675  49.2426441  22.8824243  83.7933090
  49.1640073  22.5484106  84.6868848  50.0636108  23.3746011  83.7924563
  43.7787963  14.6182035  83.0436613  44.7247068  14.4888243  83.1125031
  43.4002208  13.8796697  83.5206041  57.7581182  16.8101989  96.1415446
  58.4884571  16.5487277  96.7023149  57.1488128  16.0730711  96.1817514
  55.8396480  14.9509851  96.7389897  55.1129643  14.8165816  96.1306389
  55.4243766  15.2586680  97.5446615  41.9630881  12.5432011  82.9791498
  41.0562336  12.2465124  83.0554212  42.2406862  12.2461829  82.1125784
  40.7329665   9.4018947  83.1203477  41.5948829   9.7273845  83.3799295
  40.9180009   8.6150442  82.6076543  48.8862302   8.2747473  90.2638700
  48.3060971   8.9332277  89.8816753  48.6198234   7.4524818  89.8526118
  47.6687180  10.4347563  89.3195049  46.7813035  10.7197214  89.1015243
  48.0841169  10.2741327  88.4722326  51.0201716  10.4594084  93.0349388
  51.7962106  10.9490537  93.3074005  50.2949850  10.8852139  93.4921257
  53.4574274  11.1721704  94.0923329  54.0518765  10.9317440  93.3816637
  53.5300858  10.4528834  94.7196865  35.6771430  25.0155314  94.4066493
  35.5425898  24.2555715  93.8404491  35.2603492  25.7396214  93.9395282
  46.8130393  20.1992238  83.4143069  47.5166243  20.4042241  84.0300724
  46.0893042  20.7669000  83.6792152  47.6428203  15.9502099  89.5345339
  47.5863405  16.4070651  88.6952971  48.1956546  15.1892784  89.3568182
  51.4533009  11.7391831  90.3595458  51.1969944  11.3388467  91.1903666
  50.8285877  12.4535625  90.2345598  55.7645347  14.4787904  92.8666750
  55.2044905  14.5481094  93.6398312  55.1588851  14.3028889  92.1466246
  38.8340556  25.9124632  94.6184936  38.7172940  26.8570064  94.5163626
  38.0133002  25.6098193  95.0070735  48.7217091  20.6374767  85.4641529
  49.5562695  20.2055966  85.2819004  48.5601434  20.4656781  86.3918423
  48.3762983  17.1406881  86.8297868  48.3211787  16.9751152  85.8886312
  47.7509038  17.8482913  86.9860058  41.6859108   6.6414990  86.4083186
  41.6737778   7.5856829  86.5651457  42.5782530   6.4585135  86.1142648
  39.8595070  26.5652893  97.8340864  40.7622317  26.5976504  98.1507359
  39.6332440  25.6353344  97.8487200  41.6148672  25.3183880  94.4950943
  40.6644303  25.3185742  94.3815315  41.9181158  24.5716615  93.9786978
  57.3501366  31.1544418  95.5596705  57.9879776  31.0351166  94.8560046
  57.2322209  32.1025262  95.6184658  54.1591072  31.1071846  95.4958230
  53.8209583  30.9912911  94.6078765  55.0280840  30.7063012  95.4759236
  50.0177888  32.9607323  91.4855121  49.4542753  32.8697260  90.7171409
  49.9030283  32.1407227  91.9657614  54.6410855  32.2606698 101.4544436
  54.6299496  31.8659496 100.5824939  54.8031494  31.5272771 102.0478207
  47.5642320  34.4558514  94.3239342  48.3563612  34.1149339  93.9085641
  47.8038970  34.5653489  95.2441495  55.5977446  36.6278291  86.7969586
  54.9465426  37.2132371  86.4103600  56.3921809  37.1584485  86.8564623
  49.5233074  33.7167428  87.1956720  50.2963950  33.1696415  87.0569596
  49.8758472  34.5811677  87.4071182  51.3618116  35.0443810 100.4023620
  51.0707982  35.9489441 100.2870286  51.9975100  35.0860338 101.1167689
  52.2874323  32.4220658  96.9924979  52.8837895  32.1976681  96.2781942
  52.3449294  31.6805404  97.5950427  51.8599351  29.8760094  84.8275170
  52.1124872  29.3541615  84.0658633  50.9223910  29.7126239  84.9301854
  56.9042634  28.8795872  92.6349914  57.6905723  28.4615295  92.2840331
  57.1681338  29.7841964  92.8031562  57.0752712  34.3168722  87.3338570
  56.4398544  34.3903349  88.0459475  56.7450118  34.9062321  86.6557650
  62.3051061  28.8171105  93.5382892  63.0376233  28.2470322  93.7720722
  61.5490417  28.4292706  93.9789398  51.5795640  31.7788200  87.0299545
  51.4631898  31.1033103  87.6980630  51.6897900  31.2920574  86.2131698
  53.9227181  31.2398347  90.7346234  53.5585388  30.7128968  91.4459156
  54.7794297  30.8496816  90.5612720  59.8276482  22.5292679  97.9977501
  59.4959806  23.3988090  97.7738716  59.2322095  22.2128963  98.6771531
  53.5632668  26.2688247  85.7307583  53.7307070  27.1368483  86.0978054
  53.3729837  26.4315528  84.8068872  56.3208001  34.7305225  97.3973413
  56.0208724  35.6330264  97.2889221  55.9759061  34.4637409  98.2494566
  49.7720483  31.1819022  93.4310118  48.8470979  31.0495236  93.6387810
  50.0204896  31.9613242  93.9280060  59.7205145  27.2487766  95.0770851
  58.8122022  27.1803174  94.7829612  59.6692741  27.7259711  95.9052676
  53.5421889  28.7245904  86.7154250  53.4221514  29.1702955  87.5539730
  52.8474477  29.0731222  86.1567788  47.1329294  30.8252296  94.2653907
  47.2621675  31.0786775  95.1793319  46.4526745  31.4180004  93.9458562
  51.3028781  41.4949546  90.3644381  51.2252811  42.4457371  90.4432862
  50.6990425  41.1495418  91.0219307  53.7946011  28.6677411 103.0205748
  53.0179345  29.2271331 103.0108613  54.4336574  29.1534194 103.5420618
  61.5866791  25.4504204  96.8548725  60.9441172  25.7436737  96.2088519
  61.0821720  25.3357124  97.6601921  59.2406955  29.1967377  87.5434584
  60.1524811  29.4294764  87.3682281  58.7316602  29.7804421  86.9809662
  52.0492383  31.4762865 102.5823715  52.7907067  32.0147909 102.3058539
  51.3429369  32.1029153 102.7395267  57.5247723  33.6192005 101.1795876
  57.9331079  33.1774416 100.4350509  56.8024984  33.0444633 101.4330069
  53.8778793  28.5564612  98.5529433  54.7239988  28.9804025  98.6964082
  53.8177430  27.8998236  99.2467997  57.8476537  34.1793196  94.9348165
  57.2185400  34.3438910  94.2324233  57.4602199  34.5934805  95.7059129
  61.7265769  35.1147634  92.2892529  61.0416807  35.4946535  91.7389562
  61.8109619  35.7242960  93.0224477  57.0278238  26.2168980 100.2110607
  56.7839170  26.9711041  99.6744883  57.3038169  26.5954328 101.0457854
  58.9816701  32.7607593  98.8887873  59.1933596  33.4039352  98.2122254
  58.9346449  31.9269909  98.4209803  56.5842930  25.3725413  95.7924445
  55.7227409  25.6706667  96.0841182  56.6105364  25.5895812  94.8605477
  53.4004499  33.9167604  92.1998250  53.8642845  34.1955307  91.4102873
  53.1361297  33.0151048  92.0171341  50.2928580  33.4639085  95.1378014
  50.8629937  33.8926354  94.4995498  50.8836692  33.1821670  95.8362199
  52.3373385  30.0390756  89.0087816  53.0397429  30.4911800  89.4761742
  52.0054014  29.3974575  89.6367709  50.7853747  28.6302513 103.3839025
  50.1552407  29.3118794 103.6174422  50.6789835  28.5185594 102.4392163
  46.0798719  28.2974309  94.3104949  45.2897773  28.5531837  93.8345060
  46.5709967  29.1122647  94.4156990  60.0962529  35.6379548  97.0610230
  60.9179973  35.2359735  96.7792912  60.0924932  35.5347782  98.0126346
  48.0313465  28.6618888  91.2688426  47.2344628  28.7737582  91.7871922
  47.8039057  29.0005540  90.4029316  53.8619132  35.1863591  99.2170940
  53.9263565  35.6483999 100.0529112  53.1530056  34.5560956  99.3453250
  44.3636422  28.5504799  96.7419940  44.6144461  29.4351809  97.0077516
  44.8995971  28.3709401  95.9695032  68.1868522  31.9818296  93.4095201
  67.4332230  31.4125695  93.2539206  68.3216063  31.9480961  94.3565836
  53.5767150  36.8531699  89.0849921  53.4412825  37.6983235  89.5134769
  54.1176962  37.0550976  88.3215855  47.0296547  34.3707137  89.6577846
  47.5421068  35.1650387  89.8083411  47.6819260  33.6733427  89.5911447
  48.8391432  37.4872893  91.7400599  49.0158060  38.4090858  91.5521583
  49.6348266  37.1731312  92.1694979  48.1243789  29.5337525 101.6162762
  48.0097304  28.6322782 101.9169861  47.2688306  29.7801222 101.2647579
  55.2035626  37.4755265 103.2150263  54.7599480  36.6891644 102.8971167
  55.8652840  37.6634416 102.5494154  49.9622747  39.0051067  97.7410941
  50.5130173  38.8768130  96.9687935  49.1234223  39.3045956  97.3905834
  57.3016864  37.7558065 101.2431664  57.2835340  38.5766946 100.7511933
  58.2236784  37.6312140 101.4681805  53.7589919  35.2702195 102.0855172
  54.2918255  34.5090483 101.8554480  53.2304000  34.9775847 102.8279327
  56.9259613  20.3762261  97.6148814  56.5823883  21.2663902  97.5387925
  57.2938576  20.1863918  96.7518399  44.9945464  32.6995791  90.4337416
  45.8320686  33.1092799  90.2171124  45.1723732  31.7595233  90.4037610
  56.8909896  30.3670872  86.1221249  56.3756520  31.1375476  86.3609637
  56.6187205  29.6936008  86.7454311  54.4757007  25.2120573  91.1806488
  53.6198604  24.8227423  91.0012126  54.8883959  25.2912533  90.3206273
  56.0056154  22.7466916  95.5798047  55.5020949  22.7097051  94.7665853
  56.2986761  23.6559659  95.6394704  52.2499040  22.8305646  94.5864229
  53.1152037  22.6348454  94.2270119  52.3176549  22.6015997  95.5133586
  61.8644170  33.1203226  88.0574423  61.0873613  32.7814386  87.6129585
  62.5435651  33.1255850  87.3829388  56.6796199  28.2397964  87.9481031
  56.3746335  28.5544113  88.7991174  57.6326641  28.3179384  87.9908364
  55.1242631  34.3988187  89.5973985  54.5963993  33.6640947  89.2847222
  54.6230134  35.1762864  89.3513953  60.1035477  32.5937208  94.7141031
  59.4459152  33.2836469  94.8021159  60.9075876  32.9833640  95.0575017
  49.8561359  25.0607853  91.9580596  50.4305111  24.8383035  91.2253789
  50.4432341  25.1296548  92.7109197  58.9140936  30.9481580  92.7644973
  59.4272818  31.5811572  93.2666682  59.5642160  30.3482776  92.3988333
  50.1830946  27.0912314  85.9776481  49.3468258  27.4287001  86.2985756
  50.0435716  26.9561294  85.0403618  52.1584027  21.9349102  90.6855665
  51.5048439  21.6198120  90.0612280  52.1164501  21.3124843  91.4115488
  53.2695231  32.2168397  82.6008958  52.3622293  31.9857651  82.8000107
  53.7666263  31.4206017  82.7882939  56.1763310  40.9265905  85.5205644
  55.5025009  41.2297601  86.1290602  56.5629132  41.7294985  85.1711101
  55.3921767  28.4231036  95.0103313  54.4744328  28.6445983  94.8525001
  55.8081911  28.4977346  94.1515020  56.1756815  29.8222452  90.1405993
  56.9228634  30.3343849  89.8313115  56.4448404  29.5006504  91.0010387
  54.4483465  32.3180992  87.1232948  53.5394684  32.0340025  87.2205417
  54.4778549  32.7380071  86.2636254  59.6802732  35.9287582  90.8924115
  59.2265059  35.0878492  90.9489306  59.0496699  36.5648980  91.2298895
  58.6235652  26.8579568  92.1224783  57.8858409  26.3456954  92.4535025
  58.8762425  26.4179949  91.3108060  58.1235671  37.7664079  91.8273933
  58.4158646  38.3269136  91.1086299  58.6334292  38.0592639  92.5827092
  58.7247279  19.6355820  92.7166552  59.0306156  18.7753183  92.4292467
  59.4499884  20.2273440  92.5165546  45.0171635  30.0386506  91.1048150
  44.8196035  29.4455867  90.3799216  44.4618299  29.7338717  91.8224089
  52.9968359  29.9309613  93.2242743  53.0516969  28.9783449  93.1485220
  52.1859561  30.0869052  93.7084041  54.1459553  33.8589736  84.4621026
  53.7078983  33.1425595  84.0026664  54.8869993  34.0865851  83.9006118
  50.9360719  28.5486673  90.9833122  50.1228584  28.8480843  91.3898314
  51.4319713  28.1542361  91.7007604  53.0869297  38.5444430  92.9167387
  53.0445475  38.7705276  91.9875919  54.0031996  38.3107804  93.0653188
  56.5334930  29.0128497  99.8148016  56.8884318  29.2399970 100.6742482
  57.1807062  29.3446874  99.1925271  62.2632667  32.1346933  90.5197345
  62.1250566  32.3248529  89.5918534  61.9068886  32.8966316  90.9765396
  50.4274794  26.1205028  96.5994357  51.0674173  25.9793787  95.9017320
  49.5952324  25.8339542  96.2232959  62.2902047  34.2023460  95.5308616
  62.7238554  34.1098749  96.3791670  63.0033628  34.1780960  94.8928632
  51.2035097  35.4207459  92.7129349  51.9975696  34.9257779  92.5111924
  50.4926790  34.8925322  92.3497055  56.0229942  37.8025554  97.0641717
  56.0766964  38.3716490  97.8319433  55.1544723  37.9727439  96.6995754
  47.5117861  29.5650540  88.7889102  46.5815449  29.5034996  89.0059064
  47.6075333  29.0426493  87.9925743  47.4303410  26.0905353  91.3767344
  47.6910227  27.0050686  91.2676504  48.2520582  25.6229796  91.5263956
  48.9028335  27.5043110  98.5466168  49.5751389  27.2960472  97.8978817
  48.0758122  27.3065196  98.1071400  63.1517597  34.2447161  98.0641502
  63.3453487  35.1492971  98.3100777  63.0518215  33.7854580  98.8980087
  54.8053907  24.1305051 100.5631829  54.1581822  24.8295001 100.4696305
  55.5754923  24.5641195 100.9308077  58.2132705  34.3953903 103.6382382
  58.0618212  34.1664455 102.7212466  58.2037385  35.3524505 103.6513727
  54.9818042  31.9685816  98.6228649  55.9110102  32.1196976  98.4497616
  54.5609072  32.0569837  97.7677295  53.7806373  35.9936481  96.3927186
  53.6417459  35.6255265  97.2653124  52.9920970  36.5084120  96.2211144
  54.3754525  41.0945577  87.7352723  54.5506281  40.6233620  88.5498346
  53.6887313  41.7211343  87.9633984  55.3311589  35.3718083  93.7816024
  54.9961421  35.3318853  94.6773674  54.8315534  34.7062799  93.3086434
  49.3055833  30.7785713  99.3068605  49.1675630  30.0465952  99.9080144
  50.2160756  30.6894613  99.0252793  58.2670780  32.7174118  84.0553084
  57.6499951  31.9920946  83.9586136  57.7987269  33.4783478  83.7120158
  51.9338133  30.4905673  98.7952285  52.6437752  29.8498865  98.7538903
  51.8907441  30.7418567  99.7178466  59.9224912  37.4273026 101.7158864
  59.8637458  36.7432246 101.0489447  60.3244430  38.1692016 101.2639490
  50.6467067  27.4770891 100.6147924  50.1104424  27.0261629 101.2669521
  50.0583776  27.6116799  99.8718389  48.9415611  44.2434940  94.5092583
  49.1812209  44.8753464  95.1871602  48.0984807  43.8922980  94.7957942
  50.0569326  26.9359542  83.1774388  49.1798792  26.8148343  82.8136635
  50.5327079  26.1445620  82.9253277  59.9242319  35.3912610  99.9472844
  59.0369098  35.0538532 100.0699243  60.4940870  34.6595641 100.1841609
  41.5771466  31.7236702  93.2715895  42.2642506  31.4098432  92.6836911
  41.4219595  32.6278066  92.9983147  46.3806188  26.6126898  97.7000919
  46.2964377  26.0052568  96.9651329  45.5588895  27.1035917  97.7010415
  53.4543473  40.0514062  96.9134087  53.3813644  40.8569034  97.4253392
  53.0120866  40.2506028  96.0882108  53.2433252  39.2885832  90.4236909
  52.4600774  39.8307512  90.5175133  53.9425997  39.8059812  90.8231150
  56.5529902  25.0980462  93.0671114  57.0498602  24.3450424  92.7472184
  55.7816884  25.1344778  92.5014323  64.4059660  30.8020827  94.7089405
  64.3949536  31.6845543  94.3383339  63.5377039  30.4492378  94.5143943
  55.9142156  39.9500896  99.0692246  56.6270128  40.5848361  98.9968147
  55.4232185  40.0464762  98.2532248  57.6359683  33.8552149  90.6409537
  56.7015962  33.9753611  90.4714242  57.8136351  32.9524616  90.3769547
  53.1364871  27.2397845  92.7942799  52.7662659  26.6868885  93.4823704
  53.6323964  26.6355978  92.2417799  61.0232234  29.6969468  91.1759572
  61.4892687  30.5297460  91.1019874  61.4739735  29.2314450  91.8804830
  50.9654070  37.6995340  99.8897817  51.6663529  38.3331823 100.0427211
  50.4949185  38.0410071  99.1293456  59.0908465  36.0413290  88.1745724
  59.3668309  35.9269884  89.0839598  58.2212964  35.6430774  88.1357897
  58.9948897  22.0650055  95.2150473  58.0811977  22.2954282  95.3832680
  59.4241999  22.1488499  96.0664505  58.7655356  30.2539947  97.7150367
  58.1126806  30.5015855  97.0602820  59.1435735  29.4404085  97.3812844
  55.7262529  40.2899640  91.8178537  55.9084924  39.4721296  92.2806290
  56.5495515  40.5067333  91.3803427  56.0604695  39.2167826  89.0793586
  56.5892461  38.7060280  88.4663748  56.3232915  38.9010356  89.9439119
  54.8142929  30.9959758 104.2016404  54.1383566  30.8953888 104.8718779
  55.6370562  30.8398972 104.6652401  46.5621788  37.2331695  96.8228919
  47.1475224  36.4875383  96.9556823  46.3646626  37.5435652  97.7065583
  49.4160443  40.2682942  91.8391362  48.7470818  40.7529070  91.3555402
  49.2773313  40.5152163  92.7534740  41.1539442  29.8037295  95.5433362
  41.1923542  29.2700886  96.3370480  40.6479735  29.2772501  94.9244340
  53.5565711  42.3026686  98.4374020  54.1084020  42.4658307  99.2023105
  53.8971905  42.8931124  97.7654045  48.5330205  24.6501836  99.0395905
  48.5971531  25.5116666  98.6273302  48.4697325  24.0375837  98.3068263
  58.4076586  37.1287943 104.2922674  58.9516490  37.7417902 103.7977629
  57.8263431  37.6867522 104.8089687  44.7848020  28.5301397  88.6187294
  45.0801461  27.6212076  88.5654347  43.8836056  28.5089137  88.2968296
  56.6934099  40.2508661  95.4237702  56.5685238  39.4498401  94.9148648
  57.3513190  40.7454855  94.9351672  48.3142267  26.6057394  94.6014842
  47.5928853  27.2193361  94.4622316  49.1035523  27.1415159  94.5231488
  58.7569007  38.0517681  97.0517252  57.8099343  37.9323033  96.9795579
  59.1051780  37.1640179  97.1343514  51.1168581  23.9411820 100.8755494
  51.6402982  24.1874117 101.6381803  50.8980914  24.7731855 100.4558631
  46.5135862  26.2115495  88.7426619  46.1848568  25.3312874  88.5601725
  46.8675232  26.1563164  89.6303008  55.7615440  37.8470398  93.2521604
  55.6140403  36.9187105  93.4329174  56.5868934  37.8690488  92.7678680
  49.6277685  26.4988465  89.1102097  49.9673757  27.0274386  88.3880705
  50.0749805  26.8368871  89.8860663  59.3649562  38.6698956  94.3386477
  60.2896110  38.4641818  94.2010928  59.1964866  38.4215357  95.2475819
  52.3221126  24.8825515  98.5605165  51.9817946  24.0833328  98.9625845
  51.6160132  25.1827226  97.9881998  52.9737597  21.9674828  97.0132488
  53.7963667  21.4935306  96.8911378  53.2175661  22.7465312  97.5131174
  51.6145832  24.9963086  87.3095389  52.3354194  25.3744339  86.8059106
  50.9911136  25.7151963  87.4130367  55.7576955  25.7008235  88.2453722
  55.9740569  26.5832873  87.9442550  55.2771022  25.3094449  87.5159364
  50.4976176  28.6593948  94.8224466  50.3520757  28.9734251  95.7148748
  50.0201380  29.2778849  94.2695365  52.3572559  25.6496496  94.8705356
  52.3434128  24.7537590  94.5337654  53.0744987  25.6567160  95.5043642
  54.2098690  26.0833837  96.9158483  53.9516468  27.0050907  96.9142814
  53.6783730  25.6864271  97.6058947  59.1544879  39.1884624  89.6948569
  59.3281756  38.6231046  88.9422421  59.6473770  39.9885519  89.5128059
  44.9721838  31.1999293  97.7612127  44.4275306  31.9759101  97.8932402
  45.8501188  31.5470097  97.6031249  51.7609455  24.5310877  90.1392926
  51.8825366  23.6027523  90.3383813  51.4711497  24.5449563  89.2271241
  54.6300645  22.2165787  93.2759646  54.6522342  22.2805120  92.3211625
  55.0468704  21.3770296  93.4700152  65.0084270  31.9521047  91.3138868
  65.4515416  31.2028372  90.9157992  64.1310780  31.9431183  90.9312600
  60.1420051  38.5051388  86.7945467  60.8370956  39.1258081  87.0132782
  60.4843201  37.6546739  87.0697845  45.7587860  30.3269189 100.6542284
  45.0169596  30.4751824 101.2406915  45.4380604  30.5877455  99.7909034
  62.0411474  35.9551094  88.3232798  62.5662798  36.2938366  87.5982118
  61.9533827  35.0198109  88.1395932  53.7031523  39.8685167 100.4522674
  54.0118649  39.6234314 101.3245374  54.5007005  40.0731806  99.9641545
  53.7252135  42.0223077  92.6828051  53.2857125  41.5299456  93.3760908
  54.4760252  41.4796045  92.4420126  46.2044474  38.2134618  92.6852679
  47.0302494  37.9138390  92.3051322  45.8538526  37.4442240  93.1342468
  51.1726007  37.5661086  94.7550353  50.5506016  36.9031791  94.4552580
  51.8430874  37.5922218  94.0724000  44.4053079  36.1320944  93.6441613
  43.5684987  35.7043119  93.4625614  44.3776724  36.3253388  94.5812404
  61.7305380  36.5883997 103.6283996  60.9400924  36.5708136 103.0888495
  61.4938735  37.1272291 104.3833032  61.8503255  33.4376464 100.9416724
  61.9001260  33.2726471 101.8832247  61.7417179  32.5703723 100.5514605
  50.7339514  36.1165009  88.2308813  50.8827634  36.8000474  87.5775486
  51.5405957  36.0970099  88.7458269  59.1407018  29.4207392 102.2576031
  60.0416880  29.2813857 101.9660029  59.2154992  29.5861847 103.1974208
  53.4749823  26.7974246 101.1029217  52.6053132  27.0907813 100.8311806
  53.7109303  27.3814691 101.8236481  63.3521452  35.8573405 101.1858746
  63.0606260  36.2203386 102.0222207  62.7393583  35.1440413 101.0072078
  64.5517134  33.4226285  93.7061316  65.3864026  33.8616089  93.8698876
  64.6876263  32.9464938  92.8869562  61.6008640  30.9806020  99.6538804
  62.0762762  31.1733666  98.8457655  60.6774206  31.0365206  99.4082187
  48.4892147  32.1430187  89.2369882  48.2438189  31.2392517  89.4350092
  48.6588061  32.1447337  88.2949360  56.1788857  23.0153863  98.6194638
  56.6970801  23.7514890  98.2941126  55.8243990  23.3217857  99.4541397
  47.7587794  27.8758545  86.7356043  47.0657039  27.9502900  86.0796079
  47.5139546  27.1118888  87.2577560  56.4301451  19.4354146  94.1395534
  56.7103205  18.7677335  94.7655961  57.2152058  19.6283242  93.6270198
  54.2334919  38.6113140  85.7020561  53.6608887  39.2303327  85.2491032
  54.8067713  39.1612502  86.2360482  60.3010309  27.8571780  97.8867109
  61.2527732  27.9569878  97.9079333  60.1313760  27.0650048  98.3965194
  58.3224689  24.9427363  98.0726510  57.7274621  25.2232376  97.3772999
  58.0374385  25.4321264  98.8443251  57.4532179  38.8950290  86.8329143
  58.3862852  38.8295852  87.0362018  57.3655392  39.7306557  86.3743675
  60.0820196  38.2116160  83.7933090  60.0033827  37.8776024  84.6868848
  60.9029863  38.7037928  83.7924563  62.7798387  31.0777900  97.0009409
  62.7474707  30.1393900  97.1869093  63.3899011  31.1561936  96.2675234
  54.6181718  29.9473953  83.0436613  55.5640823  29.8180161  83.1125031
  54.2395963  29.2088614  83.5206041  62.9292876  27.8688943  97.0467692
  62.4131924  27.0847400  96.8597621  63.8132824  27.5407660  97.2114212
  60.5903602  21.6129959  93.0063505  60.3928424  21.3045047  93.8906837
  61.2003308  22.3391598  93.1361435  68.5974937  32.1393906  96.1415446
  69.3278325  31.8779195  96.7023149  67.9881882  31.4022628  96.1817514
  66.6790234  30.2801769  96.7389897  65.9523398  30.1457734  96.1306389
  66.2637521  30.5878598  97.5446615  54.5020410  33.9991699 104.5037270
  55.4223420  34.1770298 104.6977317  54.4669994  33.0547744 104.3516969
  52.8024635  27.8723929  82.9791498  51.8956090  27.5757042  83.0554212
  53.0800616  27.5753747  82.1125784  43.7202575  29.1930292  93.4290545
  43.4005360  28.3395601  93.1364919  43.1736004  29.4078871  94.1848512
  47.4982483  31.9092733  97.1460051  47.7168493  32.8409841  97.1648085
  47.9108257  31.5500708  97.9314855  54.4186701  22.4160819  89.1335740
  53.6087429  22.0707904  89.5090986  55.1071118  22.1068362  89.7223351
  56.3477249  21.4938865  90.7560036  56.9008288  21.9134319  91.4150059
  56.5847335  20.5674614  90.7982992  51.5723420  24.7310864  83.1203477
  52.4342584  25.0565762  83.3799295  51.7573764  23.9442360  82.6076543
  43.5890835  32.8133204  95.3983666  42.8954307  32.3987157  94.8853621
  44.3363826  32.8553740  94.8017085  59.7256056  23.6039391  90.2638700
  59.1454725  24.2624195  89.8816753  59.4591989  22.7816735  89.8526118
  58.1759623  23.0044448  92.4660021  58.6759401  23.1160983  91.6574340
  58.8195230  22.7005501  93.1060829  52.2341618  30.9123078 105.3527862
  51.7508700  31.7123438 105.5591751  52.3202557  30.9231023 104.3995306
  45.5027578  32.7451458  93.2749681  45.4798266  32.8439145  92.3231564
  45.8128214  33.5916608  93.5966847  48.1614956  34.8027613  97.3896296
  49.1158209  34.7711555  97.3226227  47.9627479  34.3418236  98.2046521
  48.7514338  33.3728729  99.9567093  49.5707227  33.8672807  99.9801930
  49.0251146  32.4560697  99.9284661  58.5080934  25.7639481  89.3195049
  57.6206789  26.0489132  89.1015243  58.9234923  25.6033244  88.4722326
  61.8595470  25.7886002  93.0349388  62.6355860  26.2782454  93.3074005
  61.1343605  26.2144056  93.4921257  64.2968029  26.5013621  94.0923329
  64.8912520  26.2609357  93.3816637  64.3694613  25.7820752  94.7196865
  46.5165185  40.3447232  94.4066493  46.3819653  39.5847633  93.8404491
  46.0997247  41.0688132  93.9395282  57.6524148  35.5284156  83.4143069
  58.3559998  35.7334158  84.0300724  56.9286796  36.0960918  83.6792152
  58.4821958  31.2794017  89.5345339  58.4257159  31.7362568  88.6952971
  59.0350300  30.5184702  89.3568182  62.2926764  27.0683749  90.3595458
  62.0363698  26.6680384  91.1903666  61.6679632  27.7827543  90.2345598
  66.6039102  29.8079822  92.8666750  66.0438660  29.8773011  93.6398312
  65.9982605  29.6320807  92.1466246  49.6734311  41.2416549  94.6184936
  49.5566695  42.1861982  94.5163626  48.8526757  40.9390111  95.0070735
  59.5610845  35.9666685  85.4641529  60.3956449  35.5347883  85.2819004
  59.3995188  35.7948699  86.3918423  59.2156737  32.4698798  86.8297868
  59.1605541  32.3043070  85.8886312  58.5902793  33.1774831  86.9860058
  56.5302644  34.7747710 106.1551431  57.3993804  34.9488362 105.7938066
  56.0509396  35.5942127 106.0327160  52.5252863  21.9706907  86.4083186
  52.5131533  22.9148747  86.5651457  53.4176285  21.7877053  86.1142648
  50.6988825  41.8944811  97.8340864  51.6016071  41.9268421  98.1507359
  50.4726195  40.9645262  97.8487200  52.4542427  40.6475798  94.4950943
  51.5038058  40.6477659  94.3815315  52.7574913  39.9008532  93.9786978
  56.3404982  18.5649684  90.6629123  55.5737378  18.0108171  90.8085806
  56.7515687  18.6371553  91.5243275  68.1895120  46.4836336  95.5596705
  68.8273530  46.3643083  94.8560046  68.0715963  47.4317180  95.6184658
  64.9984826  46.4363764  95.4958230  64.6603338  46.3204829  94.6078765
  65.8674595  46.0354929  95.4759236  60.8571642  48.2899241  91.4855121
  60.2936507  48.1989177  90.7171409  60.7424037  47.4699145  91.9657614
  65.4804609  47.5898616 101.4544436  65.4693250  47.1951414 100.5824939
  65.6425249  46.8564688 102.0478207  58.4036074  49.7850432  94.3239342
  59.1957366  49.4441257  93.9085641  58.6432724  49.8945407  95.2441495
  66.4371201  51.9570208  86.7969586  65.7859181  52.5424289  86.4103600
  67.2315564  52.4876403  86.8564623  60.3626828  49.0459345  87.1956720
  61.1357704  48.4988332  87.0569596  60.7152227  49.9103595  87.4071182
  62.2011871  50.3735728 100.4023620  61.9101737  51.2781358 100.2870286
  62.8368855  50.4152255 101.1167689  63.1268077  47.7512576  96.9924979
  63.7231650  47.5268599  96.2781942  63.1843049  47.0097322  97.5950427
  62.6993106  45.2052011  84.8275170  62.9518627  44.6833533  84.0658633
  61.7617665  45.0418157  84.9301854  67.7436389  44.2087790  92.6349914
  68.5299478  43.7907213  92.2840331  68.0075093  45.1133882  92.8031562
  67.9146466  49.6460640  87.3338570  67.2792299  49.7195267  88.0459475
  67.5843872  50.2354239  86.6557650  73.1444816  44.1463023  93.5382892
  73.8769988  43.5762240  93.7720722  72.3884171  43.7584624  93.9789398
  62.4189395  47.1080117  87.0299545  62.3025653  46.4325021  87.6980630
  62.5291654  46.6212491  86.2131698  64.7620936  46.5690265  90.7346234
  64.3979143  46.0420886  91.4459156  65.6188051  46.1788734  90.5612720
  70.6670236  37.8584597  97.9977501  70.3353561  38.7280008  97.7738716
  70.0715850  37.5420881  98.6771531  64.4026422  41.5980164  85.7307583
  64.5700825  42.4660401  86.0978054  64.2123592  41.7607446  84.8068872
  67.1601756  50.0597143  97.3973413  66.8602479  50.9622182  97.2889221
  66.8152815  49.7929326  98.2494566  60.6114237  46.5110940  93.4310118
  59.6864734  46.3787154  93.6387810  60.8598650  47.2905159  93.9280060
  70.5598899  42.5779683  95.0770851  69.6515777  42.5095092  94.7829612
  70.5086495  43.0551628  95.9052676  64.3815643  44.0537822  86.7154250
  64.2615269  44.4994873  87.5539730  63.6868232  44.4023139  86.1567788
  57.9723048  46.1544214  94.2653907  58.1015429  46.4078692  95.1793319
  57.2920499  46.7471922  93.9458562  62.1422535  56.8241464  90.3644381
  62.0646565  57.7749289  90.4432862  61.5384179  56.4787336  91.0219307
  64.6339765  43.9969329 103.0205748  63.8573099  44.5563249 103.0108613
  65.2730328  44.4826112 103.5420618  72.4260546  40.7796122  96.8548725
  71.7834926  41.0728655  96.2088519  71.9215474  40.6649042  97.6601921
  70.0800710  44.5259295  87.5434584  70.9918566  44.7586682  87.3682281
  69.5710357  45.1096339  86.9809662  62.8886138  46.8054782 102.5823715
  63.6300822  47.3439826 102.3058539  62.1823123  47.4321071 102.7395267
  68.3641477  48.9483923 101.1795876  68.7724833  48.5066333 100.4350509
  67.6418739  48.3736550 101.4330069  64.7172547  43.8856530  98.5529433
  65.5633742  44.3095943  98.6964082  64.6571185  43.2290154  99.2467997
  68.6870292  49.5085113  94.9348165  68.0579154  49.6730828  94.2324233
  68.2995954  49.9226723  95.7059129  72.5659524  50.4439551  92.2892529
  71.8810562  50.8238453  91.7389562  72.6503373  51.0534878  93.0224477
  67.8671993  41.5460898 100.2110607  67.6232924  42.3002958  99.6744883
  68.1431923  41.9246245 101.0457854  69.8210455  48.0899510  98.8887873
  70.0327351  48.7331270  98.2122254  69.7740204  47.2561827  98.4209803
  67.4236684  40.7017331  95.7924445  66.5621163  40.9998584  96.0841182
  67.4499119  40.9187730  94.8605477  64.2398254  49.2459521  92.1998250
  64.7036599  49.5247224  91.4102873  63.9755052  48.3442966  92.0171341
  61.1322335  48.7931003  95.1378014  61.7023692  49.2218271  94.4995498
  61.7230447  48.5113588  95.8362199  63.1767140  45.3682674  89.0087816
  63.8791183  45.8203718  89.4761742  62.8447768  44.7266493  89.6367709
  61.6247501  43.9594430 103.3839025  60.9946162  44.6410711 103.6174422
  61.5183589  43.8477512 102.4392163  56.9192474  43.6266226  94.3104949
  56.1291528  43.8823755  93.8345060  57.4103721  44.4414564  94.4156990
  70.9356283  50.9671466  97.0610230  71.7573727  50.5651653  96.7792912
  70.9318686  50.8639700  98.0126346  58.8707219  43.9910806  91.2688426
  58.0738382  44.1029500  91.7871922  58.6432811  44.3297458  90.4029316
  64.7012887  50.5155509  99.2170940  64.7657319  50.9775916 100.0529112
  63.9923811  49.8852874  99.3453250  55.2030177  43.8796717  96.7419940
  55.4538215  44.7643727  97.0077516  55.7389725  43.7001318  95.9695032
  79.0262276  47.3110214  93.4095201  78.2725985  46.7417612  93.2539206
  79.1609818  47.2772879  94.3565836  64.4160904  52.1823616  89.0849921
  64.2806579  53.0275152  89.5134769  64.9570717  52.3842894  88.3215855
  60.9028244  38.2615196 105.7464276  60.5095190  37.7081395 106.4211920
  61.7194384  38.5725775 106.1370794  57.8690302  49.6999054  89.6577846
  58.3814822  50.4942305  89.8083411  58.5213015  49.0025345  89.5911447
  59.6785186  52.8164811  91.7400599  59.8551815  53.7382775  91.5521583
  60.4742020  52.5023230  92.1694979  63.8196205  39.6773075 103.3384533
  64.5605918  40.2780229 103.2588995  64.0514128  38.9350713 102.7802575
  58.9637543  44.8629443 101.6162762  58.8491058  43.9614700 101.9169861
  58.1082061  45.1093139 101.2647579  66.0429381  52.8047183 103.2150263
  65.5993235  52.0183562 102.8971167  66.7046594  52.9926333 102.5494154
  60.8016502  54.3342985  97.7410941  61.3523927  54.2060048  96.9687935
  59.9627978  54.6337874  97.3905834  68.1410619  53.0849983 101.2431664
  68.1229094  53.9058864 100.7511933  69.0630539  52.9604058 101.4681805
  64.5983673  50.5994112 102.0855172  65.1312010  49.8382401 101.8554480
  64.0697754  50.3067764 102.8279327  67.7653368  35.7054178  97.6148814
  67.4217637  36.5955820  97.5387925  68.1332331  35.5155836  96.7518399
  55.8339219  48.0287709  90.4337416  56.6714441  48.4384717  90.2171124
  56.0117486  47.0887151  90.4037610  67.7303651  45.6962789  86.1221249
  67.2150274  46.4667394  86.3609637  67.4580959  45.0227926  86.7454311
  65.3150762  40.5412490  91.1806488  64.4592358  40.1519341  91.0012126
  65.7277713  40.6204451  90.3206273  66.8449908  38.0758833  95.5798047
  66.3414704  38.0388969  94.7665853  67.1380515  38.9851576  95.6394704
  63.0892794  38.1597563  94.5864229  63.9545791  37.9640372  94.2270119
  63.1570303  37.9307915  95.5133586  72.7037925  48.4495144  88.0574423
  71.9267368  48.1106304  87.6129585  73.3829406  48.4547767  87.3829388
  67.5189954  43.5689882  87.9481031  67.2140089  43.8836031  88.7991174
  68.4720396  43.6471301  87.9908364  65.9636386  49.7280105  89.5973985
  65.4357747  48.9932864  89.2847222  65.4623888  50.5054781  89.3513953
  70.9429232  47.9229125  94.7141031  70.2852906  48.6128387  94.8021159
  71.7469631  48.3125557  95.0575017  60.6955113  40.3899771  91.9580596
  61.2698865  40.1674953  91.2253789  61.2826096  40.4588466  92.7109197
  69.7534691  46.2773498  92.7644973  70.2666572  46.9103490  93.2666682
  70.4035914  45.6774694  92.3988333  61.0224700  42.4204232  85.9776481
  60.1862013  42.7578919  86.2985756  60.8829470  42.2853212  85.0403618
  62.9977781  37.2641020  90.6855665  62.3442193  36.9490037  90.0612280
  62.9558255  36.6416761  91.4115488  64.1088986  47.5460315  82.6008958
  63.2016048  47.3149569  82.8000107  64.6060018  46.7497934  82.7882939
  67.0157065  56.2557822  85.5205644  66.3418764  56.5589519  86.1290602
  67.4022887  57.0586903  85.1711101  66.2315521  43.7522954  95.0103313
  65.3138083  43.9737901  94.8525001  66.6475665  43.8269264  94.1515020
  67.0150569  45.1514369  90.1405993  67.7622388  45.6635766  89.8313115
  67.2842159  44.8298422  91.0010387  65.2877219  47.6472910  87.1232948
  64.3788439  47.3631943  87.2205417  65.3172303  48.0671989  86.2636254
  70.5196487  51.2579499  90.8924115  70.0658814  50.4170409  90.9489306
  69.8890453  51.8940898  91.2298895  69.4629406  42.1871486  92.1224783
  68.7252163  41.6748872  92.4535025  69.7156180  41.7471867  91.3108060
  68.9629426  53.0955996  91.8273933  69.2552400  53.6561053  91.1086299
  69.4728047  53.3884557  92.5827092  69.5641034  34.9647738  92.7166552
  69.8699910  34.1045101  92.4292467  70.2893638  35.5565358  92.5165546
  55.8565390  45.3678424  91.1048150  55.6589790  44.7747785  90.3799216
  55.3012054  45.0630634  91.8224089  63.8362113  45.2601531  93.2242743
  63.8910723  44.3075367  93.1485220  63.0253315  45.4160970  93.7084041
  64.9853307  49.1881654  84.4621026  64.5472737  48.4717513  84.0026664
  65.7263748  49.4157768  83.9006118  61.7754473  43.8778590  90.9833122
  60.9622339  44.1772761  91.3898314  62.2713467  43.4834279  91.7007604
  63.9263051  53.8736347  92.9167387  63.8839230  54.0997194  91.9875919
  64.8425750  53.6399722  93.0653188  67.3728685  44.3420415  99.8148016
  67.7278073  44.5691888 100.6742482  68.0200816  44.6738792  99.1925271
  73.1026422  47.4638851  90.5197345  72.9644320  47.6540447  89.5918534
  72.7462641  48.2258234  90.9765396  61.2668548  41.4496946  96.5994357
  61.9067927  41.3085705  95.9017320  60.4346079  41.1631459  96.2232959
  73.1295802  49.5315378  95.5308616  73.5632308  49.4390667  96.3791670
  73.8427382  49.5072878  94.8928632  62.0428852  50.7499376  92.7129349
  62.8369450  50.2549696  92.5111924  61.3320544  50.2217239  92.3497055
  66.8623696  53.1317472  97.0641717  66.9160719  53.7008408  97.8319433
  65.9938478  53.3019357  96.6995754  58.3511615  44.8942458  88.7889102
  57.4209203  44.8326914  89.0059064  58.4469087  44.3718411  87.9925743
  58.2697164  41.4197271  91.3767344  58.5303982  42.3342604  91.2676504
  59.0914337  40.9521713  91.5263956  59.7422090  42.8335028  98.5466168
  60.4145143  42.6252390  97.8978817  58.9151876  42.6357114  98.1071400
  73.9911351  49.5739078  98.0641502  74.1847241  50.4784889  98.3100777
  73.8911969  49.1146497  98.8980087  65.6447662  39.4596969 100.5631829
  64.9975577  40.1586919 100.4696305  66.4148677  39.8933113 100.9308077
  69.0526460  49.7245821 103.6382382  68.9011966  49.4956373 102.7212466
  69.0431139  50.6816423 103.6513727  65.8211796  47.2977734  98.6228649
  66.7503856  47.4488893  98.4497616  65.4002826  47.3861755  97.7677295
  64.6200128  51.3228398  96.3927186  64.4811214  50.9547183  97.2653124
  63.8314724  51.8376038  96.2211144  65.2148280  56.4237495  87.7352723
  65.3900036  55.9525538  88.5498346  64.5281068  57.0503261  87.9633984
  66.1705343  50.7010001  93.7816024  65.8355176  50.6610771  94.6773674
  65.6709289  50.0354717  93.3086434  60.1449587  46.1077631  99.3068605
  60.0069385  45.3757870  99.9080144  61.0554511  46.0186531  99.0252793
  69.1064535  48.0466035  84.0553084  68.4893705  47.3212863  83.9586136
  68.6381023  48.8075396  83.7120158  62.7731888  45.8197590  98.7952285
  63.4831506  45.1790783  98.7538903  62.7301196  46.0710485  99.7178466
  70.7618666  52.7564944 101.7158864  70.7031213  52.0724164 101.0489447
  71.1638185  53.4983934 101.2639490  61.4860822  42.8062808 100.6147924
  60.9498179  42.3553547 101.2669521  60.8977530  42.9408717  99.8718389
  59.7809365  59.5726858  94.5092583  60.0205963  60.2045382  95.1871602
  58.9378562  59.2214898  94.7957942  60.8963081  42.2651460  83.1774388
  60.0192547  42.1440260  82.8136635  61.3720834  41.4737538  82.9253277
  70.7636074  50.7204528  99.9472844  69.8762852  50.3830449 100.0699243
  71.3334625  49.9887559 100.1841609  52.4165221  47.0528619  93.2715895
  53.1036261  46.7390349  92.6836911  52.2613349  47.9569984  92.9983147
  57.2199943  41.9418816  97.7000919  57.1358132  41.3344485  96.9651329
  56.3982649  42.4327834  97.7010415  64.2937227  55.3805980  96.9134087
  64.2207399  56.1860951  97.4253392  63.8514620  55.5797946  96.0882108
  64.0827007  54.6177750  90.4236909  63.2994529  55.1599430  90.5175133
  64.7819752  55.1351730  90.8231150  67.3923657  40.4272379  93.0671114
  67.8892356  39.6742342  92.7472184  66.6210638  40.4636696  92.5014323
  75.2453414  46.1312745  94.7089405  75.2343290  47.0137460  94.3383339
  74.3770794  45.7784296  94.5143943  66.7535911  55.2792814  99.0692246
  67.4663883  55.9140279  98.9968147  66.2625939  55.3756680  98.2532248
  68.4753437  49.1844067  90.6409537  67.5409716  49.3045529  90.4714242
  68.6530106  48.2816533  90.3769547  63.9758626  42.5689762  92.7942799
  63.6056413  42.0160803  93.4823704  64.4717718  41.9647896  92.2417799
  71.8625989  45.0261386  91.1759572  72.3286441  45.8589378  91.1019874
  72.3133489  44.5606368  91.8804830  61.8047824  53.0287257  99.8897817
  62.5057284  53.6623740 100.0427211  61.3342939  53.3701989  99.1293456
  69.9302220  51.3705207  88.1745724  70.2062064  51.2561802  89.0839598
  69.0606719  50.9722692  88.1357897  69.8342652  37.3941973  95.2150473
  68.9205731  37.6246200  95.3832680  70.2635753  37.4780417  96.0664505
  69.6049110  45.5831865  97.7150367  68.9520560  45.8307772  97.0602820
  69.9829490  44.7696003  97.3812844  66.5656284  55.6191558  91.8178537
  66.7478678  54.8013214  92.2806290  67.3889270  55.8359250  91.3803427
  66.8998449  54.5459743  89.0793586  67.4286216  54.0352198  88.4663748
  67.1626669  54.2302273  89.9439119  65.6536683  46.3251676 104.2016404
  64.9777320  46.2245805 104.8718779  66.4764317  46.1690890 104.6652401
  57.4015542  52.5623612  96.8228919  57.9868979  51.8167300  96.9556823
  57.2040381  52.8727569  97.7065583  60.2554197  55.5974860  91.8391362
  59.5864573  56.0820988  91.3555402  60.1167067  55.8444080  92.7534740
  51.9933197  45.1329213  95.5433362  52.0317296  44.5992803  96.3370480
  51.4873490  44.6064418  94.9244340  64.3959466  57.6318603  98.4374020
  64.9477774  57.7950225  99.2023105  64.7365659  58.2223041  97.7654045
  59.3723959  39.9793753  99.0395905  59.4365286  40.8408584  98.6273302
  59.3091079  39.3667755  98.3068263  58.8476232  42.0516886 102.6868939
  59.4748271  41.6693963 103.3006463  57.9904151  41.8331088 103.0524631
  69.2470340  52.4579861 104.2922674  69.7910244  53.0709819 103.7977629
  68.6657185  53.0159439 104.8089687  55.6241774  43.8593315  88.6187294
  55.9195216  42.9503993  88.5654347  54.7229810  43.8381054  88.2968296
  67.5327853  55.5800579  95.4237702  67.4078993  54.7790319  94.9148648
  68.1906944  56.0746772  94.9351672  59.1536021  41.9349311  94.6014842
  58.4322607  42.5485279  94.4622316  59.9429277  42.4707076  94.5231488
  69.5962762  53.3809599  97.0517252  68.6493097  53.2614950  96.9795579
  69.9445535  52.4932097  97.1343514  61.9562335  39.2703738 100.8755494
  62.4796737  39.5166034 101.6381803  61.7374668  40.1023773 100.4558631
  57.3529616  41.5407413  88.7426619  57.0242322  40.6604791  88.5601725
  57.7068987  41.4855081  89.6303008  66.6009195  53.1762315  93.2521604
  66.4534157  52.2479023  93.4329174  67.4262688  53.1982406  92.7678680
  60.4671439  41.8280382  89.1102097  60.8067512  42.3566304  88.3880705
  60.9143560  42.1660788  89.8860663  70.2043317  53.9990874  94.3386477
  71.1289864  53.7933735  94.2010928  70.0358620  53.7507275  95.2475819
  63.1614880  40.2117433  98.5605165  62.8211700  39.4125246  98.9625845
  62.4553886  40.5119144  97.9881998  63.8131352  37.2966745  97.0132488
  64.6357421  36.8227224  96.8911378  64.0569415  38.0757229  97.5131174
  62.4539586  40.3255004  87.3095389  63.1747949  40.7036257  86.8059106
  61.8304890  41.0443881  87.4130367  66.5970709  41.0300153  88.2453722
  66.8134324  41.9124791  87.9442550  66.1164776  40.6386366  87.5159364
  61.3369931  43.9885866  94.8224466  61.1914511  44.3026169  95.7148748
  60.8595134  44.6070766  94.2695365  63.1966314  40.9788414  94.8705356
  63.1827882  40.0829507  94.5337654  63.9138742  40.9859078  95.5043642
  65.0492444  41.4125754  96.9158483  64.7910222  42.3342825  96.9142814
  64.5177485  41.0156189  97.6058947  69.9938633  54.5176541  89.6948569
  70.1675511  53.9522964  88.9422421  70.4867524  55.3177436  89.5128059
  55.8115593  46.5291210  97.7612127  55.2669061  47.3051018  97.8932402
  56.6894943  46.8762015  97.6031249  62.6003209  39.8602794  90.1392926
  62.7219121  38.9319441  90.3383813  62.3105252  39.8741480  89.2271241
  65.4694400  37.5457705  93.2759646  65.4916097  37.6097038  92.3211625
  65.8862459  36.7062213  93.4700152  75.8478024  47.2812964  91.3138868
  76.2909170  46.5320290  90.9157992  74.9704534  47.2723101  90.9312600
  70.9813805  53.8343306  86.7945467  71.6764710  54.4549998  87.0132782
  71.3236956  52.9838657  87.0697845  56.5981615  45.6561107 100.6542284
  55.8563351  45.8043742 101.2406915  56.2774359  45.9169372  99.7909034
  72.8805229  51.2843011  88.3232798  73.4056553  51.6230284  87.5982118
  72.7927581  50.3490027  88.1395932  64.5425277  55.1977085 100.4522674
  64.8512404  54.9526232 101.3245374  65.3400759  55.4023723  99.9641545
  64.5645889  57.3514995  92.6828051  64.1250880  56.8591373  93.3760908
  65.3154006  56.8087962  92.4420126  57.0438228  53.5426535  92.6852679
  57.8696248  53.2430307  92.3051322  56.6932280  52.7734158  93.1342468
  62.0119761  52.8953004  94.7550353  61.3899771  52.2323709  94.4552580
  62.6824628  52.9214136  94.0724000  55.2446833  51.4612862  93.6441613
  54.4078742  51.0335036  93.4625614  55.2170479  51.6545305  94.5812404
  62.0844289  41.3734792 104.3482859  62.1332444  42.2496915 103.9660628
  62.6266803  40.8312185 103.7754502  72.5699135  51.9175915 103.6283996
  71.7794678  51.9000054 103.0888495  72.3332489  52.4564209 104.3833032
  72.6897010  48.7668381 100.9416724  72.7395015  48.6018389 101.8832247
  72.5810933  47.8995640 100.5514605  61.5733268  51.4456927  88.2308813
  61.7221389  52.1292391  87.5775486  62.3799712  51.4262017  88.7458269
  69.9800772  44.7499309 102.2576031  70.8810635  44.6105774 101.9660029
  70.0548747  44.9153764 103.1974208  64.3143577  42.1266164 101.1029217
  63.4446887  42.4199730 100.8311806  64.5503058  42.7106609 101.8236481
  74.1915207  51.1865323 101.1858746  73.9000015  51.5495303 102.0222207
  73.5787338  50.4732331 101.0072078  75.3910889  48.7518203  93.7061316
  76.2257780  49.1908007  93.8698876  75.5270018  48.2756856  92.8869562
  72.4402395  46.3097937  99.6538804  72.9156516  46.5025584  98.8457655
  71.5167960  46.3657123  99.4082187  59.3285901  47.4722105  89.2369882
  59.0831943  46.5684435  89.4350092  59.4981816  47.4739255  88.2949360
  67.0182611  38.3445781  98.6194638  67.5364555  39.0806808  98.2941126
  66.6637744  38.6509774  99.4541397  58.5981549  43.2050462  86.7356043
  57.9050794  43.2794817  86.0796079  58.3533301  42.4410806  87.2577560
  67.2695205  34.7646064  94.1395534  67.5496959  34.0969253  94.7655961
  68.0545812  34.9575159  93.6270198  65.0728674  53.9405057  85.7020561
  64.5002641  54.5595245  85.2491032  65.6461468  54.4904419  86.2360482
  71.1404064  43.1863698  97.8867109  72.0921487  43.2861795  97.9079333
  70.9707514  42.3941966  98.3965194  69.1618443  40.2719281  98.0726510
  68.5668375  40.5524294  97.3772999  68.8768140  40.7613182  98.8443251
  68.2925934  54.2242208  86.8329143  69.2256607  54.1587769  87.0362018
  68.2049147  55.0598474  86.3743675  70.9213950  53.5408078  83.7933090
  70.8427582  53.2067942  84.6868848  71.7423617  54.0329846  83.7924563
  73.6192142  46.4069817  97.0009409  73.5868462  45.4685818  97.1869093
  74.2292765  46.4853854  96.2675234  65.4575472  45.2765870  83.0436613
  66.4034577  45.1472078  83.1125031  65.0789717  44.5380532  83.5206041
  73.7686630  43.1980861  97.0467692  73.2525679  42.4139317  96.8597621
  74.6526579  42.8699577  97.2114212  71.4297357  36.9421876  93.0063505
  71.2322178  36.6336964  93.8906837  72.0397063  37.6683515  93.1361435
  79.4368691  47.4685824  96.1415446  80.1672080  47.2071112  96.7023149
  78.8275637  46.7314546  96.1817514  77.5183989  45.6093687  96.7389897
  76.7917152  45.4749652  96.1306389  77.1031275  45.9170515  97.5446615
  65.3414165  49.3283616 104.5037270  66.2617174  49.5062215 104.6977317
  65.3063748  48.3839662 104.3516969  63.6418390  43.2015847  82.9791498
  62.7349845  42.9048959  83.0554212  63.9194371  42.9045665  82.1125784
  54.5596330  44.5222210  93.4290545  54.2399114  43.6687518  93.1364919
  54.0129758  44.7370788  94.1848512  58.3376238  47.2384651  97.1460051
  58.5562247  48.1701759  97.1648085  58.7502011  46.8792625  97.9314855
  65.2580455  37.7452736  89.1335740  64.4481184  37.3999821  89.5090986
  65.9464872  37.4360280  89.7223351  67.1871004  36.8230783  90.7560036
  67.7402042  37.2426237  91.4150059  67.4241090  35.8966531  90.7982992
  63.2104103  42.8117857 106.5362800  63.1100830  43.7612214 106.4674891
  62.9925645  42.4836096 105.6638870  62.4117174  40.0602782  83.1203477
  63.2736338  40.3857680  83.3799295  62.5967518  39.2734278  82.6076543
  54.4284590  48.1425122  95.3983666  53.7348061  47.7279074  94.8853621
  55.1757581  48.1845658  94.8017085  70.5649811  38.9331308  90.2638700
  69.9848480  39.5916112  89.8816753  70.2985743  38.1108653  89.8526118
  69.0153377  38.3336366  92.4660021  69.5153155  38.4452901  91.6574340
  69.6588985  38.0297419  93.1060829  63.0735373  46.2414996 105.3527862
  62.5902455  47.0415356 105.5591751  63.1596312  46.2522941 104.3995306
  56.3421332  48.0743375  93.2749681  56.3192021  48.1731063  92.3231564
  56.6521969  48.9208526  93.5966847  59.0008710  50.1319530  97.3896296
  59.9551964  50.1003473  97.3226227  58.8021234  49.6710154  98.2046521
  59.5908092  48.7020646  99.9567093  60.4100981  49.1964725  99.9801930
  59.8644900  47.7852615  99.9284661  69.3474689  41.0931399  89.3195049
  68.4600544  41.3781049  89.1015243  69.7628678  40.9325162  88.4722326
  72.6989225  41.1177920  93.0349388  73.4749615  41.6074372  93.3074005
  71.9737359  41.5435974  93.4921257  75.1361783  41.8305539  94.0923329
  75.7306274  41.5901275  93.3816637  75.2088367  41.1112669  94.7196865
  57.3558939  55.6739150  94.4066493  57.2213407  54.9139551  93.8404491
  56.9391001  56.3980050  93.9395282  68.4917902  50.8576073  83.4143069
  69.1953752  51.0626076  84.0300724  67.7680551  51.4252835  83.6792152
  69.3215712  46.6085935  89.5345339  69.2650914  47.0654486  88.6952971
  69.8744055  45.8476619  89.3568182  73.1320518  42.3975666  90.3595458
  72.8757453  41.9972302  91.1903666  72.5073386  43.1119460  90.2345598
  77.4432856  45.1371740  92.8666750  76.8832414  45.2064929  93.6398312
  76.8376360  44.9612724  92.1466246  60.5128065  56.5708467  94.6184936
  60.3960449  57.5153899  94.5163626  59.6920511  56.2682028  95.0070735
  70.4004600  51.2958603  85.4641529  71.2350203  50.8639801  85.2819004
  70.2388942  51.1240616  86.3918423  70.0550492  47.7990716  86.8297868
  69.9999296  47.6334987  85.8886312  69.4296547  48.5066749  86.9860058
  54.8443007  43.0358780 100.6559290  55.4901870  42.5257734 101.1446515
  54.6360158  43.7727462 101.2302715  67.3696399  50.1039628 106.1551431
  68.2387559  50.2780280 105.7938066  66.8903150  50.9234045 106.0327160
  63.3646617  37.2998825  86.4083186  63.3525287  38.2440665  86.5651457
  64.2570039  37.1168970  86.1142648  61.5382579  57.2236729  97.8340864
  62.4409826  57.2560339  98.1507359  61.3119949  56.2937180  97.8487200
  63.2936181  55.9767715  94.4950943  62.3431812  55.9769577  94.3815315
  63.5968667  55.2300450  93.9786978  67.1798737  33.8941602  90.6629123
  66.4131132  33.3400088  90.8085806  67.5909442  33.9663470  91.5243275
  59.1840498  40.1826397 104.7534304  60.0471959  39.8263202 104.9637629
  58.6105908  39.8440292 105.4409709  79.0288875  61.8128254  95.5596705
  79.6667285  61.6935001  94.8560046  78.9109718  62.7609098  95.6184658
  75.8378581  61.7655682  95.4958230  75.4997092  61.6496746  94.6078765
  76.7068349  61.3646847  95.4759236  71.6965397  63.6191158  91.4855121
  71.1330262  63.5281095  90.7171409  71.5817792  62.7991063  91.9657614
  76.3198364  62.9190534 101.4544436  76.3087005  62.5243332 100.5824939
  76.4819003  62.1856606 102.0478207  69.2429829  65.1142350  94.3239342
  70.0351120  64.7733174  93.9085641  69.4826479  65.2237325  95.2441495
  77.2764955  67.2862126  86.7969586  76.6252935  67.8716206  86.4103600
  78.0709318  67.8168321  86.8564623  71.2020583  64.3751263  87.1956720
  71.9751459  63.8280250  87.0569596  71.5545981  65.2395512  87.4071182
  73.0405625  65.7027645 100.4023620  72.7495491  66.6073276 100.2870286
  73.6762609  65.7444173 101.1167689  73.9661832  63.0804494  96.9924979
  74.5625404  62.8560516  96.2781942  74.0236803  62.3389239  97.5950427
  73.5386860  60.5343929  84.8275170  73.7912381  60.0125450  84.0658633
  72.6011419  60.3710075  84.9301854  78.5830143  59.5379708  92.6349914
  79.3693232  59.1199131  92.2840331  78.8468847  60.4425800  92.8031562
  78.7540220  64.9752558  87.3338570  78.1186053  65.0487184  88.0459475
  78.4237627  65.5646157  86.6557650  83.9838570  59.4754941  93.5382892
  84.7163742  58.9054158  93.7720722  83.2277926  59.0876541  93.9789398
  73.2583149  62.4372035  87.0299545  73.1419407  61.7616939  87.6980630
  73.3685409  61.9504409  86.2131698  75.6014690  61.8982182  90.7346234
  75.2372897  61.3712803  91.4459156  76.4581806  61.5080651  90.5612720
  81.5063991  53.1876515  97.9977501  81.1747315  54.0571926  97.7738716
  80.9109604  52.8712799  98.6771531  75.2420177  56.9272082  85.7307583
  75.4094579  57.7952318  86.0978054  75.0517346  57.0899364  84.8068872
  77.9995510  65.3889061  97.3973413  77.6996233  66.2914100  97.2889221
  77.6546570  65.1221244  98.2494566  71.4507992  61.8402858  93.4310118
  70.5258488  61.7079072  93.6387810  71.6992405  62.6197077  93.9280060
  81.3992654  57.9071601  95.0770851  80.4909531  57.8387009  94.7829612
  81.3480250  58.3843546  95.9052676  75.2209398  59.3829739  86.7154250
  75.1009023  59.8286790  87.5539730  74.5261986  59.7315057  86.1567788
  68.8116803  61.4836131  94.2653907  68.9409184  61.7370610  95.1793319
  68.1314254  62.0763839  93.9458562  72.9816290  72.1533381  90.3644381
  72.9040320  73.1041206  90.4432862  72.3777934  71.8079254  91.0219307
  75.4733520  59.3261247 103.0205748  74.6966854  59.8855167 103.0108613
  76.1124083  59.8118030 103.5420618  83.2654300  56.1088039  96.8548725
  82.6228681  56.4020573  96.2088519  82.7609229  55.9940960  97.6601921
  80.9194464  59.8551213  87.5434584  81.8312320  60.0878599  87.3682281
  80.4104111  60.4388257  86.9809662  73.7279892  62.1346700 102.5823715
  74.4694576  62.6731744 102.3058539  73.0216878  62.7612989 102.7395267
  79.2035232  64.2775840 101.1795876  79.6118588  63.8358251 100.4350509
  78.4812493  63.7028468 101.4330069  75.5566302  59.2148447  98.5529433
  76.4027497  59.6387861  98.6964082  75.4964939  58.5582072  99.2467997
  79.5264046  64.8377031  94.9348165  78.8972909  65.0022745  94.2324233
  79.1389708  65.2518641  95.7059129  83.4053278  65.7731469  92.2892529
  82.7204316  66.1530370  91.7389562  83.4897128  66.3826796  93.0224477
  78.7065747  56.8752816 100.2110607  78.4626679  57.6294876  99.6744883
  78.9825678  57.2538163 101.0457854  80.6604210  63.4191428  98.8887873
  80.8721105  64.0623188  98.2122254  80.6133958  62.5853744  98.4209803
  78.2630439  56.0309249  95.7924445  77.4014918  56.3290502  96.0841182
  78.2892873  56.2479647  94.8605477  75.0792008  64.5751439  92.1998250
  75.5430354  64.8539142  91.4102873  74.8148806  63.6734884  92.0171341
  71.9716089  64.1222921  95.1378014  72.5417446  64.5510189  94.4995498
  72.5624201  63.8405505  95.8362199  74.0160894  60.6974592  89.0087816
  74.7184938  61.1495635  89.4761742  73.6841523  60.0558410  89.6367709
  72.4641256  59.2886348 103.3839025  71.8339916  59.9702629 103.6174422
  72.3577344  59.1769430 102.4392163  67.7586228  58.9558144  94.3104949
  66.9685282  59.2115673  93.8345060  68.2497476  59.7706482  94.4156990
  81.7750038  66.2963383  97.0610230  82.5967481  65.8943571  96.7792912
  81.7712441  66.1931618  98.0126346  69.7100974  59.3202723  91.2688426
  68.9132137  59.4321418  91.7871922  69.4826566  59.6589376  90.4029316
  75.5406641  65.8447427  99.2170940  75.6051074  66.3067834 100.0529112
  74.8317565  65.2144792  99.3453250  66.0423931  59.2088635  96.7419940
  66.2931970  60.0935645  97.0077516  66.5783480  59.0293236  95.9695032
  89.8656031  62.6402132  93.4095201  89.1119739  62.0709530  93.2539206
  90.0003572  62.6064796  94.3565836  75.2554659  67.5115534  89.0849921
  75.1200334  68.3567070  89.5134769  75.7964471  67.7134812  88.3215855
  71.7421999  53.5907114 105.7464276  71.3488944  53.0373313 106.4211920
  72.5588139  53.9017692 106.1370794  68.7084056  65.0290972  89.6577846
  69.2208577  65.8234222  89.8083411  69.3606769  64.3317263  89.5911447
  70.5178941  68.1456728  91.7400599  70.6945569  69.0674693  91.5521583
  71.3135774  67.8315148  92.1694979  74.6589960  55.0064993 103.3384533
  75.3999673  55.6072146 103.2588995  74.8907882  54.2642631 102.7802575
  69.8031298  60.1921360 101.6162762  69.6884813  59.2906618 101.9169861
  68.9475815  60.4385057 101.2647579  76.8823135  68.1339101 103.2150263
  76.4386989  67.3475479 102.8971167  77.5440349  68.3218251 102.5494154
  71.6410256  69.6634902  97.7410941  72.1917682  69.5351966  96.9687935
  70.8021732  69.9629791  97.3905834  78.9804373  68.4141901 101.2431664
  78.9622849  69.2350782 100.7511933  79.9024293  68.2895976 101.4681805
  75.4377427  65.9286030 102.0855172  75.9705764  65.1674318 101.8554480
  74.9091509  65.6359682 102.8279327  78.6047122  51.0346096  97.6148814
  78.2611392  51.9247738  97.5387925  78.9726085  50.8447754  96.7518399
  66.6732973  63.3579626  90.4337416  67.5108195  63.7676635  90.2171124
  66.8511241  62.4179069  90.4037610  78.5697405  61.0254707  86.1221249
  78.0544029  61.7959312  86.3609637  78.2974714  60.3519843  86.7454311
  76.1544516  55.8704408  91.1806488  75.2986113  55.4811258  91.0012126
  76.5671468  55.9496369  90.3206273  77.6843663  53.4050751  95.5798047
  77.1808458  53.3680886  94.7665853  77.9774270  54.3143494  95.6394704
  73.9286549  53.4889481  94.5864229  74.7939545  53.2932290  94.2270119
  73.9964058  53.2599833  95.5133586  83.5431679  63.7787062  88.0574423
  82.7661122  63.4398221  87.6129585  84.2223160  63.7839685  87.3829388
  78.3583708  58.8981799  87.9481031  78.0533844  59.2127948  88.7991174
  79.3114150  58.9763219  87.9908364  76.8030140  65.0572023  89.5973985
  76.2751502  64.3224782  89.2847222  76.3017643  65.8346699  89.3513953
  81.7822986  63.2521043  94.7141031  81.1246661  63.9420304  94.8021159
  82.5863385  63.6417475  95.0575017  71.5348868  55.7191689  91.9580596
  72.1092620  55.4966870  91.2253789  72.1219850  55.7880383  92.7109197
  80.5928445  61.6065416  92.7644973  81.1060327  62.2395408  93.2666682
  81.2429669  61.0066611  92.3988333  71.8618455  57.7496150  85.9776481
  71.0255767  58.0870836  86.2985756  71.7223225  57.6145130  85.0403618
  73.8371536  52.5932938  90.6855665  73.1835948  52.2781955  90.0612280
  73.7952010  51.9708678  91.4115488  74.9482740  62.8752233  82.6008958
  74.0409802  62.6441486  82.8000107  75.4453772  62.0789852  82.7882939
  77.8550819  71.5849740  85.5205644  77.1812518  71.8881437  86.1290602
  78.2416641  72.3878820  85.1711101  77.0709276  59.0814871  95.0103313
  76.1531837  59.3029818  94.8525001  77.4869419  59.1561182  94.1515020
  77.8544324  60.4806287  90.1405993  78.6016143  60.9927684  89.8313115
  78.1235913  60.1590340  91.0010387  76.1270974  62.9764828  87.1232948
  75.2182193  62.6923860  87.2205417  76.1566058  63.3963906  86.2636254
  81.3590241  66.5871417  90.8924115  80.9052568  65.7462327  90.9489306
  80.7284208  67.2232816  91.2298895  80.3023161  57.5163403  92.1224783
  79.5645918  57.0040789  92.4535025  80.5549934  57.0763785  91.3108060
  79.8023180  68.4247914  91.8273933  80.0946155  68.9852971  91.1086299
  80.3121801  68.7176475  92.5827092  80.4034788  50.2939655  92.7166552
  80.7093665  49.4337019  92.4292467  81.1287393  50.8857275  92.5165546
  66.6959144  60.6970342  91.1048150  66.4983544  60.1039702  90.3799216
  66.1405808  60.3922552  91.8224089  74.6755868  60.5893448  93.2242743
  74.7304478  59.6367285  93.1485220  73.8647070  60.7452887  93.7084041
  75.8247062  64.5173571  84.4621026  75.3866492  63.8009430  84.0026664
  76.5657502  64.7449686  83.9006118  72.6148228  59.2070508  90.9833122
  71.8016093  59.5064679  91.3898314  73.1107222  58.8126197  91.7007604
  74.7656806  69.2028265  92.9167387  74.7232984  69.4289111  91.9875919
  75.6819505  68.9691640  93.0653188  78.2122439  59.6712332  99.8148016
  78.5671827  59.8983806 100.6742482  78.8594571  60.0030709  99.1925271
  83.9420176  62.7930768  90.5197345  83.8038075  62.9832364  89.5918534
  83.5856395  63.5550151  90.9765396  72.1062303  56.7788864  96.5994357
  72.7461682  56.6377623  95.9017320  71.2739833  56.4923377  96.2232959
  83.9689556  64.8607295  95.5308616  84.4026063  64.7682584  96.3791670
  84.6821137  64.8364796  94.8928632  72.8822606  66.0791294  92.7129349
  73.6763205  65.5841614  92.5111924  72.1714299  65.5509157  92.3497055
  77.7017451  68.4609389  97.0641717  77.7554473  69.0300326  97.8319433
  76.8332232  68.6311275  96.6995754  69.1905370  60.2234376  88.7889102
  68.2602958  60.1618831  89.0059064  69.2862842  59.7010328  87.9925743
  69.1090919  56.7489189  91.3767344  69.3697736  57.6634522  91.2676504
  69.9308091  56.2813631  91.5263956  70.5815844  58.1626946  98.5466168
  71.2538898  57.9544308  97.8978817  69.7545631  57.9649032  98.1071400
  84.8305106  64.9030996  98.0641502  85.0240996  65.8076807  98.3100777
  84.7305724  64.4438415  98.8980087  76.4841416  54.7888887 100.5631829
  75.8369331  55.4878836 100.4696305  77.2542432  55.2225031 100.9308077
  76.6605551  62.6269652  98.6228649  77.5897611  62.7780811  98.4497616
  76.2396581  62.7153672  97.7677295  75.4593882  66.6520316  96.3927186
  75.3204968  66.2839100  97.2653124  74.6708479  67.1667955  96.2211144
  76.0542034  71.7529412  87.7352723  76.2293790  71.2817456  88.5498346
  75.3674822  72.3795179  87.9633984  77.0099098  66.0301919  93.7816024
  76.6748930  65.9902689  94.6773674  76.5103043  65.3646635  93.3086434
  70.9843342  61.4369549  99.3068605  70.8463139  60.7049787  99.9080144
  71.8948265  61.3478449  99.0252793  79.9458289  63.3757953  84.0553084
  79.3287460  62.6504781  83.9586136  79.4774778  64.1367313  83.7120158
  73.6125642  61.1489508  98.7952285  74.3225261  60.5082700  98.7538903
  73.5694950  61.4002403  99.7178466  72.3254576  58.1354726 100.6147924
  71.7891933  57.6845464 101.2669521  71.7371285  58.2700635  99.8718389
  70.6203120  74.9018775  94.5092583  70.8599718  75.5337299  95.1871602
  69.7772316  74.5506815  94.7957942  71.7356835  57.5943377  83.1774388
  70.8586301  57.4732178  82.8136635  72.2114588  56.8029456  82.9253277
  81.6029828  66.0496445  99.9472844  80.7156607  65.7122367 100.0699243
  82.1728379  65.3179476 100.1841609  63.2558975  62.3820537  93.2715895
  63.9430015  62.0682267  92.6836911  63.1007104  63.2861902  92.9983147
  68.0593697  57.2710734  97.7000919  67.9751886  56.6636403  96.9651329
  67.2376404  57.7619752  97.7010415  75.1330982  70.7097898  96.9134087
  75.0601153  71.5152869  97.4253392  74.6908375  70.9089863  96.0882108
  74.9220761  69.9469668  90.4236909  74.1388283  70.4891348  90.5175133
  75.6213506  70.4643647  90.8231150  78.2317411  55.7564297  93.0671114
  78.7286111  55.0034259  92.7472184  77.4604393  55.7928614  92.5014323
  86.0847169  61.4604663  94.7089405  86.0737045  62.3429378  94.3383339
  85.2164548  61.1076213  94.5143943  77.5929665  70.6084732  99.0692246
  78.3057637  71.2432196  98.9968147  77.1019694  70.7048598  98.2532248
  79.3147192  64.5135984  90.6409537  78.3803471  64.6337447  90.4714242
  79.4923860  63.6108451  90.3769547  74.8152380  57.8981680  92.7942799
  74.4450168  57.3452720  93.4823704  75.3111472  57.2939814  92.2417799
  82.7019743  60.3553304  91.1759572  83.1680196  61.1881295  91.1019874
  83.1527244  59.8898285  91.8804830  72.6441579  68.3579175  99.8897817
  73.3451038  68.9915658 100.0427211  72.1736694  68.6993907  99.1293456
  80.7695974  66.6997125  88.1745724  81.0455818  66.5853719  89.0839598
  79.9000473  66.3014610  88.1357897  80.6736406  52.7233891  95.2150473
  79.7599486  52.9538117  95.3832680  81.1029508  52.8072335  96.0664505
  80.4442865  60.9123783  97.7150367  79.7914315  61.1599690  97.0602820
  80.8223244  60.0987921  97.3812844  77.4050038  70.9483476  91.8178537
  77.5872433  70.1305132  92.2806290  78.2283024  71.1651168  91.3803427
  77.7392204  69.8751661  89.0793586  78.2679970  69.3644115  88.4663748
  78.0020424  69.5594191  89.9439119  76.4930438  61.6543594 104.2016404
  75.8171075  61.5537723 104.8718779  77.3158071  61.4982807 104.6652401
  68.2409297  67.8915530  96.8228919  68.8262733  67.1459218  96.9556823
  68.0434135  68.2019487  97.7065583  71.0947952  70.9266778  91.8391362
  70.4258327  71.4112905  91.3555402  70.9560822  71.1735998  92.7534740
  62.8326951  60.4621130  95.5433362  62.8711051  59.9284721  96.3370480
  62.3267244  59.9356336  94.9244340  75.2353220  72.9610521  98.4374020
  75.7871528  73.1242143  99.2023105  75.5759414  73.5514959  97.7654045
  70.2117714  55.3085671  99.0395905  70.2759040  56.1700502  98.6273302
  70.1484834  54.6959673  98.3068263  69.6869986  57.3808803 102.6868939
  70.3142025  56.9985881 103.3006463  68.8297905  57.1623005 103.0524631
  66.4635529  59.1885233  88.6187294  66.7588970  58.2795911  88.5654347
  65.5623565  59.1672972  88.2968296  78.3721608  70.9092497  95.4237702
  78.2472747  70.1082236  94.9148648  79.0300699  71.4038690  94.9351672
  69.9929776  57.2641229  94.6014842  69.2716362  57.8777197  94.4622316
  70.7823032  57.7998994  94.5231488  80.4356516  68.7101517  97.0517252
  79.4886852  68.5906868  96.9795579  80.7839289  67.8224015  97.1343514
  72.7956089  54.5995656 100.8755494  73.3190491  54.8457952 101.6381803
  72.5768423  55.4315690 100.4558631  68.1923371  56.8699330  88.7426619
  67.8636077  55.9896709  88.5601725  68.5462741  56.8146999  89.6303008
  77.4402949  68.5054233  93.2521604  77.2927912  67.5770940  93.4329174
  78.2656443  68.5274324  92.7678680  71.3065194  57.1572300  89.1102097
  71.6461266  57.6858221  88.3880705  71.7537314  57.4952706  89.8860663
  81.0437071  69.3282792  94.3386477  81.9683619  69.1225653  94.2010928
  80.8752375  69.0799193  95.2475819  74.0008635  55.5409351  98.5605165
  73.6605455  54.7417164  98.9625845  73.2947641  55.8411062  97.9881998
  74.6525106  52.6258663  97.0132488  75.4751176  52.1519141  96.8911378
  74.8963170  53.4049147  97.5131174  73.2933341  55.6546922  87.3095389
  74.0141703  56.0328174  86.8059106  72.6698645  56.3735798  87.4130367
  77.4364464  56.3592071  88.2453722  77.6528078  57.2416708  87.9442550
  76.9558531  55.9678284  87.5159364  72.1763685  59.3177784  94.8224466
  72.0308266  59.6318087  95.7148748  71.6988889  59.9362684  94.2695365
  74.0360068  56.3080332  94.8705356  74.0221637  55.4121425  94.5337654
  74.7532496  56.3150995  95.5043642  75.8886199  56.7417672  96.9158483
  75.6303977  57.6634743  96.9142814  75.3571239  56.3448106  97.6058947
  80.8332387  69.8468459  89.6948569  81.0069265  69.2814882  88.9422421
  81.3261279  70.6469354  89.5128059  66.6509347  61.8583128  97.7612127
  66.1062815  62.6342936  97.8932402  67.5288697  62.2053933  97.6031249
  73.4396964  55.1894712  90.1392926  73.5612875  54.2611358  90.3383813
  73.1499006  55.2033398  89.2271241  76.3088154  52.8749622  93.2759646
  76.3309851  52.9388956  92.3211625  76.7256213  52.0354131  93.4700152
  86.6871779  62.6104882  91.3138868  87.1302925  61.8612207  90.9157992
  85.8098289  62.6015018  90.9312600  81.8207560  69.1635223  86.7945467
  82.5158465  69.7841916  87.0132782  82.1630710  68.3130575  87.0697845
  67.4375369  60.9853024 100.6542284  66.6957105  61.1335660 101.2406915
  67.1168113  61.2461290  99.7909034  83.7198983  66.6134929  88.3232798
  84.2450307  66.9522202  87.5982118  83.6321336  65.6781944  88.1395932
  75.3819032  70.5269003 100.4522674  75.6906158  70.2818149 101.3245374
  76.1794514  70.7315641  99.9641545  75.4039644  72.6806912  92.6828051
  74.9644634  72.1883291  93.3760908  76.1547761  72.1379880  92.4420126
  67.8831983  68.8718453  92.6852679  68.7090003  68.5722225  92.3051322
  67.5326035  68.1026076  93.1342468  72.8513516  68.2244921  94.7550353
  72.2293525  67.5615626  94.4552580  73.5218383  68.2506053  94.0724000
  66.0840588  66.7904780  93.6441613  65.2472496  66.3626954  93.4625614
  66.0564233  66.9837223  94.5812404  72.9238043  56.7026709 104.3482859
  72.9726199  57.5788832 103.9660628  73.4660558  56.1604102 103.7754502
  83.5290764  64.0960299 100.9416724  83.5788769  63.9310306 101.8832247
  83.4204688  63.2287558 100.5514605  72.4127023  66.7748845  88.2308813
  72.5615143  67.4584309  87.5775486  73.2193466  66.7553935  88.7458269
  80.8194527  60.0791227 102.2576031  81.7204389  59.9397692 101.9660029
  80.8942501  60.2445682 103.1974208  75.1537332  57.4558082 101.1029217
  74.2840641  57.7491648 100.8311806  75.3896812  58.0398527 101.8236481
  86.2304643  64.0810120  93.7061316  87.0651535  64.5199924  93.8698876
  86.3663772  63.6048774  92.8869562  83.2796149  61.6389855  99.6538804
  83.7550271  61.8317501  98.8457655  82.3561715  61.6949041  99.4082187
  70.1679656  62.8014022  89.2369882  69.9225698  61.8976352  89.4350092
  70.3375570  62.8031173  88.2949360  77.8576366  53.6737699  98.6194638
  78.3758310  54.4098726  98.2941126  77.5031499  53.9801692  99.4541397
  69.4375303  58.5342380  86.7356043  68.7444548  58.6086735  86.0796079
  69.1927055  57.7702724  87.2577560  78.1088960  50.0937981  94.1395534
  78.3890714  49.4261170  94.7655961  78.8939567  50.2867077  93.6270198
  75.9122428  69.2696975  85.7020561  75.3396396  69.8887162  85.2491032
  76.4855222  69.8196337  86.2360482  81.9797818  58.5155615  97.8867109
  82.9315241  58.6153713  97.9079333  81.8101269  57.7233884  98.3965194
  80.0012198  55.6011198  98.0726510  79.4062130  55.8816211  97.3772999
  79.7161894  56.0905099  98.8443251  79.1319688  69.5534125  86.8329143
  80.0650361  69.4879687  87.0362018  79.0442901  70.3890392  86.3743675
  81.7607705  68.8699996  83.7933090  81.6821336  68.5359859  84.6868848
  82.5817372  69.3621764  83.7924563  84.4585896  61.7361735  97.0009409
  84.4262216  60.7977736  97.1869093  85.0686520  61.8145772  96.2675234
  76.2969227  60.6057788  83.0436613  77.2428332  60.4763996  83.1125031
  75.9183472  59.8672450  83.5206041  84.6080385  58.5272778  97.0467692
  84.0919433  57.7431235  96.8597621  85.4920333  58.1991495  97.2114212
  82.2691111  52.2713794  93.0063505  82.0715933  51.9628882  93.8906837
  82.8790817  52.9975433  93.1361435  90.2762446  62.7977742  96.1415446
  91.0065834  62.5363030  96.7023149  89.6669391  62.0606464  96.1817514
  88.3577743  60.9385604  96.7389897  87.6310907  60.8041569  96.1306389
  87.9425030  61.2462433  97.5446615  76.1807919  64.6575534 104.5037270
  77.1010929  64.8354133 104.6977317  76.1457502  63.7131579 104.3516969
  74.4812144  58.5307764  82.9791498  73.5743599  58.2340877  83.0554212
  74.7588125  58.2337582  82.1125784  65.3990084  59.8514128  93.4290545
  65.0792869  58.9979436  93.1364919  64.8523513  60.0662706  94.1848512
  69.1769992  62.5676569  97.1460051  69.3956002  63.4993677  97.1648085
  69.5895766  62.2084543  97.9314855  76.0974210  53.0744654  89.1335740
  75.2874938  52.7291739  89.5090986  76.7858627  52.7652198  89.7223351
  78.0264758  52.1522701  90.7560036  78.5795797  52.5718154  91.4150059
  78.2634844  51.2258449  90.7982992  74.0497857  58.1409774 106.5362800
  73.9494584  59.0904131 106.4674891  73.8319399  57.8128013 105.6638870
  73.2510929  55.3894700  83.1203477  74.1130093  55.7149598  83.3799295
  73.4361273  54.6026195  82.6076543  65.2678344  63.4717039  95.3983666
  64.5741816  63.0570992  94.8853621  66.0151335  63.5137576  94.8017085
  81.4043565  54.2623226  90.2638700  80.8242234  54.9208030  89.8816753
  81.1379498  53.4400571  89.8526118  79.8547132  53.6628284  92.4660021
  80.3546910  53.7744818  91.6574340  80.4982739  53.3589337  93.1060829
  73.9129127  61.5706913 105.3527862  73.4296209  62.3707273 105.5591751
  73.9990066  61.5814858 104.3995306  67.1815087  63.4035293  93.2749681
  67.1585775  63.5022980  92.3231564  67.4915723  64.2500444  93.5966847
  69.8402465  65.4611448  97.3896296  70.7945718  65.4295390  97.3226227
  69.6414988  65.0002072  98.2046521  70.4301847  64.0312564  99.9567093
  71.2494736  64.5256643  99.9801930  70.7038655  63.1144532  99.9284661
  80.1868443  56.4223316  89.3195049  79.2994298  56.7072967  89.1015243
  80.6022432  56.2617080  88.4722326  83.5382979  56.4469837  93.0349388
  84.3143369  56.9366290  93.3074005  82.8131113  56.8727892  93.4921257
  85.9755538  57.1597457  94.0923329  86.5700029  56.9193193  93.3816637
  86.0482122  56.4404587  94.7196865  68.1952694  71.0031068  94.4066493
  68.0607162  70.2431468  93.8404491  67.7784756  71.7271967  93.9395282
  79.3311657  66.1867991  83.4143069  80.0347507  66.3917994  84.0300724
  78.6074305  66.7544753  83.6792152  80.1609467  61.9377852  89.5345339
  80.1044668  62.3946404  88.6952971  80.7137809  61.1768537  89.3568182
  83.9714273  57.7267584  90.3595458  83.7151207  57.3264220  91.1903666
  83.3467141  58.4411378  90.2345598  88.2826611  60.4663657  92.8666750
  87.7226169  60.5356847  93.6398312  87.6770114  60.2904642  92.1466246
  71.3521820  71.9000385  94.6184936  71.2354204  72.8445817  94.5163626
  70.5314266  71.5973946  95.0070735  81.2398354  66.6250520  85.4641529
  82.0743958  66.1931719  85.2819004  81.0782697  66.4532534  86.3918423
  80.8944246  63.1282634  86.8297868  80.8393050  62.9626905  85.8886312
  80.2690302  63.8358666  86.9860058  65.6836761  58.3650698 100.6559290
  66.3295625  57.8549652 101.1446515  65.4753912  59.1019380 101.2302715
  74.2040372  52.6290743  86.4083186  74.1919042  53.5732582  86.5651457
  75.0963794  52.4460888  86.1142648  72.3776334  72.5528646  97.8340864
  73.2803580  72.5852257  98.1507359  72.1513704  71.6229097  97.8487200
  74.1329936  71.3059633  94.4950943  73.1825567  71.3061495  94.3815315
  74.4362422  70.5592368  93.9786978  78.0192491  49.2233519  90.6629123
  77.2524887  48.6692006  90.8085806  78.4303196  49.2955388  91.5243275
  70.0234252  55.5118315 104.7534304  70.8865714  55.1555120 104.9637629
  69.4499663  55.1732210 105.4409709  82.5359151  78.9483076  91.4855121
  81.9724016  78.8573013  90.7171409  82.4211546  78.1282980  91.9657614
  88.1158710  82.6154044  86.7969586  87.4646690  83.2008124  86.4103600
  88.9103073  83.1460238  86.8564623  82.0414337  79.7043181  87.1956720
  82.8145213  79.1572168  87.0569596  82.3939736  80.5687430  87.4071182
  84.3780615  75.8635847  84.8275170  84.6306135  75.3417368  84.0658633
  83.4405174  75.7001992  84.9301854  89.4223898  74.8671625  92.6349914
  90.2086987  74.4491048  92.2840331  89.6862602  75.7717717  92.8031562
  89.5933975  80.3044476  87.3338570  88.9579808  80.3779102  88.0459475
  89.2631381  80.8938074  86.6557650  84.0976904  77.7663953  87.0299545
  83.9813162  77.0908856  87.6980630  84.2079163  77.2796327  86.2131698
  86.4408444  77.2274100  90.7346234  86.0766652  76.7004721  91.4459156
  87.2975560  76.8372569  90.5612720  86.0813931  72.2564000  85.7307583
  86.2488334  73.1244236  86.0978054  85.8911101  72.4191281  84.8068872
  82.2901746  77.1694775  93.4310118  81.3652243  77.0370989  93.6387810
  82.5386159  77.9488995  93.9280060  86.0603152  74.7121657  86.7154250
  85.9402778  75.1578708  87.5539730  85.3655741  75.0606975  86.1567788
  79.6510557  76.8128049  94.2653907  79.7802938  77.0662528  95.1793319
  78.9708008  77.4055757  93.9458562  91.7588219  75.1843130  87.5434584
  92.6706075  75.4170517  87.3682281  91.2497866  75.7680174  86.9809662
  89.1024193  71.3601166  95.7924445  88.2408672  71.6582420  96.0841182
  89.1286628  71.5771565  94.8605477  85.9185763  79.9043357  92.1998250
  86.3824108  80.1831060  91.4102873  85.6542561  79.0026801  92.0171341
  84.8554649  76.0266509  89.0087816  85.5578692  76.4787553  89.4761742
  84.5235277  75.3850328  89.6367709  78.5979983  74.2850062  94.3104949
  77.8079037  74.5407590  93.8345060  79.0891230  75.0998400  94.4156990
  80.5494728  74.6494641  91.2688426  79.7525891  74.7613335  91.7871922
  80.3220320  74.9881293  90.4029316  76.8817686  74.5380552  96.7419940
  77.1325724  75.4227562  97.0077516  77.4177234  74.3585154  95.9695032
  86.0948413  82.8407452  89.0849921  85.9594088  83.6858988  89.5134769
  86.6358226  83.0426729  88.3215855  79.5477811  80.3582890  89.6577846
  80.0602331  81.1526140  89.8083411  80.2000524  79.6609180  89.5911447
  81.3572695  83.4748646  91.7400599  81.5339324  84.3966611  91.5521583
  82.1529529  83.1607065  92.1694979  89.4440877  66.3638014  97.6148814
  89.1005146  67.2539655  97.5387925  89.8119840  66.1739671  96.7518399
  77.5126728  78.6871544  90.4337416  78.3501950  79.0968553  90.2171124
  77.6904995  77.7470986  90.4037610  89.4091160  76.3546625  86.1221249
  88.8937783  77.1251229  86.3609637  89.1368468  75.6811761  86.7454311
  86.9938271  71.1996326  91.1806488  86.1379867  70.8103176  91.0012126
  87.4065222  71.2788286  90.3206273  88.5237417  68.7342669  95.5798047
  88.0202213  68.6972804  94.7665853  88.8168024  69.6435412  95.6394704
  84.7680303  68.8181399  94.5864229  85.6333300  68.6224207  94.2270119
  84.8357812  68.5891750  95.5133586  94.3825434  79.1078979  88.0574423
  93.6054877  78.7690139  87.6129585  95.0616915  79.1131603  87.3829388
  89.1977463  74.2273717  87.9481031  88.8927598  74.5419866  88.7991174
  90.1507905  74.3055137  87.9908364  87.6423895  80.3863940  89.5973985
  87.1145256  79.6516700  89.2847222  87.1411397  81.1638617  89.3513953
  82.3742622  71.0483606  91.9580596  82.9486374  70.8258788  91.2253789
  82.9613605  71.1172301  92.7109197  82.7012209  73.0788068  85.9776481
  81.8649522  73.4162754  86.2985756  82.5616979  72.9437047  85.0403618
  84.6765290  67.9224855  90.6855665  84.0229702  67.6073873  90.0612280
  84.6345764  67.3000596  91.4115488  85.7876495  78.2044150  82.6008958
  84.8803557  77.9733404  82.8000107  86.2847527  77.4081770  82.7882939
  88.6944574  86.9141658  85.5205644  88.0206272  87.2173354  86.1290602
  89.0810396  87.7170738  85.1711101  87.9103030  74.4106789  95.0103313
  86.9925592  74.6321736  94.8525001  88.3263174  74.4853099  94.1515020
  88.6938078  75.8098205  90.1405993  89.4409897  76.3219602  89.8313115
  88.9629668  75.4882257  91.0010387  86.9664728  78.3056745  87.1232948
  86.0575948  78.0215778  87.2205417  86.9959812  78.7255824  86.2636254
  91.1416915  72.8455321  92.1224783  90.4039672  72.3332707  92.4535025
  91.3943689  72.4055702  91.3108060  91.2428543  65.6231573  92.7166552
  91.5487419  64.7628936  92.4292467  91.9681147  66.2149193  92.5165546
  77.5352899  76.0262259  91.1048150  77.3377298  75.4331620  90.3799216
  76.9799563  75.7214470  91.8224089  85.5149622  75.9185366  93.2242743
  85.5698232  74.9659202  93.1485220  84.7040824  76.0744805  93.7084041
  86.6640816  79.8465489  84.4621026  86.2260246  79.1301348  84.0026664
  87.4051257  80.0741604  83.9006118  83.4541982  74.5362426  90.9833122
  82.6409848  74.8356596  91.3898314  83.9500976  74.1418114  91.7007604
  82.9456057  72.1080781  96.5994357  83.5855436  71.9669540  95.9017320
  82.1133588  71.8215295  96.2232959  83.7216361  81.4083212  92.7129349
  84.5156959  80.9133532  92.5111924  83.0108053  80.8801075  92.3497055
  80.0299124  75.5526293  88.7889102  79.0996712  75.4910749  89.0059064
  80.1256596  75.0302246  87.9925743  79.9484673  72.0781106  91.3767344
  80.2091491  72.9926439  91.2676504  80.7701846  71.6105549  91.5263956
  90.7852044  78.7049871  84.0553084  90.1681214  77.9796699  83.9586136
  90.3168532  79.4659231  83.7120158  82.5750590  72.9235295  83.1774388
  81.6980056  72.8024096  82.8136635  83.0508343  72.1321373  82.9253277
  74.0952730  77.7112455  93.2715895  74.7823770  77.3974185  92.6836911
  73.9400858  78.6153819  92.9983147  78.8987452  72.6002651  97.7000919
  78.8145641  71.9928321  96.9651329  78.0770158  73.0911670  97.7010415
  89.0711166  71.0856215  93.0671114  89.5679865  70.3326177  92.7472184
  88.2998147  71.1220531  92.5014323  90.1540946  79.8427902  90.6409537
  89.2197225  79.9629364  90.4714242  90.3317615  78.9400369  90.3769547
  85.6546135  73.2273598  92.7942799  85.2843922  72.6744638  93.4823704
  86.1505227  72.6231731  92.2417799  93.5413498  75.6845221  91.1759572
  94.0073950  76.5173213  91.1019874  93.9920998  75.2190203  91.8804830
  91.6089729  82.0289043  88.1745724  91.8849573  81.9145637  89.0839598
  90.7394228  81.6306527  88.1357897  91.5130161  68.0525808  95.2150473
  90.5993240  68.2830035  95.3832680  91.9423262  68.1364252  96.0664505
  73.6720706  75.7913048  95.5433362  73.7104805  75.2576639  96.3370480
  73.1660999  75.2648254  94.9244340  81.0511468  70.6377589  99.0395905
  81.1152795  71.4992419  98.6273302  80.9878588  70.0251590  98.3068263
  77.3029283  74.5177150  88.6187294  77.5982725  73.6087829  88.5654347
  76.4017319  74.4964890  88.2968296  80.8323530  72.5933147  94.6014842
  80.1110116  73.2069114  94.4622316  81.6216786  73.1290912  94.5231488
  79.0317125  72.1991248  88.7426619  78.7029831  71.3188627  88.5601725
  79.3856496  72.1438917  89.6303008  82.1458948  72.4864218  89.1102097
  82.4855021  73.0150139  88.3880705  82.5931069  72.8244624  89.8860663
  85.4918861  67.9550581  97.0132488  86.3144930  67.4811059  96.8911378
  85.7356924  68.7341065  97.5131174  84.1327095  70.9838839  87.3095389
  84.8535458  71.3620092  86.8059106  83.5092399  71.7027716  87.4130367
  88.2758218  71.6883988  88.2453722  88.4921833  72.5708626  87.9442550
  87.7952285  71.2970202  87.5159364  83.0157440  74.6469701  94.8224466
  82.8702020  74.9610005  95.7148748  82.5382643  75.2654602  94.2695365
  84.8753822  71.6372249  94.8705356  84.8615391  70.7413343  94.5337654
  85.5926251  71.6442913  95.5043642  84.2790718  70.5186630  90.1392926
  84.4006630  69.5903276  90.3383813  83.9892761  70.5325316  89.2271241
  87.1481909  68.2041540  93.2759646  87.1703606  68.2680873  92.3211625
  87.5649968  67.3646049  93.4700152  78.7225737  84.2010371  92.6852679
  79.5483757  83.9014143  92.3051322  78.3719789  83.4317993  93.1342468
  76.9234342  82.1196697  93.6441613  76.0866251  81.6918872  93.4625614
  76.8957988  82.3129141  94.5812404  83.2520777  82.1040762  88.2308813
  83.4008898  82.7876227  87.5775486  84.0587221  82.0845852  88.7458269
  81.0073410  78.1305940  89.2369882  80.7619452  77.2268270  89.4350092
  81.1769325  78.1323090  88.2949360  80.2769058  73.8634298  86.7356043
  79.5838303  73.9378653  86.0796079  80.0320810  73.0994641  87.2577560
  88.9482714  65.4229899  94.1395534  89.2284468  64.7553088  94.7655961
  89.7333321  65.6158995  93.6270198  86.7516183  84.5988893  85.7020561
  86.1790150  85.2179080  85.2491032  87.3248977  85.1488255  86.2360482
  89.9713443  84.8826043  86.8329143  90.9044116  84.8171605  87.0362018
  89.8836656  85.7182310  86.3743675  92.6001459  84.1991913  83.7933090
  92.5215091  83.8651777  84.6868848  93.4211126  84.6913681  83.7924563
  87.1362981  75.9349706  83.0436613  88.0822086  75.8055914  83.1125031
  86.7577226  75.1964368  83.5206041  93.1084866  67.6005712  93.0063505
  92.9109687  67.2920800  93.8906837  93.7184572  68.3267351  93.1361435
  85.3205899  73.8599682  82.9791498  84.4137354  73.5632795  83.0554212
  85.5981880  73.5629500  82.1125784  76.2383839  75.1806045  93.4290545
  75.9186623  74.3271354  93.1364919  75.6917267  75.3954624  94.1848512
  86.9367964  68.4036572  89.1335740  86.1268693  68.0583657  89.5090986
  87.6252381  68.0944115  89.7223351  88.8658513  67.4814619  90.7560036
  89.4189551  67.9010072  91.4150059  89.1028599  66.5550367  90.7982992
  84.0904683  70.7186617  83.1203477  84.9523847  71.0441516  83.3799295
  84.2755027  69.9318113  82.6076543  76.1072099  78.8008957  95.3983666
  75.4135570  78.3862910  94.8853621  76.8545090  78.8429493  94.8017085
  92.2437320  69.5915144  90.2638700  91.6635989  70.2499948  89.8816753
  91.9773252  68.7692488  89.8526118  90.6940886  68.9920201  92.4660021
  91.1940664  69.1036736  91.6574340  91.3376494  68.6881254  93.1060829
  78.0208841  78.7327211  93.2749681  77.9979530  78.8314898  92.3231564
  78.3309478  79.5792361  93.5966847  91.0262198  71.7515234  89.3195049
  90.1388053  72.0364885  89.1015243  91.4416187  71.5908997  88.4722326
  94.3776734  71.7761755  93.0349388  95.1537124  72.2658207  93.3074005
  93.6524868  72.2019809  93.4921257  90.1705411  81.5159909  83.4143069
  90.8741261  81.7209911  84.0300724  89.4468060  82.0836671  83.6792152
  91.0003221  77.2669770  89.5345339  90.9438423  77.7238321  88.6952971
  91.5531564  76.5060455  89.3568182  94.8108027  73.0559502  90.3595458
  94.5544962  72.6556138  91.1903666  94.1860895  73.7703296  90.2345598
  92.0792109  81.9542438  85.4641529  92.9137712  81.5223636  85.2819004
  91.9176451  81.7824452  86.3918423  91.7338001  78.4574551  86.8297868
  91.6786805  78.2918823  85.8886312  91.1084056  79.1650584  86.9860058
  85.0434126  67.9582660  86.4083186  85.0312796  68.9024500  86.5651457
  85.9357548  67.7752806  86.1142648  88.8586246  64.5525437  90.6629123
  88.0918641  63.9983924  90.8085806  89.2696951  64.6247306  91.5243275
  93.4144344  88.2527213  83.1774388  92.5373810  88.1316013  82.8136635
  93.8902097  87.4613291  82.9253277  96.1599653  89.1891600  82.9791498
  95.2531108  88.8924712  83.0554212  96.4375634  88.8921418  82.1125784
  94.9298438  86.0478535  83.1203477  95.7917602  86.3733433  83.3799295
  95.1148782  85.2610031  82.6076543  39.1784134  -5.3622472  78.2100428
  38.6149000  -5.4532535  77.4416716  39.0636529  -6.1822568  78.6902920
  44.7583693  -1.6951505  73.5214893  44.1071673  -1.1097424  73.1348906
  45.5528056  -1.1645310  73.5809930  38.6839320  -4.6062367  73.9202027
  39.4570196  -5.1533380  73.7814903  39.0364719  -3.7418118  74.1316488
  46.2358958  -4.0061073  74.0583877  45.6004791  -3.9326446  74.7704782
  45.9056365  -3.4167474  73.3802956  40.7401887  -6.5441595  73.7544852
  40.6238145  -7.2196692  74.4225936  40.8504147  -7.0309221  72.9377005
  40.4635028   3.1719751  77.0889688  40.3859057   4.1227576  77.1678168
  39.8596671   2.8265623  77.7464614  47.0082784  -4.1436599  81.6593472
  46.3791647  -3.9790885  80.9569540  46.6208446  -3.7294990  82.4304436
  50.8872016  -3.2082162  79.0137836  50.2023054  -2.8283260  78.4634869
  50.9715865  -2.5986835  79.7469783  42.5610746  -4.4062191  78.9243557
  43.0249092  -4.1274488  78.1348180  42.2967544  -5.3078747  78.7416648
  49.2568776  -2.6850247  83.7855537  50.0786219  -3.0870060  83.5038218
  49.2531178  -2.7882013  84.7371652  42.7373397  -1.4698096  75.8095227
  42.6019071  -0.6246561  76.2380075  43.2783209  -1.2678819  75.0461161
  36.1902794  -3.9522658  76.3823153  36.7027315  -3.1579408  76.5328717
  36.8425507  -4.6496368  76.3156754  37.9997679  -0.8356902  78.4645906
  38.1764307   0.0861063  78.2766890  38.7954512  -1.1498483  78.8940285
  44.2848878  -3.9241608  76.3219291  43.7570240  -4.6588848  76.0092529
  43.7836381  -3.1466932  76.0759259  42.4301478  -6.1061398  69.3254264
  41.5228540  -6.3372144  69.5245413  42.9272510  -6.9023778  69.5128246
  45.3369557   2.6036110  72.2450950  44.6631256   2.9067806  72.8535908
  45.7235379   3.4065190  71.8956407  43.6089712  -6.0048803  73.8478254
  42.7000931  -6.2889770  73.9450724  43.6384795  -5.5849724  72.9881561
  48.8408979  -2.3942213  77.6169422  48.3871306  -3.2351303  77.6734612
  48.2102946  -1.7580815  77.9544202  47.2841918  -0.5565717  78.5519240
  47.5764893   0.0039341  77.8331606  47.7940539  -0.2637156  79.3072399
  43.3065799  -4.4640059  71.1866333  42.8685229  -5.1804200  70.7271970
  44.0476240  -4.2363944  70.6251424  42.2475543   0.2214635  79.6412693
  42.2051722   0.4475481  78.7121225  43.1638242  -0.0121991  79.7898494
  40.3641344  -2.9022336  79.4374656  41.1581943  -3.3972016  79.2357231
  39.6533037  -3.4304473  79.0742361  45.1836189  -0.5204241  83.7887024
  45.2373211   0.0486695  84.5564739  44.3150970  -0.3502356  83.4241061
  43.5360772   2.7715782  74.4598030  43.7112528   2.3003825  75.2743652
  42.8493560   3.3981548  74.6879290  44.4917835  -2.9511712  80.5061331
  44.1567668  -2.9910942  81.4018981  43.9921781  -3.6166996  80.0331741
  38.1021857   5.9205145  81.2337890  38.3418456   6.5523669  81.9116908
  37.2591054   5.5693185  81.5203249  42.6149719   1.7284267  83.6379394
  42.5419891   2.5339239  84.1498698  42.1727112   1.9276233  82.8127415
  42.4039499   0.9656037  77.1482215  41.6207021   1.5077717  77.2420440
  43.1032244   1.4830017  77.5476456  45.0748403   1.6271101  85.7937552
  45.7876375   2.2618566  85.7213454  44.5838431   1.7234967  84.9777554
  46.7965930  -4.4677646  77.3654844  45.8622208  -4.3476184  77.1959548
  46.9742598  -5.3705179  77.1014854  48.2514712  -2.2816506  74.8991030
  48.5274556  -2.3959911  75.8084904  47.3819211  -2.6799021  74.8603203
  44.8868776   1.9669845  78.5423844  45.0691171   1.1491501  79.0051596
  45.7101762   2.1837538  78.1048734  45.2210942   0.8938030  75.8038892
  45.7498708   0.3830485  75.1909054  45.4839161   0.5780561  76.6684425
  38.5766690   1.9453147  78.5636668  37.9077065   2.4299275  78.0800708
  38.4379559   2.1922368  79.4780047  42.7171958   3.9796891  85.1619327
  43.2690266   4.1428512  85.9268412  43.0578152   4.5701328  84.4899351
  45.8540346   1.9278866  82.1483009  45.7291485   1.1268606  81.6393954
  46.5119437   2.4225060  81.6596979  47.9175254  -0.2712114  83.7762559
  46.9705589  -0.3906763  83.7040886  48.2658027  -1.1589616  83.8588820
  44.9221687  -0.4759398  79.9766911  44.7746650  -1.4042690  80.1574481
  45.7475181  -0.4539307  79.4923986  48.5255809   0.3469161  81.0631784
  49.4502357   0.1412023  80.9256235  48.3571112   0.0985562  81.9721125
  48.3151125   0.8654829  76.4193875  48.4888003   0.3001251  75.6667728
  48.8080016   1.6655724  76.2373365  49.3026298   0.1821593  73.5190774
  49.9977202   0.8028286  73.7378088  49.6449448  -0.6683056  73.7943151
  51.2017721  -2.3678701  75.0478104  51.7269045  -2.0291429  74.3227424
  51.1140073  -3.3031686  74.8641239  42.8858382   3.6993282  79.4073358
  42.4463372   3.2069661  80.1006214  43.6366499   3.1566250  79.1665433
  35.3650721  -0.1095177  79.4097986  36.1908741  -0.4091405  79.0296629
  35.0144773  -0.8787555  79.8587774  40.3332254  -0.7568709  81.4795659
  39.7112263  -1.4198004  81.1797887  41.0037121  -0.7307577  80.7969307
  39.8945761  -2.2064786  74.9554120  40.0433881  -1.5229321  74.3020792
  40.7012204  -2.2259696  75.4703575  37.6498394  -6.1799608  75.9615189
  37.4044436  -7.0837278  76.1595399  37.8194308  -6.1782458  75.0194667
  43.3941166   0.2883345  72.4265867  42.8215133   0.9073532  71.9736339
  43.9673960   0.8382706  72.9605789  46.6138426   0.5720495  73.5574449
  47.5469099   0.5066057  73.7607325  46.5261639   1.4076762  73.0988982
  49.2426443  -0.1113635  70.5178397  49.1640074  -0.4453771  71.4114155
  50.0636109   0.3808133  70.5169869  35.6771431   2.0217437  81.1311800
  35.5425899   1.2617838  80.5649798  35.2603494   2.7458337  80.6640589
  46.8130394  -2.7945639  70.1388375  47.5166245  -2.5895637  70.7546031
  46.0893043  -2.2268877  70.4037459  38.8340557   2.9186754  81.3430243
  38.7172941   3.8632187  81.2408933  38.0133004   2.6160316  81.7316042
  48.7217092  -2.3563110  72.1886835  49.5562696  -2.7881912  72.0064310
  48.5601435  -2.5281096  73.1163730  39.8595071   3.5715016  84.5586171
  40.7622318   3.6038626  84.8752666  39.6332441   2.6415467  84.5732507
  41.6148673   2.3246003  81.2196250  40.6644304   2.3247864  81.1060622
  41.9181160   1.5778737  80.7032284  57.3501367   8.1606541  82.2842012
  57.9879777   8.0413288  81.5805352  57.2322210   9.1087385  82.3429964
  54.1591073   8.1133969  82.2203537  53.8209585   7.9975034  81.3324072
  55.0280841   7.7125134  82.2004543  50.0177889   9.9669445  78.2100428
  49.4542754   9.8759382  77.4416716  49.9030284   9.1469350  78.6902920
  54.6410856   9.2668821  88.1789742  54.6299497   8.8721619  87.3070246
  54.8031496   8.5334893  88.7723514  47.5642321  11.4620637  81.0484648
  48.3563613  11.1211462  80.6330948  47.8038971  11.5715612  81.9686802
  55.5977448  13.6340413  73.5214893  54.9465427  14.2194494  73.1348906
  56.3921810  14.1646608  73.5809930  49.5233075  10.7229550  73.9202027
  50.2963951  10.1758537  73.7814903  49.8758474  11.5873800  74.1316488
  51.3618117  12.0505933  87.1268926  51.0707983  12.9551563  87.0115593
  51.9975102  12.0922460  87.8412996  52.2874324   9.4282781  83.7170286
  52.8837896   9.2038803  83.0027249  52.3449296   8.6867527  84.3195734
  51.8599353   6.8822216  71.5520477  52.1124873   6.3603738  70.7903940
  50.9223912   6.7188362  71.6547161  56.9042635   5.8857995  79.3595220
  57.6905725   5.4677418  79.0085637  57.1681340   6.7904087  79.5276869
  57.0752713  11.3230845  74.0583877  56.4398546  11.3965472  74.7704782
  56.7450119  11.9124444  73.3802956  62.3051063   5.8233228  80.2628199
  63.0376234   5.2532445  80.4966028  61.5490418   5.4354828  80.7034704
  51.5795641   8.7850322  73.7544852  51.4631899   8.1095226  74.4225936
  51.6897901   8.2982696  72.9377005  53.9227182   8.2460469  77.4591541
  53.5585390   7.7191090  78.1704463  54.7794298   7.8558939  77.2858027
  59.8276483  -0.4645198  84.7222807  59.4959808   0.4050213  84.4984022
  59.2322096  -0.7808914  85.4016838  53.5632669   3.2750369  72.4552890
  53.7307072   4.1430606  72.8223361  53.3729838   3.4377651  71.5314179
  56.3208002  11.7367348  84.1218720  56.0208726  12.6392387  84.0134527
  55.9759062  11.4699531  84.9739873  49.7720484   8.1881145  80.1555424
  48.8470980   8.0557359  80.3633116  50.0204897   8.9675364  80.6525367
  59.7205146   4.2549888  81.8016157  58.8122024   4.1865297  81.5074918
  59.6692742   4.7321833  82.6297983  53.5421890   5.7308027  73.4399556
  53.4221515   6.1765077  74.2785037  52.8474479   6.0793344  72.8813095
  47.1329295   7.8314418  80.9899213  47.2621676   8.0848897  81.9038625
  46.4526746   8.4242126  80.6703869  51.3028782  18.5011668  77.0889688
  51.2252812  19.4519494  77.1678168  50.6990426  18.1557541  77.7464614
  53.7946012   5.6739534  89.7451055  53.0179346   6.2333454  89.7353919
  54.4336575   6.1596317  90.2665925  61.5866793   2.4566327  83.5794031
  60.9441173   2.7498860  82.9333826  61.0821721   2.3419247  84.3847228
  59.2406956   6.2029500  74.2679891  60.1524812   6.4356887  74.0927588
  58.7316603   6.7866544  73.7054969  52.0492384   8.4824987  89.3069022
  52.7907069   9.0210031  89.0303845  51.3429370   9.1091276  89.4640573
  57.5247724  10.6254128  87.9041183  57.9331080  10.1836538  87.1595815
  56.8024985  10.0506755  88.1575376  53.8778794   5.5626734  85.2774740
  54.7239989   5.9866148  85.4209389  53.8177432   4.9060359  85.9713303
  57.8476539  11.1855318  81.6593472  57.2185401  11.3501032  80.9569540
  57.4602201  11.5996928  82.4304436  61.7265770  12.1209756  79.0137836
  61.0416809  12.5008658  78.4634869  61.8109620  12.7305083  79.7469783
  57.0278239   3.2231103  86.9355914  56.7839171   3.9773163  86.3990189
  57.3038170   3.6016450  87.7703161  58.9816702   9.7669715  85.6133179
  59.1933597  10.4101475  84.9367560  58.9346450   8.9332032  85.1455109
  56.5842931   2.3787536  82.5169751  55.7227410   2.6768789  82.8086489
  56.6105366   2.5957935  81.5850784  53.4004500  10.9229726  78.9243557
  53.8642846  11.2017429  78.1348180  53.1361299  10.0213171  78.7416648
  50.2928582  10.4701208  81.8623320  50.8629939  10.8988476  81.2240805
  50.8836693  10.1883793  82.5607506  52.3373387   7.0452879  75.7333122
  53.0397430   7.4973922  76.2007049  52.0054015   6.4036698  76.3613015
  50.7853748   5.6364635  90.1084332  50.1552409   6.3180916  90.3419728
  50.6789836   5.5247717  89.1637470  46.0798720   5.3036431  81.0350256
  45.2897774   5.5593960  80.5590366  46.5709968   6.1184769  81.1402296
  60.0962530  12.6441671  83.7855537  60.9179974  12.2421858  83.5038218
  60.0924933  12.5409905  84.7371652  48.0313466   5.6681011  77.9933732
  47.2344629   5.7799705  78.5117228  47.8039058   6.0067663  77.1274623
  53.8619133  12.1925714  85.9416247  53.9263566  12.6546121  86.7774419
  53.1530057  11.5623079  86.0698557  44.3636423   5.5566922  83.4665247
  44.6144462   6.4413932  83.7322823  44.8995972   5.3771523  82.6940338
  68.1868523   8.9880419  80.1340508  67.4332231   8.4187817  79.9784512
  68.3216064   8.9543084  81.0811143  53.5767151  13.8593821  75.8095227
  53.4412826  14.7045357  76.2380075  54.1176964  14.0613099  75.0461161
  47.0296549  11.3769259  76.3823153  47.5421069  12.1712510  76.5328717
  47.6819261  10.6795550  76.3156754  48.8391433  14.4935016  78.4645906
  49.0158062  15.4152980  78.2766890  49.6348267  14.1793435  78.8940285
  48.1243790   6.5399648  88.3408069  48.0097305   5.6384905  88.6415168
  47.2688308   6.7863344  87.9892885  55.2035628  14.4817388  89.9395570
  54.7599482  13.6953766  89.6216474  55.8652841  14.6696538  89.2739460
  49.9622749  16.0113189  84.4656248  50.5130174  15.8830253  83.6933242
  49.1234225  16.3108078  84.1151141  57.3016866  14.7620188  87.9676971
  57.2835341  15.5829069  87.4757240  58.2236786  14.6374263  88.1927112
  53.7589920  12.2764317  88.8100479  54.2918257  11.5152605  88.5799787
  53.2304001  11.9837969  89.5524634  44.9945465   9.7057914  77.1582723
  45.8320687  10.1154922  76.9416431  45.1723733   8.7657356  77.1282917
  56.8909897   7.3732994  72.8466556  56.3756521   8.1437599  73.0854943
  56.6187206   6.6998131  73.4699617  54.4757008   2.2182695  77.9051794
  53.6198605   1.8289546  77.7257433  54.8883960   2.2974656  77.0451580
  56.0056155  -0.2470962  82.3043354  55.5020951  -0.2840826  81.4911159
  56.2986762   0.6621781  82.3640011  52.2499041  -0.1632232  81.3109536
  53.1152038  -0.3589423  80.9515425  52.3176550  -0.3921880  82.2378893
  61.8644172  10.1265349  74.7819729  61.0873614   9.7876509  74.3374892
  62.5435653  10.1317972  74.1074695  56.6796201   5.2460086  74.6726337
  56.3746336   5.5606236  75.5236480  57.6326643   5.3241506  74.7153670
  55.1242632  11.4050310  76.3219291  54.5963994  10.6703069  76.0092529
  54.6230135  12.1824986  76.0759259  60.1035478   9.5999330  81.4386337
  59.4459153  10.2898592  81.5266466  60.9075878   9.9895762  81.7820324
  49.8561360   2.0669976  78.6825903  50.4305112   1.8445158  77.9499096
  50.4432343   2.1358671  79.4354504  58.9140937   7.9543703  79.4890279
  59.4272819   8.5873695  79.9911989  59.5642161   7.3544898  79.1233639
  50.1830947   4.0974437  72.7021788  49.3468259   4.4349124  73.0231063
  50.0435717   3.9623417  71.7648925  52.1584028  -1.0588775  77.4100972
  51.5048440  -1.3739758  76.7857587  52.1164502  -1.6813035  78.1360795
  53.2695233   9.2230520  69.3254264  52.3622294   8.9919773  69.5245413
  53.7666265   8.4268139  69.5128246  56.1763312  17.9328027  72.2450950
  55.5025010  18.2359724  72.8535908  56.5629133  18.7357108  71.8956407
  55.3921768   5.4293159  81.7348620  54.4744330   5.6508106  81.5770308
  55.8081912   5.5039469  80.8760327  56.1756816   6.8284574  76.8651300
  56.9228635   7.3405971  76.5558422  56.4448405   6.5068627  77.7255694
  54.4483466   9.3243115  73.8478254  53.5394685   9.0402148  73.9450724
  54.4778550   9.7442193  72.9881561  59.6802733  12.9349704  77.6169422
  59.2265061  12.0940614  77.6734612  59.0496700  13.5711103  77.9544202
  58.6235653   3.8641690  78.8470089  57.8858410   3.3519077  79.1780332
  58.8762427   3.4242072  78.0353366  58.1235673  14.7726201  78.5519240
  58.4158647  15.3331258  77.8331606  58.6334293  15.0654762  79.3072399
  45.0171636   7.0448629  77.8293456  44.8196036   6.4517990  77.1044523
  44.4618300   6.7400839  78.5469395  52.9968360   6.9371736  79.9488050
  53.0516970   5.9845572  79.8730526  52.1859562   7.0931175  80.4329348
  54.1459554  10.8651859  71.1866333  53.7078984  10.1487718  70.7271970
  54.8869995  11.0927973  70.6251424  50.9360720   5.5548795  77.7078428
  50.1228586   5.8542966  78.1143621  51.4319714   5.1604484  78.4252911
  53.0869298  15.5506552  79.6412693  53.0445477  15.7767398  78.7121225
  54.0031997  15.3169927  79.7898494  56.5334932   6.0190620  86.5393322
  56.8884319   6.2462093  87.3987788  57.1807063   6.3508997  85.9170578
  62.2632669   9.1409056  77.2442651  62.1250567   9.3310652  76.3163841
  61.9068887   9.9028438  77.7010703  50.4274795   3.1267151  83.3239663
  51.0674174   2.9855910  82.6262627  49.5952325   2.8401664  82.9478265
  62.2902048  11.2085583  82.2553923  62.7238555  11.1160872  83.1036977
  63.0033629  11.1843083  81.6173939  51.2035099  12.4269581  79.4374656
  51.9975697  11.9319901  79.2357231  50.4926791  11.8987444  79.0742361
  56.0229943  14.8087677  83.7887024  56.0766965  15.3778613  84.5564739
  55.1544725  14.9789562  83.4241061  47.5117862   6.5712663  75.5134409
  46.5815450   6.5097118  75.7304371  47.6075334   6.0488616  74.7171050
  47.4303411   3.0967476  78.1012650  47.6910229   4.0112809  77.9921811
  48.2520584   2.6291918  78.2509263  48.9028337   4.5105233  85.2711475
  49.5751390   4.3022595  84.6224124  48.0758123   4.3127319  84.8316707
  63.1517598  11.2509283  84.7886808  63.3453488  12.1555094  85.0346083
  63.0518216  10.7916702  85.6225393  54.8053909   1.1367174  87.2877136
  54.1581824   1.8357124  87.1941612  55.5754924   1.5703318  87.6553384
  58.2132707  11.4016026  90.3627689  58.0618213  11.1726578  89.4457773
  58.2037386  12.3586627  90.3759034  54.9818043   8.9747939  85.3473955
  55.9110103   9.1259098  85.1742923  54.5609073   9.0631960  84.4922602
  53.7806375  12.9998603  83.1172493  53.6417460  12.6317388  83.9898431
  52.9920971  13.5146243  82.9456451  54.3754527  18.1007700  74.4598030
  54.5506282  17.6295743  75.2743652  53.6887315  18.7273466  74.6879290
  55.3311590  12.3780206  80.5061331  54.9961422  12.3380976  81.4018981
  54.8315536  11.7124922  80.0331741  49.3055834   7.7847836  86.0313912
  49.1675632   7.0528075  86.6325451  50.2160757   7.6956736  85.7498100
  58.2670781   9.7236240  70.7798390  57.6499952   8.9983068  70.6831443
  57.7987270  10.4845600  70.4365465  51.9338134   7.4967795  85.5197592
  52.6437753   6.8560987  85.4784210  51.8907443   7.7480690  86.4423772
  59.9224913  14.4335149  88.4404171  59.8637459  13.7494369  87.7734754
  60.3244432  15.1754139  87.9884797  50.6467068   4.4833013  87.3393231
  50.1104425   4.0323752  87.9914827  50.0583777   4.6178922  86.5963695
  48.9415612  21.2497062  81.2337890  49.1812210  21.8815587  81.9116908
  48.0984808  20.8985102  81.5203249  50.0569327   3.9421665  69.9019695
  49.1798794   3.8210465  69.5381941  50.5327080   3.1507743  69.6498583
  59.9242320  12.3974733  86.6718150  59.0369099  12.0600654  86.7944549
  60.4940871  11.6657764  86.9086916  41.5771468   8.7298824  79.9961202
  42.2642507   8.4160554  79.4082217  41.4219596   9.6340189  79.7228453
  46.3806190   3.6189021  84.4246226  46.2964378   3.0114690  83.6896635
  45.5588896   4.1098039  84.4255722  53.4543474  17.0576185  83.6379394
  53.3813645  17.8631156  84.1498698  53.0120867  17.2568151  82.8127415
  53.2433253  16.2947955  77.1482215  52.4600775  16.8369635  77.2420440
  53.9425999  16.8121935  77.5476456  56.5529904   2.1042584  79.7916421
  57.0498603   1.3512547  79.4717491  55.7816885   2.1406901  79.2259630
  64.4059661   7.8082950  81.4334712  64.3949537   8.6907665  81.0628645
  63.5377040   7.4554501  81.2389249  55.9142157  16.9563019  85.7937552
  56.6270130  17.5910484  85.7213454  55.4232186  17.0526885  84.9777554
  57.6359684  10.8614272  77.3654844  56.7015963  10.9815734  77.1959548
  57.8136353   9.9586738  77.1014854  53.1364872   4.2459967  79.5188105
  52.7662660   3.6931008  80.2069011  53.6323965   3.6418101  78.9663105
  61.0232236   6.7031591  77.9004878  61.4892688   7.5359582  77.8265181
  61.4739736   6.2376572  78.6050137  50.9654071  14.7057462  86.6143123
  51.6663530  15.3393945  86.7672517  50.4949186  15.0472194  85.8538762
  59.0908467  13.0475412  74.8991030  59.3668311  12.9332007  75.8084904
  58.2212965  12.6492897  74.8603203  58.9948898  -0.9287822  81.9395779
  58.0811978  -0.6983595  82.1077986  59.4242000  -0.8449378  82.7909812
  58.7655357   7.2602070  84.4395674  58.1126807   7.5077977  83.7848126
  59.1435737   6.4466208  84.1058151  55.7262531  17.2961763  78.5423844
  55.9084925  16.4783419  79.0051596  56.5495517  17.5129455  78.1048734
  56.0604696  16.2229948  75.8038892  56.5892463  15.7122403  75.1909054
  56.3232916  15.9072478  76.6684425  54.8142930   8.0021881  90.9261711
  54.1383567   7.9016010  91.5964086  55.6370564   7.8461095  91.3897708
  46.5621789  14.2393817  83.5474226  47.1475226  13.4937505  83.6802130
  46.3646627  14.5497774  84.4310890  49.4160444  17.2745065  78.5636668
  48.7470819  17.7591192  78.0800708  49.2773314  17.5214285  79.4780047
  41.1539444   6.8099418  82.2678669  41.1923543   6.2763008  83.0615787
  40.6479736   6.2834623  81.6489646  53.5565713  19.3088808  85.1619327
  54.1084021  19.4720430  85.9268412  53.8971906  19.8993246  84.4899351
  48.5330206   1.6563958  85.7641211  48.5971532   2.5178789  85.3518609
  48.4697326   1.0437960  85.0313570  58.4076587  14.1350066  91.0167981
  58.9516491  14.7480024  90.5222936  57.8263432  14.6929644  91.5334994
  44.7848021   5.5363520  75.3432600  45.0801462   4.6274198  75.2899654
  43.8836057   5.5151259  75.0213603  56.6934100  17.2570784  82.1483009
  56.5685239  16.4560524  81.6393954  57.3513191  17.7516977  81.6596979
  48.3142268   3.6119516  81.3260149  47.5928854   4.2255484  81.1867622
  49.1035524   4.1477281  81.2476795  58.7569008  15.0579804  83.7762559
  57.8099344  14.9385155  83.7040886  59.1051782  14.1702302  83.8588820
  51.1168582   0.9473943  87.6000801  51.6402984   1.1936239  88.3627110
  50.8980915   1.7793978  87.1803938  46.5135863   3.2177617  75.4671926
  46.1848569   2.3374996  75.2847031  46.8675234   3.1625286  76.3548315
  55.7615442  14.8532520  79.9766911  55.6140404  13.9249228  80.1574481
  56.5868935  14.8752611  79.4923986  49.6277686   3.5050587  75.8347403
  49.9673758   4.0336508  75.1126012  50.0749806   3.8430993  76.6105970
  59.3649564  15.6761079  81.0631784  60.2896111  15.4703940  80.9256235
  59.1964867  15.4277480  81.9721125  52.3221127   1.8887638  85.2850471
  51.9817947   1.0895451  85.6871151  51.6160133   2.1889349  84.7127304
  52.9737599  -1.0263050  83.7377794  53.7963668  -1.5002571  83.6156685
  53.2175662  -0.2472566  84.2376481  51.6145833   2.0025209  74.0340696
  52.3354196   2.3806462  73.5304413  50.9911137   2.7214086  74.1375674
  55.7576956   2.7070358  74.9699028  55.9740570   3.5894996  74.6687856
  55.2771023   2.3156571  74.2404670  50.4976177   5.6656071  81.5469773
  50.3520758   5.9796374  82.4394054  50.0201381   6.2840971  80.9940672
  52.3572560   2.6558619  81.5950662  52.3434129   1.7599712  81.2582960
  53.0744988   2.6629283  82.2288949  54.2098691   3.0895959  83.6403790
  53.9516469   4.0113030  83.6388120  53.6783731   2.6926394  84.3304254
  59.1544880  16.1946746  76.4193875  59.3281757  15.6293169  75.6667728
  59.6473771  16.9947641  76.2373365  44.9721840   8.2061415  84.4857434
  44.4275308   8.9821223  84.6177708  45.8501189   8.5532220  84.3276556
  51.7609456   1.5372999  76.8638233  51.8825367   0.6089645  77.0629120
  51.4711499   1.5511685  75.9516548  54.6300647  -0.7772090  80.0004952
  54.6522343  -0.7132757  79.0456932  55.0468706  -1.6167582  80.1945459
  65.0084271   8.9583169  78.0384175  65.4515417   8.2090494  77.6403298
  64.1310781   8.9493306  77.6557907  60.1420052  15.5113511  73.5190774
  60.8370957  16.1320203  73.7378088  60.4843202  14.6608862  73.7943151
  45.7587861   7.3331312  87.3787591  45.0169597   7.4813947  87.9652221
  45.4380606   7.5939577  86.5154340  62.0411475  12.9613216  75.0478104
  62.5662799  13.3000489  74.3227424  61.9533828  12.0260232  74.8641239
  53.7031524  16.8747290  87.1767981  54.0118651  16.6296437  88.0490681
  54.5007006  17.0793928  86.6886851  53.7252136  19.0285200  79.4073358
  53.2857126  18.5361578  80.1006214  54.4760253  18.4858167  79.1665433
  46.2044475  15.2196740  79.4097986  47.0302495  14.9200512  79.0296629
  45.8538527  14.4504363  79.8587774  51.1726008  14.5723209  81.4795659
  50.5506018  13.9093914  81.1797887  51.8430875  14.5984341  80.7969307
  44.4053080  13.1383067  80.3686919  43.5684988  12.7105241  80.1870920
  44.3776726  13.3315510  81.3057710  61.7305381  13.5946120  90.3529302
  60.9400925  13.5770259  89.8133802  61.4938736  14.1334414  91.1078339
  61.8503256  10.4438586  87.6662031  61.9001261  10.2788594  88.6077554
  61.7417180   9.5765845  87.2759912  50.7339515  13.1227132  74.9554120
  50.8827636  13.8062596  74.3020792  51.5405959  13.1032222  75.4703575
  59.1407019   6.4269514  88.9821338  60.0416882   6.2875979  88.6905335
  59.2154993   6.5923969  89.9219515  53.4749824   3.8036369  87.8274524
  52.6053134   4.0969935  87.5557112  53.7109305   4.3876814  88.5481787
  63.3521453  12.8635528  87.9104052  63.0606262  13.2265508  88.7467513
  62.7393585  12.1502536  87.7317384  64.5517136  10.4288408  80.4306623
  65.3864027  10.8678212  80.5944183  64.6876264   9.9527061  79.6114868
  61.6008642   7.9868142  86.3784110  62.0762763   8.1795789  85.5702962
  60.6774207   8.0427328  86.1327494  48.4892148   9.1492310  75.9615189
  48.2438190   8.2454640  76.1595399  48.6588063   9.1509460  75.0194667
  56.1788858   0.0215986  85.3439944  56.6970802   0.7577013  85.0186433
  55.8243991   0.3279979  86.1786703  47.7587796   4.8820667  73.4601350
  47.0657041   4.9565022  72.8041386  47.5139548   4.1181011  73.9822867
  54.2334921  15.6175262  72.4265867  53.6608888  16.2365450  71.9736339
  54.8067714  16.1674624  72.9605789  60.3010311   4.8633903  84.6112416
  61.2527733   4.9632000  84.6324640  60.1313761   4.0712171  85.1210500
  58.3224690   1.9489486  84.7971817  57.7274622   2.2294498  84.1018305
  58.0374387   2.4383387  85.5688558  57.4532180  15.9012413  73.5574449
  58.3862854  15.8357974  73.7607325  57.3655393  16.7368679  73.0988982
  60.0820197  15.2178283  70.5178397  60.0033829  14.8838146  71.4114155
  60.9029864  15.7100051  70.5169869  62.7798388   8.0840022  83.7254716
  62.7474708   7.1456023  83.9114399  63.3899012   8.1624059  82.9920540
  54.6181719   6.9536075  69.7681920  55.5640824   6.8242283  69.8370338
  54.2395964   6.2150737  70.2451348  62.9292877   4.8751066  83.7712999
  62.4131925   4.0909522  83.5842928  63.8132825   4.5469782  83.9359518
  68.5974938   9.1456029  82.8660752  69.3278327   8.8841317  83.4268456
  67.9881884   8.4084751  82.9062820  66.6790235   7.2863892  83.4635204
  65.9523399   7.1519857  82.8551695  66.2637522   7.5940720  84.2691922
  54.5020412  11.0053821  91.2282577  55.4223421  11.1832420  91.4222623
  54.4669995  10.0609867  91.0762276  52.8024636   4.8786052  69.7036805
  51.8956092   4.5819164  69.7799518  53.0800617   4.5815870  68.8371091
  43.7202577   6.1992415  80.1535851  43.4005361   5.3457723  79.8610225
  43.1736005   6.4140993  80.9093819  47.4982484   8.9154856  83.8705358
  47.7168494   9.8471964  83.8893392  47.9108258   8.5562830  84.6560162
  54.4186702  -0.5777059  75.8581046  53.6087430  -0.9229974  76.2336292
  55.1071119  -0.8869515  76.4468658  51.5723421   1.7372987  69.8448784
  52.4342585   2.0627885  70.1044601  51.7573765   0.9504483  69.3321850
  43.5890837   9.8195326  82.1228973  42.8954308   9.4049279  81.6098927
  44.3363828   9.8615863  81.5262392  59.7256057   0.6101513  76.9884007
  59.1454726   1.2686317  76.6062059  59.4591990  -0.2121142  76.5771425
  58.1759624   0.0106571  79.1905327  58.6759402   0.1223105  78.3819646
  58.8195232  -0.2932376  79.8306136  52.2341620   7.9185201  92.0773168
  51.7508701   8.7185561  92.2837057  52.3202559   7.9293145  91.1240612
  45.5027579   9.7513580  79.9994988  45.4798267   9.8501268  79.0476871
  45.8128216  10.5978731  80.3212154  48.1614957  11.8089735  84.1141602
  49.1158211  11.7773678  84.0471534  47.9627481  11.3480359  84.9291828
  48.7514339  10.3790851  86.6812400  49.5707228  10.8734930  86.7047237
  49.0251147   9.4622819  86.6529967  58.5080935   2.7701604  76.0440355
  57.6206790   3.0551254  75.8260550  58.9234925   2.6095367  75.1967632
  61.8595472   2.7948125  79.7594695  62.6355862   3.2844577  80.0319311
  61.1343606   3.2206179  80.2166564  64.2968030   3.5075744  80.8168635
  64.8912521   3.2671480  80.1061943  64.3694614   2.7882874  81.4442171
  46.5165186  17.3509355  81.1311800  46.3819654  16.5909756  80.5649798
  46.0997248  18.0750255  80.6640589  57.6524149  12.5346278  70.1388375
  58.3559999  12.7396281  70.7546031  56.9286798  13.1023040  70.4037459
  58.4821959   8.2856140  76.2590645  58.4257161   8.7424691  75.4198278
  59.0350302   7.5246824  76.0813488  62.2926765   4.0745871  77.0840765
  62.0363699   3.6742507  77.9148973  61.6679633   4.7889665  76.9590904
  66.6039103   6.8141945  79.5912056  66.0438661   6.8835134  80.3643618
  65.9982606   6.6382929  78.8711553  49.6734312  18.2478672  81.3430243
  49.5566696  19.1924104  81.2408933  48.8526758  17.9452233  81.7316042
  59.5610846  12.9728807  72.1886835  60.3956450  12.5410006  72.0064310
  59.3995189  12.8010821  73.1163730  59.2156739   9.4760921  73.5543175
  59.1605542   9.3105192  72.6131619  58.5902794  10.1836954  73.7105364
  56.5302646  11.7809833  92.8796737  57.3993805  11.9550485  92.5183372
  56.0509397  12.6004249  92.7572467  52.5252864  -1.0230970  73.1328493
  52.5131534  -0.0789130  73.2896764  53.4176286  -1.2060825  72.8387954
  50.6988826  18.9006934  84.5586171  51.6016073  18.9330544  84.8752666
  50.4726196  17.9707385  84.5732507  52.4542428  17.6537920  81.2196250
  51.5038059  17.6539782  81.1060622  52.7574914  16.9070655  80.7032284
  68.1895121  23.4898459  82.2842012  68.8273531  23.3705206  81.5805352
  68.0715964  24.4379303  82.3429964  64.9984828  23.4425887  82.2203537
  64.6603339  23.3266951  81.3324072  65.8674596  23.0417052  82.2004543
  60.8571643  25.2961363  78.2100428  60.2936509  25.2051300  77.4416716
  60.7424038  24.4761268  78.6902920  65.4804611  24.5960738  88.1789742
  65.4693251  24.2013537  87.3070246  65.6425250  23.8626811  88.7723514
  58.4036075  26.7912555  81.0484648  59.1957367  26.4503379  80.6330948
  58.6432726  26.9007530  81.9686802  66.4371202  28.9632331  73.5214893
  65.7859182  29.5486411  73.1348906  67.2315565  29.4938526  73.5809930
  60.3626829  26.0521468  73.9202027  61.1357705  25.5050455  73.7814903
  60.7152228  26.9165717  74.1316488  62.2011872  27.3797850  87.1268926
  61.9101738  28.2843481  87.0115593  62.8368856  27.4214378  87.8412996
  63.1268079  24.7574699  83.7170286  63.7231651  24.5330721  83.0027249
  63.1843050  24.0159444  84.3195734  62.6993107  22.2114134  71.5520477
  62.9518628  21.6895655  70.7903940  61.7617666  22.0480280  71.6547161
  67.7436390  21.2149912  79.3595220  68.5299479  20.7969336  79.0085637
  68.0075094  22.1196005  79.5276869  67.9146467  26.6522763  74.0583877
  67.2792300  26.7257389  74.7704782  67.5843874  27.2416362  73.3802956
  73.1444817  21.1525146  80.2628199  73.8769989  20.5824362  80.4966028
  72.3884173  20.7646746  80.7034704  62.4189396  24.1142240  73.7544852
  62.3025654  23.4387143  74.4225936  62.5291656  23.6274614  72.9377005
  64.7620937  23.5752387  77.4591541  64.3979144  23.0483008  78.1704463
  65.6188053  23.1850856  77.2858027  70.6670237  14.8646720  84.7222807
  70.3353562  15.7342131  84.4984022  70.0715851  14.5483004  85.4016838
  64.4026424  18.6042287  72.4552890  64.5700826  19.4722523  72.8223361
  64.2123593  18.7669569  71.5314179  67.1601757  27.0659266  84.1218720
  66.8602480  27.9684305  84.0134527  66.8152816  26.7991449  84.9739873
  60.6114238  23.5173063  80.1555424  59.6864735  23.3849277  80.3633116
  60.8598652  24.2967282  80.6525367  70.5598901  19.5841806  81.8016157
  69.6515778  19.5157214  81.5074918  70.5086497  20.0613751  82.6297983
  64.3815645  21.0599944  73.4399556  64.2615270  21.5056995  74.2785037
  63.6868233  21.4085262  72.8813095  57.9723049  23.1606336  80.9899213
  58.1015431  23.4140815  81.9038625  57.2920501  23.7534044  80.6703869
  62.1422537  33.8303586  77.0889688  62.0646566  34.7811411  77.1678168
  61.5384180  33.4849459  77.7464614  64.6339766  21.0031452  89.7451055
  63.8573101  21.5625372  89.7353919  65.2730330  21.4888235  90.2665925
  72.4260547  17.7858244  83.5794031  71.7834927  18.0790777  82.9333826
  71.9215476  17.6711165  84.3847228  70.0800711  21.5321418  74.2679891
  70.9918567  21.7648804  74.0927588  69.5710358  22.1158462  73.7054969
  62.8886139  23.8116905  89.3069022  63.6300823  24.3501949  89.0303845
  62.1823124  24.4383194  89.4640573  68.3641478  25.9546045  87.9041183
  68.7724834  25.5128456  87.1595815  67.6418740  25.3798673  88.1575376
  64.7172548  20.8918652  85.2774740  65.5633744  21.3158066  85.4209389
  64.6571186  20.2352276  85.9713303  68.6870293  26.5147236  81.6593472
  68.0579156  26.6792950  80.9569540  68.2995955  26.9288846  82.4304436
  72.5659525  27.4501674  79.0137836  71.8810563  27.8300575  78.4634869
  72.6503374  28.0597000  79.7469783  67.8671994  18.5523020  86.9355914
  67.6232926  19.3065081  86.3990189  68.1431924  18.9308368  87.7703161
  69.8210457  25.0961633  85.6133179  70.0327352  25.7393393  84.9367560
  69.7740205  24.2623949  85.1455109  67.4236686  17.7079453  82.5169751
  66.5621165  18.0060707  82.8086489  67.4499120  17.9249852  81.5850784
  64.2398255  26.2521644  78.9243557  64.7036600  26.5309347  78.1348180
  63.9755053  25.3505089  78.7416648  61.1322336  25.7993126  81.8623320
  61.7023693  26.2280394  81.2240805  61.7230448  25.5175710  82.5607506
  63.1767141  22.3744796  75.7333122  63.8791184  22.8265840  76.2007049
  62.8447770  21.7328615  76.3613015  61.6247503  20.9656553  90.1084332
  60.9946163  21.6472834  90.3419728  61.5183590  20.8539635  89.1637470
  56.9192475  20.6328349  81.0350256  56.1291529  20.8885878  80.5590366
  57.4103722  21.4476687  81.1402296  70.9356285  27.9733588  83.7855537
  71.7573728  27.5713776  83.5038218  70.9318687  27.8701822  84.7371652
  58.8707220  20.9972928  77.9933732  58.0738384  21.1091623  78.5117228
  58.6432813  21.3359581  77.1274623  64.7012888  27.5217632  85.9416247
  64.7657320  27.9838039  86.7774419  63.9923812  26.8914996  86.0698557
  55.2030178  20.8858840  83.4665247  55.4538216  21.7705849  83.7322823
  55.7389726  20.7063441  82.6940338  79.0262278  24.3172337  80.1340508
  78.2725986  23.7479735  79.9784512  79.1609819  24.2835001  81.0811143
  64.4160906  29.1885739  75.8095227  64.2806580  30.0337275  76.2380075
  64.9570718  29.3905017  75.0461161  60.9028245  15.2677319  92.4709583
  60.5095191  14.7143517  93.1457227  61.7194386  15.5787897  92.8616100
  57.8690303  26.7061177  76.3823153  58.3814824  27.5004427  76.5328717
  58.5213016  26.0087468  76.3156754  59.6785188  29.8226933  78.4645906
  59.8551816  30.7444898  78.2766890  60.4742021  29.5085353  78.8940285
  63.8196206  16.6835198  90.0629839  64.5605920  17.2842351  89.9834302
  64.0514129  15.9412836  89.5047882  58.9637544  21.8691565  88.3408069
  58.8491059  20.9676822  88.6415168  58.1082062  22.1155262  87.9892885
  66.0429382  29.8109306  89.9395570  65.5993236  29.0245684  89.6216474
  66.7046596  29.9988456  89.2739460  60.8016503  31.3405107  84.4656248
  61.3523928  31.2122171  83.6933242  59.9627979  31.6399996  84.1151141
  68.1410620  30.0912105  87.9676971  68.1229095  30.9120987  87.4757240
  69.0630540  29.9666181  88.1927112  64.5983674  27.6056235  88.8100479
  65.1312011  26.8444523  88.5799787  64.0697755  27.3129887  89.5524634
  67.7653369  12.7116301  84.3394121  67.4217639  13.6017943  84.2633231
  68.1332332  12.5217959  83.4763706  55.8339220  25.0349831  77.1582723
  56.6714442  25.4446840  76.9416431  56.0117488  24.0949274  77.1282917
  67.7303652  22.7024912  72.8466556  67.2150275  23.4729517  73.0854943
  67.4580960  22.0290048  73.4699617  65.3150763  17.5474613  77.9051794
  64.4592359  17.1581463  77.7257433  65.7277715  17.6266574  77.0451580
  66.8449910  15.0820956  82.3043354  66.3414705  15.0451091  81.4911159
  67.1380516  15.9913699  82.3640011  63.0892795  15.1659686  81.3109536
  63.9545792  14.9702494  80.9515425  63.1570304  14.9370038  82.2378893
  72.7037926  25.4557267  74.7819729  71.9267369  25.1168426  74.3374892
  73.3829407  25.4609890  74.1074695  67.5189955  20.5752004  74.6726337
  67.2140091  20.8898153  75.5236480  68.4720397  20.6533424  74.7153670
  65.9636387  26.7342227  76.3219291  65.4357749  25.9994987  76.0092529
  65.4623890  27.5116904  76.0759259  70.9429233  24.9291248  81.4386337
  70.2852907  25.6190509  81.5266466  71.7469632  25.3187680  81.7820324
  60.6955115  17.3961894  78.6825903  61.2698866  17.1737075  77.9499096
  61.2826097  17.4650588  79.4354504  69.7534692  23.2835621  79.4890279
  70.2666574  23.9165612  79.9911989  70.4035916  22.6836816  79.1233639
  61.0224702  19.4266355  72.7021788  60.1862014  19.7641041  73.0231063
  60.8829471  19.2915335  71.7648925  62.9977782  14.2703143  77.4100972
  62.3442195  13.9552160  76.7857587  62.9558256  13.6478883  78.1360795
  64.1088987  24.5522438  69.3254264  63.2016049  24.3211691  69.5245413
  64.6060019  23.7560057  69.5128246  67.0157066  33.2619945  72.2450950
  66.3418765  33.5651642  72.8535908  67.4022888  34.0649025  71.8956407
  66.2315523  20.7585076  81.7348620  65.3138084  20.9800023  81.5770308
  66.6475666  20.8331387  80.8760327  67.0150570  22.1576492  76.8651300
  67.7622389  22.6697889  76.5558422  67.2842160  21.8360545  77.7255694
  65.2877221  24.6535033  73.8478254  64.3788440  24.3694065  73.9450724
  65.3172304  25.0734111  72.9881561  70.5196488  28.2641622  77.6169422
  70.0658815  27.4232532  77.6734612  69.8890455  28.9003020  77.9544202
  69.4629408  19.1933608  78.8470089  68.7252164  18.6810994  79.1780332
  69.7156181  18.7533990  78.0353366  68.9629427  30.1018119  78.5519240
  69.2552402  30.6623176  77.8331606  69.4728048  30.3946680  79.3072399
  69.5641035  11.9709860  79.4411859  69.8699912  11.1107224  79.1537774
  70.2893640  12.5627480  79.2410852  55.8565391  22.3740547  77.8293456
  55.6589791  21.7809907  77.1044523  55.3012055  22.0692757  78.5469395
  63.8362115  22.2663653  79.9488050  63.8910724  21.3137490  79.8730526
  63.0253317  22.4223092  80.4329348  64.9853308  26.1943776  71.1866333
  64.5472738  25.4779635  70.7271970  65.7263749  26.4219891  70.6251424
  61.7754475  20.8840713  77.7078428  60.9622340  21.1834883  78.1143621
  62.2713469  20.4896402  78.4252911  63.9263052  30.8798470  79.6412693
  63.8839231  31.1059316  78.7121225  64.8425751  30.6461844  79.7898494
  67.3728686  21.3482537  86.5393322  67.7278074  21.5754011  87.3987788
  68.0200817  21.6800914  85.9170578  73.1026423  24.4700973  77.2442651
  72.9644322  24.6602569  76.3163841  72.7462642  25.2320356  77.7010703
  61.2668549  18.4559068  83.3239663  61.9067929  18.3147828  82.6262627
  60.4346080  18.1693582  82.9478265  73.1295803  26.5377500  82.2553923
  73.5632309  26.4452789  83.1036977  73.8427383  26.5135001  81.6173939
  62.0428853  27.7561499  79.4374656  62.8369452  27.2611819  79.2357231
  61.3320546  27.2279362  79.0742361  66.8623698  30.1379594  83.7887024
  66.9160720  30.7070531  84.5564739  65.9938479  30.3081479  83.4241061
  58.3511617  21.9004581  75.5134409  57.4209205  21.8389036  75.7304371
  58.4469089  21.3780533  74.7171050  58.2697166  18.4259393  78.1012650
  58.5303983  19.3404727  77.9921811  59.0914338  17.9583836  78.2509263
  59.7422091  19.8397151  85.2711475  60.4145144  19.6314513  84.6224124
  58.9151878  19.6419237  84.8316707  73.9911352  26.5801201  84.7886808
  74.1847242  27.4847011  85.0346083  73.8911970  26.1208620  85.6225393
  65.6447663  16.4659092  87.2877136  64.9975578  17.1649041  87.1941612
  66.4148678  16.8995235  87.6553384  69.0526461  26.7307944  90.3627689
  68.9011967  26.5018495  89.4457773  69.0431140  27.6878545  90.3759034
  65.8211797  24.3039856  85.3473955  66.7503857  24.4551016  85.1742923
  65.4002827  24.3923877  84.4922602  64.6200129  28.3290521  83.1172493
  64.4811215  27.9609305  83.9898431  63.8314725  28.8438160  82.9456451
  65.2148281  33.4299617  74.4598030  65.3900037  32.9587661  75.2743652
  64.5281069  34.0565384  74.6879290  66.1705344  27.7072124  80.5061331
  65.8355177  27.6672894  81.4018981  65.6709290  27.0416839  80.0331741
  60.1449588  23.1139754  86.0313912  60.0069386  22.3819992  86.6325451
  61.0554512  23.0248654  85.7498100  69.1064536  25.0528158  70.7798390
  68.4893707  24.3274986  70.6831443  68.6381024  25.8137518  70.4365465
  62.7731889  22.8259713  85.5197592  63.4831507  22.1852905  85.4784210
  62.7301197  23.0772608  86.4423772  70.7618668  29.7627066  88.4404171
  70.7031214  29.0786286  87.7734754  71.1638186  30.5046056  87.9884797
  61.4860823  19.8124931  87.3393231  60.9498180  19.3615669  87.9914827
  60.8977531  19.9470840  86.5963695  59.7809366  36.5788980  81.2337890
  60.0205965  37.2107504  81.9116908  58.9378563  36.2277020  81.5203249
  60.8963082  19.2713582  69.9019695  60.0192548  19.1502383  69.5381941
  61.3720835  18.4799661  69.6498583  70.7636075  27.7266650  86.6718150
  69.8762854  27.3892572  86.7944549  71.3334626  26.9949681  86.9086916
  52.4165222  24.0590742  79.9961202  53.1036262  23.7452472  79.4082217
  52.2613351  24.9632107  79.7228453  57.2199944  18.9480938  84.4246226
  57.1358133  18.3406608  83.6896635  56.3982651  19.4389957  84.4255722
  64.2937228  32.3868103  83.6379394  64.2207400  33.1923074  84.1498698
  63.8514621  32.5860068  82.8127415  64.0827008  31.6239873  77.1482215
  63.2994530  32.1661553  77.2420440  64.7819753  32.1413852  77.5476456
  67.3923658  17.4334502  79.7916421  67.8892358  16.6804464  79.4717491
  66.6210640  17.4698819  79.2259630  75.2453415  23.1374868  81.4334712
  75.2343292  24.0199583  81.0628645  74.3770795  22.7846418  81.2389249
  66.7535912  32.2854937  85.7937552  67.4663884  32.9202401  85.7213454
  66.2625940  32.3818803  84.9777554  68.4753439  26.1906189  77.3654844
  67.5409717  26.3107652  77.1959548  68.6530107  25.2878656  77.1014854
  63.9758627  19.5751885  79.5188105  63.6056414  19.0222925  80.2069011
  64.4717719  18.9710018  78.9663105  71.8625990  22.0323509  77.9004878
  72.3286442  22.8651500  77.8265181  72.3133491  21.5668490  78.6050137
  61.8047825  30.0349380  86.6143123  62.5057285  30.6685863  86.7672517
  61.3342940  30.3764112  85.8538762  69.9302221  28.3767330  74.8991030
  70.2062065  28.2623924  75.8084904  69.0606720  27.9784815  74.8603203
  69.8342653  14.4004096  81.9395779  68.9205733  14.6308322  82.1077986
  70.2635754  14.4842540  82.7909812  69.6049111  22.5893987  84.4395674
  68.9520562  22.8369895  83.7848126  69.9829491  21.7758126  84.1058151
  66.5656285  32.6253681  78.5423844  66.7478680  31.8075337  79.0051596
  67.3889271  32.8421373  78.1048734  66.8998451  31.5521866  75.8038892
  67.4286217  31.0414320  75.1909054  67.1626670  31.2364396  76.6684425
  65.6536684  23.3313799  90.9261711  64.9777321  23.2307928  91.5964086
  66.4764318  23.1753012  91.3897708  57.4015543  29.5685735  83.5474226
  57.9868980  28.8229423  83.6802130  57.2040382  29.8789692  84.4310890
  60.2554199  32.6036982  78.5636668  59.5864574  33.0883110  78.0800708
  60.1167068  32.8506203  79.4780047  51.9933198  22.1391335  82.2678669
  52.0317298  21.6054926  83.0615787  51.4873491  21.6126541  81.6489646
  64.3959467  34.6380726  85.1619327  64.9477775  34.8012347  85.9268412
  64.7365661  35.2285164  84.4899351  59.3723960  16.9855876  85.7641211
  59.4365287  17.8470707  85.3518609  59.3091081  16.3729877  85.0313570
  58.8476233  19.0579008  89.4114246  59.4748272  18.6756086  90.0251770
  57.9904152  18.8393210  89.7769938  69.2470342  29.4641984  91.0167981
  69.7910246  30.0771942  90.5222936  68.6657186  30.0221562  91.5334994
  55.6241776  20.8655437  75.3432600  55.9195217  19.9566116  75.2899654
  54.7229811  20.8443177  75.0213603  67.5327854  32.5862702  82.1483009
  67.4078994  31.7852441  81.6393954  68.1906946  33.0808895  81.6596979
  59.1536023  18.9411434  81.3260149  58.4322608  19.5547402  81.1867622
  59.9429278  19.4769199  81.2476795  69.5962763  30.3871722  83.7762559
  68.6493098  30.2677073  83.7040886  69.9445536  29.4994220  83.8588820
  61.9562336  16.2765861  87.6000801  62.4796738  16.5228157  88.3627110
  61.7374670  17.1085895  87.1803938  57.3529617  18.5469535  75.4671926
  57.0242323  17.6666914  75.2847031  57.7068988  18.4917204  76.3548315
  66.6009196  30.1824438  79.9766911  66.4534159  29.2541145  80.1574481
  67.4262690  30.2044529  79.4923986  60.4671440  18.8342505  75.8347403
  60.8067513  19.3628426  75.1126012  60.9143561  19.1722911  76.6105970
  70.2043318  31.0052997  81.0631784  71.1289866  30.7995858  80.9256235
  70.0358621  30.7569398  81.9721125  63.1614881  17.2179556  85.2850471
  62.8211702  16.4187369  85.6871151  62.4553888  17.5181266  84.7127304
  63.8131353  14.3028868  83.7377794  64.6357422  13.8289346  83.6156685
  64.0569417  15.0819352  84.2376481  62.4539588  17.3317126  74.0340696
  63.1747950  17.7098379  73.5304413  61.8304892  18.0506003  74.1375674
  66.5970710  18.0362275  74.9699028  66.8134325  18.9186913  74.6687856
  66.1164778  17.6448489  74.2404670  61.3369932  20.9947989  81.5469773
  61.1914513  21.3088292  82.4394054  60.8595136  21.6132889  80.9940672
  63.1966315  17.9850537  81.5950662  63.1827884  17.0891630  81.2582960
  63.9138743  17.9921200  82.2288949  65.0492445  18.4187877  83.6403790
  64.7910223  19.3404948  83.6388120  64.5177486  18.0218311  84.3304254
  69.9938634  31.5238664  76.4193875  70.1675512  30.9585086  75.6667728
  70.4867525  32.3239559  76.2373365  55.8115594  23.5353333  84.4857434
  55.2669062  24.3113141  84.6177708  56.6894944  23.8824138  84.3276556
  62.6003211  16.8664917  76.8638233  62.7219122  15.9381563  77.0629120
  62.3105253  16.8803603  75.9516548  65.4694401  14.5519827  80.0004952
  65.4916098  14.6159160  79.0456932  65.8862460  13.7124336  80.1945459
  75.8478025  24.2875087  78.0384175  76.2909171  23.5382412  77.6403298
  74.9704536  24.2785223  77.6557907  70.9813807  30.8405428  73.5190774
  71.6764711  31.4612121  73.7378088  71.3236957  29.9900780  73.7943151
  56.5981616  22.6623229  87.3787591  55.8563352  22.8105865  87.9652221
  56.2774360  22.9231495  86.5154340  72.8805230  28.2905134  75.0478104
  73.4056554  28.6292407  74.3227424  72.7927582  27.3552149  74.8641239
  64.5425279  32.2039208  87.1767981  64.8512405  31.9588354  88.0490681
  65.3400761  32.4085846  86.6886851  64.5645891  34.3577117  79.4073358
  64.1250881  33.8653496  80.1006214  65.3154008  33.8150085  79.1665433
  57.0438230  30.5488658  79.4097986  57.8696249  30.2492430  79.0296629
  56.6932282  29.7796281  79.8587774  62.0119763  29.9015126  81.4795659
  61.3899772  29.2385831  81.1797887  62.6824630  29.9276258  80.7969307
  55.2446835  28.4674985  80.3686919  54.4078743  28.0397159  80.1870920
  55.2170480  28.6607428  81.3057710  62.0844290  18.3796914  91.0728165
  62.1332446  19.2559037  90.6905935  62.6266804  17.8374307  90.4999808
  72.5699136  28.9238038  90.3529302  71.7794680  28.9062176  89.8133802
  72.3332490  29.4626331  91.1078339  72.6897011  25.7730504  87.6662031
  72.7395016  25.6080511  88.6077554  72.5810934  24.9057763  87.2759912
  61.5733270  28.4519050  74.9554120  61.7221390  29.1354514  74.3020792
  62.3799713  28.4324140  75.4703575  69.9800773  21.7561432  88.9821338
  70.8810636  21.6167897  88.6905335  70.0548748  21.9215887  89.9219515
  64.3143579  19.1328287  87.8274524  63.4446888  19.4261853  87.5557112
  64.5503059  19.7168732  88.5481787  74.1915208  28.1927445  87.9104052
  73.9000016  28.5557426  88.7467513  73.5787339  27.4794454  87.7317384
  75.3910890  25.7580325  80.4306623  76.2257781  26.1970129  80.5944183
  75.5270019  25.2818978  79.6114868  72.4402396  23.3160060  86.3784110
  72.9156518  23.5087706  85.5702962  71.5167961  23.3719246  86.1327494
  59.3285903  24.4784227  75.9615189  59.0831945  23.5746557  76.1595399
  59.4981817  24.4801378  75.0194667  67.0182613  15.3507904  85.3439944
  67.5364556  16.0868931  85.0186433  66.6637745  15.6571897  86.1786703
  58.5981550  20.2112585  73.4601350  57.9050795  20.2856940  72.8041386
  58.3533302  19.4472928  73.9822867  67.2695207  11.7708186  80.8640841
  67.5496960  11.1031375  81.4901267  68.0545814  11.9637282  80.3515505
  65.0728675  30.9467180  72.4265867  64.5002642  31.5657367  71.9736339
  65.6461469  31.4966542  72.9605789  71.1404065  20.1925820  84.6112416
  72.0921488  20.2923918  84.6324640  70.9707515  19.4004089  85.1210500
  69.1618444  17.2781403  84.7971817  68.5668377  17.5586416  84.1018305
  68.8768141  17.7675304  85.5688558  68.2925935  31.2304330  73.5574449
  69.2256608  31.1649892  73.7607325  68.2049148  32.0660597  73.0988982
  70.9213952  30.5470201  70.5178397  70.8427583  30.2130064  71.4114155
  71.7423618  31.0391968  70.5169869  73.6192143  23.4131940  83.7254716
  73.5868463  22.4747941  83.9114399  74.2292766  23.4915977  82.9920540
  65.4575474  22.2827993  69.7681920  66.4034578  22.1534201  69.8370338
  65.0789719  21.5442655  70.2451348  73.7686631  20.2042983  83.7712999
  73.2525680  19.4201440  83.5842928  74.6526580  19.8761700  83.9359518
  71.4297358  13.9483999  79.7308811  71.2322179  13.6399087  80.6152143
  72.0397064  14.6745638  79.8606741  79.4368693  24.4747947  82.8660752
  80.1672081  24.2133235  83.4268456  78.8275638  23.7376669  82.9062820
  77.5183990  22.6155809  83.4635204  76.7917153  22.4811774  82.8551695
  77.1031277  22.9232638  84.2691922  65.3414166  26.3345739  91.2282577
  66.2617176  26.5124338  91.4222623  65.3063749  25.3901784  91.0762276
  63.6418391  20.2077969  69.7036805  62.7349846  19.9111082  69.7799518
  63.9194372  19.9107787  68.8371091  54.5596331  21.5284333  80.1535851
  54.2399116  20.6749641  79.8610225  54.0129759  21.7432911  80.9093819
  58.3376239  24.2446774  83.8705358  58.5562249  25.1763881  83.8893392
  58.7502013  23.8854748  84.6560162  65.2580457  14.7514859  75.8581046
  64.4481185  14.4061944  76.2336292  65.9464873  14.4422403  76.4468658
  67.1871005  13.8292906  77.4805343  67.7402043  14.2488359  78.1395366
  67.4241091  12.9028654  77.5228299  63.2104104  19.8179979  93.2608107
  63.1100831  20.7674336  93.1920198  62.9925646  19.4898218  92.3884177
  62.4117175  17.0664904  69.8448784  63.2736339  17.3919803  70.1044601
  62.5967520  16.2796400  69.3321850  54.4284591  25.1487244  82.1228973
  53.7348063  24.7341197  81.6098927  55.1757582  25.1907781  81.5262392
  70.5649812  15.9393431  76.9884007  69.9848481  16.5978235  76.6062059
  70.2985745  15.1170776  76.5771425  69.0153378  15.3398489  79.1905327
  69.5153157  15.4515023  78.3819646  69.6588986  15.0359541  79.8306136
  63.0735374  23.2477118  92.0773168  62.5902456  24.0477478  92.2837057
  63.1596313  23.2585063  91.1240612  56.3421334  25.0805498  79.9994988
  56.3192022  25.1793185  79.0476871  56.6521970  25.9270649  80.3212154
  59.0008712  27.1381653  84.1141602  59.9551965  27.1065595  84.0471534
  58.8021235  26.6772277  84.9291828  59.5908094  25.7082769  86.6812400
  60.4100983  26.2026848  86.7047237  59.8644901  24.7914737  86.6529967
  69.3474690  18.0993521  76.0440355  68.4600545  18.3843172  75.8260550
  69.7628679  17.9387285  75.1967632  72.6989226  18.1240042  79.7594695
  73.4749616  18.6136495  80.0319311  71.9737360  18.5498096  80.2166564
  75.1361785  18.8367661  80.8168635  75.7306276  18.5963397  80.1061943
  75.2088368  18.1174792  81.4442171  57.3558940  32.6801272  81.1311800
  57.2213408  31.9201673  80.5649798  56.9391003  33.4042172  80.6640589
  68.4917903  27.8638196  70.1388375  69.1953754  28.0688198  70.7546031
  67.7680552  28.4314958  70.4037459  69.3215714  23.6148057  76.2590645
  69.2650915  24.0716609  75.4198278  69.8744056  22.8538742  76.0813488
  73.1320520  19.4037789  77.0840765  72.8757454  19.0034425  77.9148973
  72.5073388  20.1181583  76.9590904  77.4432857  22.1433862  79.5912056
  76.8832415  22.2127052  80.3643618  76.8376361  21.9674847  78.8711553
  60.5128066  33.5770589  81.3430243  60.3960450  34.5216022  81.2408933
  59.6920513  33.2744151  81.7316042  70.4004601  28.3020725  72.1886835
  71.2350205  27.8701924  72.0064310  70.2388944  28.1302739  73.1163730
  54.8443008  20.0420903  87.3804597  55.4901872  19.5319857  87.8691822
  54.6360159  20.7789584  87.9548022  67.3696400  27.1101750  92.8796737
  68.2387560  27.2842403  92.5183372  66.8903152  27.9296167  92.7572467
  63.3646618  14.3060947  73.1328493  63.3525288  15.2502787  73.2896764
  64.2570040  14.1231093  72.8387954  61.5382580  34.2298851  84.5586171
  62.4409827  34.2622462  84.8752666  61.3119950  33.2999302  84.5732507
  63.2936182  32.9829838  81.2196250  62.3431813  32.9831699  81.1060622
  63.5968669  32.2362572  80.7032284  67.1798738  10.9003724  77.3874430
  66.4131134  10.3462211  77.5331112  67.5909443  10.9725593  78.2488581
  59.1840499  17.1888520  91.4779611  60.0471961  16.8325325  91.6882936
  58.6105910  16.8502415  92.1655015  79.0288876  38.8190376  82.2842012
  79.6667286  38.6997124  81.5805352  78.9109719  39.7671220  82.3429964
  75.8378582  38.7717804  82.2203537  75.4997094  38.6558869  81.3324072
  76.7068350  38.3708969  82.2004543  71.6965398  40.6253281  78.2100428
  71.1330263  40.5343218  77.4416716  71.5817793  39.8053185  78.6902920
  76.3198365  39.9252656  88.1789742  76.3087006  39.5305454  87.3070246
  76.4819005  39.1918729  88.7723514  69.2429830  42.1204472  81.0484648
  70.0351122  41.7795297  80.6330948  69.4826480  42.2299447  81.9686802
  77.2764957  44.2924248  73.5214893  76.6252936  44.8778329  73.1348906
  78.0709319  44.8230443  73.5809930  71.2020584  41.3813386  73.9202027
  71.9751460  40.8342373  73.7814903  71.5545983  42.2457635  74.1316488
  73.0405626  42.7089768  87.1268926  72.7495492  43.6135399  87.0115593
  73.6762611  42.7506296  87.8412996  73.9661833  40.0866616  83.7170286
  74.5625405  39.8622639  83.0027249  74.0236805  39.3451362  84.3195734
  73.5386862  37.5406052  71.5520477  73.7912382  37.0187573  70.7903940
  72.6011421  37.3772197  71.6547161  78.5830144  36.5441830  79.3595220
  79.3693234  36.1261253  79.0085637  78.8468849  37.4487922  79.5276869
  78.7540222  41.9814680  74.0583877  78.1186055  42.0549307  74.7704782
  78.4237628  42.5708279  73.3802956  83.9838572  36.4817063  80.2628199
  84.7163743  35.9116280  80.4966028  83.2277927  36.0938664  80.7034704
  73.2583150  39.4434158  73.7544852  73.1419408  38.7679061  74.4225936
  73.3685410  38.9566532  72.9377005  75.6014691  38.9044305  77.4591541
  75.2372898  38.3774926  78.1704463  76.4581807  38.5142774  77.2858027
  81.5063992  30.1938637  84.7222807  81.1747317  31.0634048  84.4984022
  80.9109605  29.8774921  85.4016838  75.2420178  33.9334205  72.4552890
  75.4094581  34.8014441  72.8223361  75.0517347  34.0961486  71.5314179
  77.9995511  42.3951183  84.1218720  77.6996235  43.2976222  84.0134527
  77.6546571  42.1283367  84.9739873  71.4507993  38.8464980  80.1555424
  70.5258489  38.7141194  80.3633116  71.6992406  39.6259200  80.6525367
  81.3992655  34.9133724  81.8016157  80.4909533  34.8449132  81.5074918
  81.3480251  35.3905669  82.6297983  75.2209399  36.3891862  73.4399556
  75.1009024  36.8348913  74.2785037  74.5261987  36.7377180  72.8813095
  68.8116804  38.4898254  80.9899213  68.9409185  38.7432733  81.9038625
  68.1314255  39.0825962  80.6703869  72.9816291  49.1595504  77.0889688
  72.9040321  50.1103329  77.1678168  72.3777935  48.8141376  77.7464614
  75.4733521  36.3323369  89.7451055  74.6966855  36.8917289  89.7353919
  76.1124084  36.8180152  90.2665925  83.2654302  33.1150162  83.5794031
  82.6228682  33.4082695  82.9333826  82.7609230  33.0003082  84.3847228
  80.9194465  36.8613335  74.2679891  81.8312321  37.0940722  74.0927588
  80.4104112  37.4450379  73.7054969  73.7279893  39.1408823  89.3069022
  74.4694578  39.6793867  89.0303845  73.0216879  39.7675111  89.4640573
  79.2035233  41.2837963  87.9041183  79.6118589  40.8420374  87.1595815
  78.4812494  40.7090591  88.1575376  75.5566303  36.2210570  85.2774740
  76.4027498  36.6449983  85.4209389  75.4964941  35.5644194  85.9713303
  79.5264048  41.8439154  81.6593472  78.8972910  42.0084868  80.9569540
  79.1389710  42.2580763  82.4304436  83.4053279  42.7793591  79.0137836
  82.7204318  43.1592493  78.4634869  83.4897129  43.3888918  79.7469783
  78.7065748  33.8814938  86.9355914  78.4626680  34.6356999  86.3990189
  78.9825679  34.2600286  87.7703161  80.6604211  40.4253551  85.6133179
  80.8721106  41.0685310  84.9367560  80.6133959  39.5915867  85.1455109
  78.2630440  33.0371371  82.5169751  77.4014919  33.3352625  82.8086489
  78.2892875  33.2541770  81.5850784  75.0792009  41.5813562  78.9243557
  75.5430355  41.8601265  78.1348180  74.8148808  40.6797006  78.7416648
  71.9716091  41.1285043  81.8623320  72.5417448  41.5572312  81.2240805
  72.5624202  40.8467628  82.5607506  74.0160896  37.7036714  75.7333122
  74.7184939  38.1557758  76.2007049  73.6841524  37.0620533  76.3613015
  72.4641257  36.2948471  90.1084332  71.8339918  36.9764752  90.3419728
  72.3577345  36.1831552  89.1637470  67.7586229  35.9620267  81.0350256
  66.9685283  36.2177795  80.5590366  68.2497477  36.7768605  81.1402296
  81.7750039  43.3025506  83.7855537  82.5967483  42.9005693  83.5038218
  81.7712442  43.1993740  84.7371652  69.7100975  36.3264846  77.9933732
  68.9132138  36.4383540  78.5117228  69.4826567  36.6651498  77.1274623
  75.5406642  42.8509549  85.9416247  75.6051075  43.3129956  86.7774419
  74.8317566  42.2206914  86.0698557  66.0423932  36.2150757  83.4665247
  66.2931971  37.0997767  83.7322823  66.5783481  36.0355359  82.6940338
  89.8656032  39.6464254  80.1340508  89.1119740  39.0771652  79.9784512
  90.0003573  39.6126919  81.0811143  75.2554660  44.5177657  75.8095227
  75.1200335  45.3629192  76.2380075  75.7964473  44.7196934  75.0461161
  71.7422000  30.5969237  92.4709583  71.3488945  30.0435435  93.1457227
  72.5588140  30.9079815  92.8616100  68.7084058  42.0353095  76.3823153
  69.2208578  42.8296345  76.5328717  69.3606770  41.3379385  76.3156754
  70.5178942  45.1518851  78.4645906  70.6945571  46.0736816  78.2766890
  71.3135776  44.8377270  78.8940285  74.6589961  32.0127116  90.0629839
  75.3999674  32.6134269  89.9834302  74.8907884  31.2704753  89.5047882
  69.8031299  37.1983483  88.3408069  69.6884814  36.2968740  88.6415168
  68.9475817  37.4447180  87.9892885  76.8823137  45.1401223  89.9395570
  76.4386991  44.3537602  89.6216474  77.5440350  45.3280374  89.2739460
  71.6410258  46.6697025  84.4656248  72.1917683  46.5414088  83.6933242
  70.8021734  46.9691914  84.1151141  78.9804375  45.4204023  87.9676971
  78.9622850  46.2412904  87.4757240  79.9024295  45.2958098  88.1927112
  75.4377429  42.9348153  88.8100479  75.9705766  42.1736441  88.5799787
  74.9091510  42.6421804  89.5524634  78.6047124  28.0408219  84.3394121
  78.2611393  28.9309860  84.2633231  78.9726086  27.8509876  83.4763706
  66.6732974  40.3641749  77.1582723  67.5108196  40.7738757  76.9416431
  66.8511242  39.4241191  77.1282917  78.5697406  38.0316830  72.8466556
  78.0544030  38.8021434  73.0854943  78.2974715  37.3581966  73.4699617
  76.1544517  32.8766530  77.9051794  75.2986114  32.4873381  77.7257433
  76.5671469  32.9558491  77.0451580  77.6843664  30.4112874  82.3043354
  77.1808460  30.3743009  81.4911159  77.9774271  31.3205616  82.3640011
  73.9286550  30.4951603  81.3109536  74.7939547  30.2994412  80.9515425
  73.9964059  30.2661955  82.2378893  83.5431681  40.7849184  74.7819729
  82.7661123  40.4460344  74.3374892  84.2223162  40.7901808  74.1074695
  78.3583710  35.9043922  74.6726337  78.0533845  36.2190071  75.5236480
  79.3114152  35.9825342  74.7153670  76.8030141  42.0634145  76.3219291
  76.2751503  41.3286905  76.0092529  76.3017644  42.8408821  76.0759259
  81.7822987  40.2583166  81.4386337  81.1246662  40.9482427  81.5266466
  82.5863387  40.6479598  81.7820324  71.5348869  32.7253811  78.6825903
  72.1092621  32.5028993  77.9499096  72.1219851  32.7942506  79.4354504
  80.5928446  38.6127538  79.4890279  81.1060328  39.2457530  79.9911989
  81.2429670  38.0128734  79.1233639  71.8618456  34.7558272  72.7021788
  71.0255768  35.0932959  73.0231063  71.7223226  34.6207252  71.7648925
  73.8371537  29.5995060  77.4100972  73.1835949  29.2844077  76.7857587
  73.7952011  28.9770801  78.1360795  74.9482742  39.8814355  69.3254264
  74.0409803  39.6503609  69.5245413  75.4453774  39.0851975  69.5128246
  77.8550821  48.5911863  72.2450950  77.1812519  48.8943559  72.8535908
  78.2416642  49.3940943  71.8956407  77.0709277  36.0876994  81.7348620
  76.1531838  36.3091941  81.5770308  77.4869421  36.1623304  80.8760327
  77.8544325  37.4868410  76.8651300  78.6016144  37.9989807  76.5558422
  78.1235914  37.1652462  77.7255694  76.1270975  39.9826950  73.8478254
  75.2182194  39.6985983  73.9450724  76.1566059  40.4026029  72.9881561
  81.3590242  43.5933540  77.6169422  80.9052570  42.7524450  77.6734612
  80.7284209  44.2294938  77.9544202  80.3023162  34.5225526  78.8470089
  79.5645919  34.0102912  79.1780332  80.5549936  34.0825907  78.0353366
  79.8023182  45.4310036  78.5519240  80.0946156  45.9915094  77.8331606
  80.3121802  45.7238597  79.3072399  80.4034789  27.3001778  79.4411859
  80.7093666  26.4399141  79.1537774  81.1287394  27.8919398  79.2410852
  66.6959145  37.7032464  77.8293456  66.4983545  37.1101825  77.1044523
  66.1405809  37.3984675  78.5469395  74.6755869  37.5955571  79.9488050
  74.7304479  36.6429407  79.8730526  73.8647071  37.7515010  80.4329348
  75.8247063  41.5235694  71.1866333  75.3866493  40.8071553  70.7271970
  76.5657504  41.7511809  70.6251424  72.6148229  36.2132631  77.7078428
  71.8016095  36.5126801  78.1143621  73.1107223  35.8188319  78.4252911
  74.7656807  46.2090388  79.6412693  74.7232986  46.4351234  78.7121225
  75.6819506  45.9753762  79.7898494  78.2122441  36.6774455  86.5393322
  78.5671828  36.9045928  87.3987788  78.8594572  37.0092832  85.9170578
  83.9420178  39.7992891  77.2442651  83.8038076  39.9894487  76.3163841
  83.5856396  40.5612274  77.7010703  72.1062304  33.7850986  83.3239663
  72.7461683  33.6439745  82.6262627  71.2739834  33.4985500  82.9478265
  83.9689557  41.8669418  82.2553923  84.4026064  41.7744707  83.1036977
  84.6821138  41.8426918  81.6173939  72.8822608  43.0853417  79.4374656
  73.6763206  42.5903737  79.2357231  72.1714300  42.5571280  79.0742361
  77.7017452  45.4671512  83.7887024  77.7554474  46.0362448  84.5564739
  76.8332234  45.6373397  83.4241061  69.1905371  37.2296498  75.5134409
  68.2602959  37.1680954  75.7304371  69.2862843  36.7072451  74.7171050
  69.1090920  33.7551311  78.1012650  69.3697737  34.6696644  77.9921811
  69.9308093  33.2875754  78.2509263  70.5815846  35.1689068  85.2711475
  71.2538899  34.9606430  84.6224124  69.7545632  34.9711154  84.8316707
  84.8305107  41.9093119  84.7886808  85.0240997  42.8138929  85.0346083
  84.7305725  41.4500538  85.6225393  76.4841418  31.7951009  87.2877136
  75.8369333  32.4940959  87.1941612  77.2542433  32.2287153  87.6553384
  79.8920215  42.0599861  90.3627689  79.7405722  41.8310413  89.4457773
  79.8824895  43.0170463  90.3759034  76.6605552  39.6331774  85.3473955
  77.5897612  39.7842934  85.1742923  76.2396582  39.7215795  84.4922602
  75.4593884  43.6582439  83.1172493  75.3204969  43.2901223  83.9898431
  74.6708480  44.1730078  82.9456451  76.0542036  48.7591535  74.4598030
  76.2293791  48.2879578  75.2743652  75.3674824  49.3857301  74.6879290
  77.0099099  43.0364041  80.5061331  76.6748931  42.9964811  81.4018981
  76.5103045  42.3708757  80.0331741  70.9843343  38.4431671  86.0313912
  70.8463141  37.7111910  86.6325451  71.8948266  38.3540571  85.7498100
  79.9458290  40.3820076  70.7798390  79.3287461  39.6566904  70.6831443
  79.4774779  41.1429436  70.4365465  73.6125643  38.1551631  85.5197592
  74.3225262  37.5144823  85.4784210  73.5694952  38.4064525  86.4423772
  81.6012422  45.0918984  88.4404171  81.5424968  44.4078204  87.7734754
  82.0031941  45.8337974  87.9884797  72.3254577  35.1416848  87.3393231
  71.7891934  34.6907587  87.9914827  71.7371286  35.2762757  86.5963695
  70.6203121  51.9080898  81.2337890  70.8599719  52.5399422  81.9116908
  69.7772317  51.5568938  81.5203249  71.7356836  34.6005500  69.9019695
  70.8586303  34.4794301  69.5381941  72.2114589  33.8091578  69.6498583
  81.6029829  43.0558568  86.6718150  80.7156608  42.7184490  86.7944549
  82.1728380  42.3241599  86.9086916  63.2558977  39.3882660  79.9961202
  63.9430016  39.0744390  79.4082217  63.1007105  40.2924024  79.7228453
  68.0593699  34.2772856  84.4246226  67.9751887  33.6698526  83.6896635
  67.2376405  34.7681874  84.4255722  75.1330983  47.7160020  83.6379394
  75.0601154  48.5214992  84.1498698  74.6908376  47.9151986  82.8127415
  74.9220762  46.9531790  77.1482215  74.1388284  47.4953470  77.2420440
  75.6213508  47.4705770  77.5476456  78.2317413  32.7626420  79.7916421
  78.7286112  32.0096382  79.4717491  77.4604394  32.7990736  79.2259630
  86.0847170  38.4666785  81.4334712  86.0737046  39.3491501  81.0628645
  85.2164549  38.1138336  81.2389249  77.5929666  47.6146854  85.7937552
  78.3057639  48.2494319  85.7213454  77.1019695  47.7110720  84.9777554
  79.3147193  41.5198107  77.3654844  78.3803472  41.6399569  77.1959548
  79.4923862  40.6170574  77.1014854  74.8152381  34.9043803  79.5188105
  74.4450169  34.3514843  80.2069011  75.3111474  34.3001936  78.9663105
  82.7019745  37.3615426  77.9004878  83.1680197  38.1943418  77.8265181
  83.1527245  36.8960408  78.6050137  72.6441580  45.3641298  86.6143123
  73.3451039  45.9977781  86.7672517  72.1736695  45.7056029  85.8538762
  80.7695976  43.7059247  74.8991030  81.0455820  43.5915842  75.8084904
  79.9000474  43.3076732  74.8603203  80.6736407  29.7296013  81.9395779
  79.7599487  29.9600240  82.1077986  81.1029509  29.8134457  82.7909812
  80.4442866  37.9185905  84.4395674  79.7914316  38.1661813  83.7848126
  80.8223246  37.1050043  84.1058151  77.4050040  47.9545598  78.5423844
  77.5872434  47.1367254  79.0051596  78.2283026  48.1713291  78.1048734
  77.7392205  46.8813783  75.8038892  78.2679972  46.3706238  75.1909054
  78.0020425  46.5656314  76.6684425  76.4930439  38.6605716  90.9261711
  75.8171076  38.5599846  91.5964086  77.3158073  38.5044930  91.3897708
  68.2409298  44.8977653  83.5474226  68.8262735  44.1521341  83.6802130
  68.0434136  45.2081609  84.4310890  71.0947953  47.9328900  78.5636668
  70.4258328  48.4175028  78.0800708  70.9560823  48.1798121  79.4780047
  62.8326953  37.4683253  82.2678669  62.8711052  36.9346844  83.0615787
  62.3267245  36.9418458  81.6489646  75.2353222  49.9672644  85.1619327
  75.7871530  50.1304265  85.9268412  75.5759415  50.5577081  84.4899351
  70.2117715  32.3147793  85.7641211  70.2759041  33.1762624  85.3518609
  70.1484835  31.7021795  85.0313570  69.6869987  34.3870926  89.4114246
  70.3142026  34.0048003  90.0251770  68.8297906  34.1685128  89.7769938
  80.0864096  44.7933901  91.0167981  80.6304000  45.4063859  90.5222936
  79.5050941  45.3513480  91.5334994  66.4635530  36.1947355  75.3432600
  66.7588971  35.2858034  75.2899654  65.5623566  36.1735095  75.0213603
  78.3721609  47.9154619  82.1483009  78.2472748  47.1144359  81.6393954
  79.0300700  48.4100813  81.6596979  69.9929777  34.2703352  81.3260149
  69.2716363  34.8839319  81.1867622  70.7823033  34.8061117  81.2476795
  80.4356517  45.7163639  83.7762559  79.4886853  45.5968990  83.7040886
  80.7839290  44.8286137  83.8588820  72.7956091  31.6057778  87.6000801
  73.3190493  31.8520075  88.3627110  72.5768424  32.4377813  87.1803938
  68.1923372  33.8761453  75.4671926  67.8636078  32.9958832  75.2847031
  68.5462743  33.8209121  76.3548315  77.4402951  45.5116355  79.9766911
  77.2927913  44.5833063  80.1574481  78.2656444  45.5336446  79.4923986
  71.3065195  34.1634423  75.8347403  71.6461267  34.6920344  75.1126012
  71.7537315  34.5014829  76.6105970  81.0437073  46.3344914  81.0631784
  81.9683620  46.1287776  80.9256235  80.8752376  46.0861315  81.9721125
  74.0008636  32.5471473  85.2850471  73.6605456  31.7479286  85.6871151
  73.2947642  32.8473184  84.7127304  74.6525108  29.6320786  83.7377794
  75.4751177  29.1581264  83.6156685  74.8963171  30.4111269  84.2376481
  73.2933342  32.6609044  74.0340696  74.0141705  33.0390297  73.5304413
  72.6698646  33.3797921  74.1375674  77.4364465  33.3654193  74.9699028
  77.6528079  34.2478831  74.6687856  76.9558532  32.9740407  74.2404670
  72.1763686  36.3239906  81.5469773  72.0308267  36.6380209  82.4394054
  71.6988890  36.9424807  80.9940672  74.0360069  33.3142454  81.5950662
  74.0221638  32.4183548  81.2582960  74.7532497  33.3213118  82.2288949
  75.8886200  33.7479795  83.6403790  75.6303978  34.6696865  83.6388120
  75.3571240  33.3510229  84.3304254  80.8332389  46.8530582  76.4193875
  81.0069266  46.2877004  75.6667728  81.3261280  47.6531477  76.2373365
  66.6509349  38.8645251  84.4857434  66.1062817  39.6405059  84.6177708
  67.5288698  39.2116055  84.3276556  73.4396965  32.1956835  76.8638233
  73.5612876  31.2673481  77.0629120  73.1499008  32.2095521  75.9516548
  76.3088156  29.8811745  80.0004952  76.3309852  29.9451078  79.0456932
  76.7256215  29.0416254  80.1945459  86.6871780  39.6167005  78.0384175
  87.1302926  38.8674330  77.6403298  85.8098290  39.6077141  77.6557907
  81.8207561  46.1697346  73.5190774  82.5158466  46.7904039  73.7378088
  82.1630711  45.3192697  73.7943151  67.4375370  37.9915147  87.3787591
  66.6957106  38.1397782  87.9652221  67.1168115  38.2523413  86.5154340
  83.7198984  43.6197052  75.0478104  84.2450308  43.9584324  74.3227424
  83.6321337  42.6844067  74.8641239  75.3819033  47.5331125  87.1767981
  75.6906159  47.2880272  88.0490681  76.1794515  47.7377764  86.6886851
  75.4039645  49.6869035  79.4073358  74.9644635  49.1945414  80.1006214
  76.1547762  49.1442003  79.1665433  67.8831984  45.8780576  79.4097986
  68.7090004  45.5784348  79.0296629  67.5326036  45.1088198  79.8587774
  72.8513517  45.2307044  81.4795659  72.2293527  44.5677749  81.1797887
  73.5218384  45.2568176  80.7969307  66.0840589  43.7966902  80.3686919
  65.2472497  43.3689077  80.1870920  66.0564235  43.9899346  81.3057710
  72.9238045  33.7088832  91.0728165  72.9726200  34.5850955  90.6905935
  73.4660559  33.1666225  90.4999808  83.4092890  44.2529955  90.3529302
  82.6188434  44.2354094  89.8133802  83.1726245  44.7918249  91.1078339
  83.5290765  41.1022422  87.6662031  83.5788770  40.9372429  88.6077554
  83.4204689  40.2349681  87.2759912  72.4127024  43.7810967  74.9554120
  72.5615145  44.4646432  74.3020792  73.2193468  43.7616057  75.4703575
  80.8194528  37.0853350  88.9821338  81.7204391  36.9459815  88.6905335
  80.8942502  37.2507804  89.9219515  75.1537333  34.4620204  87.8274524
  74.2840643  34.7553770  87.5557112  75.3896814  35.0460649  88.5481787
  85.0308962  43.5219363  87.9104052  84.7393771  43.8849344  88.7467513
  84.4181094  42.8086371  87.7317384  86.2304645  41.0872243  80.4306623
  87.0651536  41.5262047  80.5944183  86.3663773  40.6110896  79.6114868
  83.2796151  38.6451978  86.3784110  83.7550272  38.8379624  85.5702962
  82.3561716  38.7011164  86.1327494  70.1679657  39.8076145  75.9615189
  69.9225699  38.9038475  76.1595399  70.3375572  39.8093295  75.0194667
  77.8576367  30.6799821  85.3439944  78.3758311  31.4160848  85.0186433
  77.5031500  30.9863815  86.1786703  69.4375305  35.5404503  73.4601350
  68.7444550  35.6148858  72.8041386  69.1927057  34.7764846  73.9822867
  78.1088961  27.1000104  80.8640841  78.3890715  26.4323293  81.4901267
  78.8939568  27.2929199  80.3515505  81.9797820  35.5217738  84.6112416
  82.9315242  35.6215836  84.6324640  81.8101270  34.7296006  85.1210500
  80.0012199  32.6073321  84.7971817  79.4062131  32.8878334  84.1018305
  79.7161896  33.0967222  85.5688558  79.1319689  46.5596248  73.5574449
  80.0650363  46.4941810  73.7607325  79.0442902  47.3952515  73.0988982
  81.7607706  45.8762118  70.5178397  81.6821338  45.5421982  71.4114155
  82.5817373  46.3683886  70.5169869  84.4585897  38.7423858  83.7254716
  84.4262217  37.8039858  83.9114399  85.0686521  38.8207894  82.9920540
  76.2969228  37.6119911  69.7681920  77.2428333  37.4826119  69.8370338
  75.9183473  36.8734572  70.2451348  84.6080386  35.5334901  83.7712999
  84.0919434  34.7493358  83.5842928  85.4920334  35.2053618  83.9359518
  82.2691113  29.2775917  79.7308811  82.0715934  28.9691005  80.6152143
  82.8790818  30.0037555  79.8606741  90.2762447  39.8039864  82.8660752
  91.0065836  39.5425153  83.4268456  89.6669393  39.0668586  82.9062820
  88.3577744  37.9447727  83.4635204  87.6310908  37.8103692  82.8551695
  87.9425031  38.2524556  84.2691922  76.1807921  41.6637657  91.2282577
  77.1010930  41.8416256  91.4222623  76.1457504  40.7193702  91.0762276
  74.4812145  35.5369887  69.7036805  73.5743601  35.2403000  69.7799518
  74.7588126  35.2399705  68.8371091  65.3990086  36.8576250  80.1535851
  65.0792870  36.0041559  79.8610225  64.8523514  37.0724828  80.9093819
  69.1769993  39.5738691  83.8705358  69.3956003  40.5055799  83.8893392
  69.5895767  39.2146666  84.6560162  76.0974211  30.0806777  75.8581046
  75.2874939  29.7353862  76.2336292  76.7858628  29.7714320  76.4468658
  78.0264759  29.1584823  77.4805343  78.5795798  29.5780277  78.1395366
  78.2634846  28.2320572  77.5228299  74.0497859  35.1471897  93.2608107
  73.9494585  36.0966254  93.1920198  73.8319401  34.8190136  92.3884177
  73.2510930  32.3956822  69.8448784  74.1130094  32.7211720  70.1044601
  73.4361274  31.6088318  69.3321850  65.2678346  40.4779162  82.1228973
  64.5741817  40.0633115  81.6098927  66.0151337  40.5199698  81.5262392
  81.4043566  31.2685349  76.9884007  80.8242235  31.9270153  76.6062059
  81.1379499  30.4462693  76.5771425  79.8547133  30.6690406  79.1905327
  80.3546911  30.7806941  78.3819646  80.4982741  30.3651459  79.8306136
  73.9129129  38.5769036  92.0773168  73.4296210  39.3769396  92.2837057
  73.9990068  38.5876981  91.1240612  67.1815088  40.4097416  79.9994988
  67.1585776  40.5085103  79.0476871  67.4915725  41.2562566  80.3212154
  69.8402466  42.4673571  84.1141602  70.7945720  42.4357513  84.0471534
  69.6414990  42.0064194  84.9291828  70.4301848  41.0374687  86.6812400
  71.2494737  41.5318765  86.7047237  70.7038656  40.1206655  86.6529967
  80.1868444  33.4285439  76.0440355  79.2994299  33.7135090  75.8260550
  80.6022434  33.2679202  75.1967632  83.5382981  33.4531960  79.7594695
  84.3143371  33.9428412  80.0319311  82.8131115  33.8790014  80.2166564
  85.9755539  34.1659579  80.8168635  86.5700030  33.9255315  80.1061943
  86.0482123  33.4466710  81.4442171  68.1952695  48.0093190  81.1311800
  68.0607163  47.2493591  80.5649798  67.7784757  48.7334090  80.6640589
  79.3311658  43.1930114  70.1388375  80.0347508  43.3980116  70.7546031
  78.6074307  43.7606876  70.4037459  80.1609468  38.9439975  76.2590645
  80.1044670  39.4008526  75.4198278  80.7137811  38.1830660  76.0813488
  83.9714274  34.7329707  77.0840765  83.7151208  34.3326342  77.9148973
  83.3467142  35.4473501  76.9590904  88.2826612  37.4725780  79.5912056
  87.7226170  37.5418969  80.3643618  87.6770115  37.2966765  78.8711553
  71.3521821  48.9062507  81.3430243  71.2354205  49.8507940  81.2408933
  70.5314267  48.6036069  81.7316042  81.2398355  43.6312643  72.1886835
  82.0743959  43.1993841  72.0064310  81.0782698  43.4594657  73.1163730
  80.8944248  40.1344756  73.5543175  80.8393051  39.9689028  72.6131619
  80.2690303  40.8420789  73.7105364  65.6836762  35.3712821  87.3804597
  66.3295626  34.8611775  87.8691822  65.4753914  36.1081502  87.9548022
  78.2090155  42.4393668  92.8796737  79.0781314  42.6134320  92.5183372
  77.7296906  43.2588085  92.7572467  74.2040373  29.6352865  73.1328493
  74.1919043  30.5794705  73.2896764  75.0963795  29.4523011  72.8387954
  72.3776335  49.5590769  84.5586171  73.2803582  49.5914379  84.8752666
  72.1513705  48.6291220  84.5732507  74.1329937  48.3121756  81.2196250
  73.1825568  48.3123617  81.1060622  74.4362423  47.5654490  80.7032284
  78.0192492  26.2295642  77.3874430  77.2524888  25.6754128  77.5331112
  78.4303197  26.3017511  78.2488581  70.0234253  32.5180438  91.4779611
  70.8865715  32.1617242  91.6882936  69.4499664  32.1794332  92.1655015
  89.8682630  54.1482294  82.2842012  90.5061040  54.0289041  81.5805352
  89.7503473  55.0963138  82.3429964  86.6772337  54.1009722  82.2203537
  86.3390848  53.9850787  81.3324072  87.5462105  53.7000887  82.2004543
  82.5359152  55.9545198  78.2100428  81.9724018  55.8635135  77.4416716
  82.4211547  55.1345103  78.6902920  87.1592120  55.2544574  88.1789742
  87.1480760  54.8597372  87.3070246  87.3212759  54.5210646  88.7723514
  80.0823584  57.4496390  81.0484648  80.8744876  57.1087215  80.6330948
  80.3220234  57.5591365  81.9686802  88.1158711  59.6216166  73.5214893
  87.4646691  60.2070247  73.1348906  88.9103074  60.1522361  73.5809930
  82.0414338  56.7105303  73.9202027  82.8145214  56.1634290  73.7814903
  82.3939737  57.5749553  74.1316488  83.8799381  58.0381686  87.1268926
  83.5889247  58.9427316  87.0115593  84.5156365  58.0798213  87.8412996
  84.8055588  55.4158534  83.7170286  85.4019160  55.1914557  83.0027249
  84.8630559  54.6743280  84.3195734  84.3780616  52.8697969  71.5520477
  84.6306137  52.3479491  70.7903940  83.4405175  52.7064115  71.6547161
  89.4223899  51.8733748  79.3595220  90.2086988  51.4553171  79.0085637
  89.6862603  52.7779840  79.5276869  89.5933976  57.3106598  74.0583877
  88.9579809  57.3841225  74.7704782  89.2631383  57.9000197  73.3802956
  94.8232326  51.8108981  80.2628199  95.5557498  51.2408198  80.4966028
  94.0671682  51.4230581  80.7034704  84.0976905  54.7726075  73.7544852
  83.9813163  54.0970979  74.4225936  84.2079165  54.2858449  72.9377005
  86.4408446  54.2336222  77.4591541  86.0766653  53.7066843  78.1704463
  87.2975562  53.8434692  77.2858027  92.3457746  45.5230555  84.7222807
  92.0141071  46.3925966  84.4984022  91.7503360  45.2066839  85.4016838
  86.0813933  49.2626122  72.4552890  86.2488335  50.1306359  72.8223361
  85.8911102  49.4253404  71.5314179  88.8389266  57.7243101  84.1218720
  88.5389989  58.6268140  84.0134527  88.4940325  57.4575284  84.9739873
  82.2901747  54.1756898  80.1555424  81.3652244  54.0433112  80.3633116
  82.5386161  54.9551117  80.6525367  92.2386410  50.2425641  81.8016157
  91.3303287  50.1741050  81.5074918  92.1874005  50.7197586  82.6297983
  86.0603154  51.7183780  73.4399556  85.9402779  52.1640830  74.2785037
  85.3655742  52.0669097  72.8813095  79.6510558  53.8190171  80.9899213
  79.7802940  54.0724650  81.9038625  78.9708010  54.4117879  80.6703869
  83.8210046  64.4887421  77.0889688  83.7434075  65.4395247  77.1678168
  83.2171689  64.1433294  77.7464614  86.3127275  51.6615287  89.7451055
  85.5360610  52.2209207  89.7353919  86.9517839  52.1472070  90.2665925
  94.1048056  48.4442080  83.5794031  93.4622436  48.7374613  82.9333826
  93.6002985  48.3295000  84.3847228  91.7588220  52.1905253  74.2679891
  92.6706076  52.4232640  74.0927588  91.2497867  52.7742297  73.7054969
  84.5673648  54.4700740  89.3069022  85.3088332  55.0085784  89.0303845
  83.8610633  55.0967029  89.4640573  90.0428987  56.6129881  87.9041183
  90.4512343  56.1712291  87.1595815  89.3206249  56.0382508  88.1575376
  86.3960057  51.5502487  85.2774740  87.2421253  51.9741901  85.4209389
  86.3358695  50.8936112  85.9713303  90.3657802  57.1731071  81.6593472
  89.7366665  57.3376785  80.9569540  89.9783464  57.5872681  82.4304436
  94.2447034  58.1085509  79.0137836  93.5598072  58.4884411  78.4634869
  94.3290883  58.7180836  79.7469783  89.5459503  49.2106856  86.9355914
  89.3020435  49.9648916  86.3990189  89.8219433  49.5892203  87.7703161
  91.4997966  55.7545468  85.6133179  91.7114861  56.3977228  84.9367560
  91.4527714  54.9207785  85.1455109  89.1024195  48.3663289  82.5169751
  88.2408674  48.6644542  82.8086489  89.1286629  48.5833688  81.5850784
  85.9185764  56.9105479  78.9243557  86.3824109  57.1893182  78.1348180
  85.6542562  56.0088924  78.7416648  82.8109845  56.4576961  81.8623320
  83.3811202  56.8864229  81.2240805  83.4017957  56.1759546  82.5607506
  84.8554650  53.0328632  75.7333122  85.5578693  53.4849675  76.2007049
  84.5235278  52.3912451  76.3613015  83.3035012  51.6240388  90.1084332
  82.6733672  52.3056669  90.3419728  83.1971099  51.5123470  89.1637470
  78.5979984  51.2912184  81.0350256  77.8079038  51.5469713  80.5590366
  79.0891231  52.1060522  81.1402296  92.6143794  58.6317424  83.7855537
  93.4361237  58.2297611  83.5038218  92.6106196  58.5285658  84.7371652
  80.5494729  51.6556764  77.9933732  79.7525893  51.7675458  78.5117228
  80.3220322  51.9943416  77.1274623  86.3800397  58.1801467  85.9416247
  86.4444829  58.6421874  86.7774419  85.6711321  57.5498832  86.0698557
  76.8817687  51.5442675  83.4665247  77.1325725  52.4289685  83.7322823
  77.4177235  51.3647276  82.6940338 100.7049787  54.9756172  80.1340508
  99.9513495  54.4063570  79.9784512 100.8397328  54.9418837  81.0811143
  86.0948415  59.8469574  75.8095227  85.9594089  60.6921110  76.2380075
  86.6358227  60.0488852  75.0461161  82.5815754  45.9261154  92.4709583
  82.1882700  45.3727353  93.1457227  83.3981895  46.2371733  92.8616100
  79.5477812  57.3645012  76.3823153  80.0602333  58.1588263  76.5328717
  80.2000525  56.6671303  76.3156754  81.3572697  60.4810769  78.4645906
  81.5339325  61.4028733  78.2766890  82.1529530  60.1669188  78.8940285
  85.4983715  47.3419033  90.0629839  86.2393429  47.9426186  89.9834302
  85.7301638  46.5996671  89.5047882  80.6425053  52.5275401  88.3408069
  80.5278568  51.6260658  88.6415168  79.7869571  52.7739097  87.9892885
  87.7216891  60.4693141  89.9395570  87.2780745  59.6829519  89.6216474
  88.3834105  60.6572291  89.2739460  82.4804012  61.9988943  84.4656248
  83.0311437  61.8706006  83.6933242  81.6415488  62.2983832  84.1151141
  89.8198129  60.7495941  87.9676971  89.8016604  61.5704822  87.4757240
  90.7418049  60.6250016  88.1927112  86.2771183  58.2640070  88.8100479
  86.8099520  57.5028359  88.5799787  85.7485264  57.9713722  89.5524634
  89.4440878  43.3700136  84.3394121  89.1005148  44.2601778  84.2633231
  89.8119841  43.1801794  83.4763706  77.5126729  55.6933667  77.1582723
  78.3501951  56.1030675  76.9416431  77.6904996  54.7533109  77.1282917
  89.4091161  53.3608747  72.8466556  88.8937784  54.1313352  73.0854943
  89.1368469  52.6873884  73.4699617  86.9938272  48.2058448  77.9051794
  86.1379868  47.8165299  77.7257433  87.4065224  48.2850409  77.0451580
  88.5237419  45.7404791  82.3043354  88.0202214  45.7034927  81.4911159
  88.8168025  46.6497534  82.3640011  84.7680304  45.8243521  81.3109536
  85.6333301  45.6286330  80.9515425  84.8357813  45.5953873  82.2378893
  94.3825435  56.1141102  74.7819729  93.6054878  55.7752262  74.3374892
  95.0616916  56.1193725  74.1074695  89.1977464  51.2335839  74.6726337
  88.8927600  51.5481989  75.5236480  90.1507906  51.3117259  74.7153670
  87.6423896  57.3926063  76.3219291  87.1145258  56.6578822  76.0092529
  87.1411399  58.1700739  76.0759259  92.6216742  55.5875083  81.4386337
  91.9640416  56.2774345  81.5266466  93.4257141  55.9771515  81.7820324
  82.3742624  48.0545729  78.6825903  82.9486375  47.8320911  77.9499096
  82.9613606  48.1234424  79.4354504  91.4322201  53.9419456  79.4890279
  91.9454082  54.5749448  79.9911989  92.0823425  53.3420651  79.1233639
  82.7012211  50.0850190  72.7021788  81.8649523  50.4224877  73.0231063
  82.5616980  49.9499170  71.7648925  84.6765291  44.9286978  77.4100972
  84.0229704  44.6135995  76.7857587  84.6345765  44.3062718  78.1360795
  85.7876496  55.2106273  69.3254264  84.8803558  54.9795527  69.5245413
  86.2847528  54.4143892  69.5128246  88.6944575  63.9203780  72.2450950
  88.0206274  64.2235477  72.8535908  89.0810397  64.7232861  71.8956407
  87.9103032  51.4168912  81.7348620  86.9925593  51.6383859  81.5770308
  88.3263175  51.4915222  80.8760327  88.6938079  52.8160327  76.8651300
  89.4409898  53.3281724  76.5558422  88.9629669  52.4944380  77.7255694
  86.9664730  55.3118868  73.8478254  86.0575949  55.0277901  73.9450724
  86.9959813  55.7317946  72.9881561  92.1983997  58.9225457  77.6169422
  91.7446324  58.0816367  77.6734612  91.5677964  59.5586856  77.9544202
  91.1416917  49.8517443  78.8470089  90.4039673  49.3394830  79.1780332
  91.3943690  49.4117825  78.0353366  90.6416936  60.7601954  78.5519240
  90.9339911  61.3207011  77.8331606  91.1515557  61.0530515  79.3072399
  91.2428544  42.6293695  79.4411859  91.5487421  41.7691059  79.1537774
  91.9681149  43.2211316  79.2410852  77.5352900  53.0324382  77.8293456
  77.3377300  52.4393743  77.1044523  76.9799564  52.7276592  78.5469395
  85.5149624  52.9247489  79.9488050  85.5698233  51.9721325  79.8730526
  84.7040826  53.0806928  80.4329348  86.6640817  56.8527612  71.1866333
  86.2260247  56.1363471  70.7271970  87.4051258  57.0803726  70.6251424
  83.4541984  51.5424548  77.7078428  82.6409849  51.8418719  78.1143621
  83.9500978  51.1480237  78.4252911  85.6050561  61.5382305  79.6412693
  85.5626740  61.7643152  78.7121225  86.5213260  61.3045680  79.7898494
  89.0516195  52.0066373  86.5393322  89.4065583  52.2337846  87.3987788
  89.6988326  52.3384750  85.9170578  94.7813932  55.1284809  77.2442651
  94.6431831  55.3186405  76.3163841  94.4250151  55.8904191  77.7010703
  82.9456058  49.1142904  83.3239663  83.5855438  48.9731663  82.6262627
  82.1133589  48.8277417  82.9478265  94.8083312  57.1961336  82.2553923
  95.2419818  57.1036625  83.1036977  95.5214892  57.1718836  81.6173939
  83.7216362  58.4145334  79.4374656  84.5156961  57.9195654  79.2357231
  83.0108055  57.8863197  79.0742361  88.5411207  60.7963430  83.7887024
  88.5948229  61.3654366  84.5564739  87.6725988  60.9665315  83.4241061
  80.0299126  52.5588416  75.5134409  79.0996714  52.4972871  75.7304371
  80.1256598  52.0364369  74.7171050  79.9484675  49.0843229  78.1012650
  80.2091492  49.9988562  77.9921811  80.7701847  48.6167671  78.2509263
  81.4209600  50.4980986  85.2711475  82.0932653  50.2898348  84.6224124
  80.5939387  50.3003072  84.8316707  95.6698861  57.2385036  84.7886808
  95.8634751  58.1430847  85.0346083  95.5699479  56.7792455  85.6225393
  87.3235172  47.1242927  87.2877136  86.6763087  47.8232877  87.1941612
  88.0936187  47.5579071  87.6553384  90.7313970  57.3891779  90.3627689
  90.5799476  57.1602331  89.4457773  90.7218649  58.3462380  90.3759034
  87.4999306  54.9623692  85.3473955  88.4291366  55.1134851  85.1742923
  87.0790336  55.0507713  84.4922602  86.2987638  58.9874356  83.1172493
  86.1598724  58.6193141  83.9898431  85.5102234  59.5021996  82.9456451
  86.8935790  64.0883453  74.4598030  87.0687546  63.6171496  75.2743652
  86.2068578  64.7149219  74.6879290  87.8492853  58.3655959  80.5061331
  87.5142686  58.3256729  81.4018981  87.3496799  57.7000675  80.0331741
  81.8237097  53.7723589  86.0313912  81.6856895  53.0403828  86.6325451
  82.7342021  53.6832489  85.7498100  90.7852045  55.7111993  70.7798390
  90.1681216  54.9858821  70.6831443  90.3168533  56.4721354  70.4365465
  84.4519398  53.4843548  85.5197592  85.1619016  52.8436740  85.4784210
  84.4088706  53.7356443  86.4423772  92.4406177  60.4210902  88.4404171
  92.3818723  59.7370122  87.7734754  92.8425695  61.1629892  87.9884797
  83.1648332  50.4708766  87.3393231  82.6285689  50.0199505  87.9914827
  82.5765040  50.6054675  86.5963695  81.4596875  67.2372815  81.2337890
  81.6993474  67.8691340  81.9116908  80.6166072  66.8860855  81.5203249
  82.5750591  49.9297418  69.9019695  81.6980057  49.8086218  69.5381941
  83.0508344  49.1383496  69.6498583  92.4423584  58.3850486  86.6718150
  91.5550363  58.0476407  86.7944549  93.0122135  57.6533517  86.9086916
  74.0952731  54.7174577  79.9961202  74.7823771  54.4036307  79.4082217
  73.9400860  55.6215942  79.7228453  78.8987453  49.6064774  84.4246226
  78.8145642  48.9990443  83.6896635  78.0770160  50.0973792  84.4255722
  85.9724737  63.0451938  83.6379394  85.8994909  63.8506909  84.1498698
  85.5302130  63.2443904  82.8127415  85.7614517  62.2823708  77.1482215
  84.9782039  62.8245388  77.2420440  86.4607262  62.7997688  77.5476456
  89.0711167  48.0918337  79.7916421  89.5679867  47.3388300  79.4717491
  88.2998149  48.1282654  79.2259630  96.9240924  53.7958703  81.4334712
  96.9130801  54.6783418  81.0628645  96.0558304  53.4430254  81.2389249
  88.4323421  62.9438772  85.7937552  89.1451393  63.5786237  85.7213454
  87.9413449  63.0402638  84.9777554  90.1540948  56.8490025  77.3654844
  89.2197226  56.9691487  77.1959548  90.3317616  55.9462491  77.1014854
  85.6546136  50.2335720  79.5188105  85.2843923  49.6806761  80.2069011
  86.1505228  49.6293854  78.9663105  93.5413499  52.6907344  77.9004878
  94.0073951  53.5235335  77.8265181  93.9921000  52.2252325  78.6050137
  83.4835334  60.6933215  86.6143123  84.1844794  61.3269698  86.7672517
  83.0130449  61.0347947  85.8538762  91.6089730  59.0351165  74.8991030
  91.8849574  58.9207760  75.8084904  90.7394229  58.6368650  74.8603203
  91.5130162  45.0587931  81.9395779  90.5993242  45.2892158  82.1077986
  91.9423263  45.1426375  82.7909812  91.2836620  53.2477823  84.4395674
  90.6308071  53.4953730  83.7848126  91.6617000  52.4341961  84.1058151
  88.2443794  63.2837516  78.5423844  88.4266189  62.4659172  79.0051596
  89.0676780  63.5005208  78.1048734  88.5785960  62.2105701  75.8038892
  89.1073726  61.6998156  75.1909054  88.8414179  61.8948231  76.6684425
  87.3324193  53.9897634  90.9261711  86.6564830  53.8891763  91.5964086
  88.1551827  53.8336848  91.3897708  79.0803052  60.2269570  83.5474226
  79.6656489  59.4813258  83.6802130  78.8827891  60.5373527  84.4310890
  81.9341708  63.2620818  78.5636668  81.2652083  63.7466945  78.0800708
  81.7954577  63.5090038  79.4780047  73.6720707  52.7975171  82.2678669
  73.7104807  52.2638761  83.0615787  73.1661000  52.2710376  81.6489646
  86.0746976  65.2964561  85.1619327  86.6265284  65.4596183  85.9268412
  86.4153170  65.8868999  84.4899351  81.0511469  47.6439711  85.7641211
  81.1152796  48.5054542  85.3518609  80.9878590  47.0313713  85.0313570
  80.5263742  49.7162844  89.4114246  81.1535781  49.3339921  90.0251770
  79.6691661  49.4977046  89.7769938  90.9257851  60.1225819  91.0167981
  91.4697755  60.7355777  90.5222936  90.3444695  60.6805397  91.5334994
  77.3029285  51.5239273  75.3432600  77.5982726  50.6149951  75.2899654
  76.4017320  51.5027012  75.0213603  89.2115363  63.2446537  82.1483009
  89.0866503  62.4436277  81.6393954  89.8694455  63.7392730  81.6596979
  80.8323532  49.5995269  81.3260149  80.1110117  50.2131237  81.1867622
  81.6216787  50.1353034  81.2476795  91.2750272  61.0455557  83.7762559
  90.3280607  60.9260908  83.7040886  91.6233045  60.1578055  83.8588820
  83.6349845  46.9349696  87.6000801  84.1584247  47.1811992  88.3627110
  83.4162179  47.7669731  87.1803938  79.0317126  49.2053370  75.4671926
  78.7029832  48.3250749  75.2847031  79.3856497  49.1501039  76.3548315
  88.2796705  60.8408273  79.9766911  88.1321668  59.9124981  80.1574481
  89.1050199  60.8628364  79.4923986  82.1458949  49.4926340  75.8347403
  82.4855022  50.0212262  75.1126012  82.5931070  49.8306746  76.6105970
  91.8830827  61.6636832  81.0631784  92.8077374  61.4579693  80.9256235
  91.7146130  61.4153233  81.9721125  84.8402390  47.8763391  85.2850471
  84.4999211  47.0771204  85.6871151  84.1341397  48.1765102  84.7127304
  85.4918862  44.9612703  83.7377794  86.3144931  44.4873182  83.6156685
  85.7356926  45.7403187  84.2376481  84.1327097  47.9900962  74.0340696
  84.8535459  48.3682215  73.5304413  83.5092401  48.7089839  74.1375674
  88.2758219  48.6946111  74.9699028  88.4921834  49.5770749  74.6687856
  87.7952287  48.3032324  74.2404670  83.0157441  51.6531824  81.5469773
  82.8702022  51.9672127  82.4394054  82.5382644  52.2716724  80.9940672
  84.8753824  48.6434372  81.5950662  84.8615393  47.7475465  81.2582960
  85.5926252  48.6505036  82.2288949  86.7279954  49.0771712  83.6403790
  86.4697732  49.9988783  83.6388120  86.1964995  48.6802147  84.3304254
  91.6726143  62.1822499  76.4193875  91.8463021  61.6168922  75.6667728
  92.1655034  62.9823394  76.2373365  77.4903103  54.1937168  84.4857434
  76.9456571  54.9696976  84.6177708  78.3682453  54.5407973  84.3276556
  84.2790720  47.5248752  76.8638233  84.4006631  46.5965398  77.0629120
  83.9892762  47.5387438  75.9516548  87.1481910  45.2103663  80.0004952
  87.1703607  45.2742996  79.0456932  87.5649969  44.3708171  80.1945459
  97.5265534  54.9458922  78.0384175  97.9696680  54.1966247  77.6403298
  96.6492045  54.9369059  77.6557907  92.6601316  61.4989264  73.5190774
  93.3552220  62.1195956  73.7378088  93.0024466  60.6484615  73.7943151
  78.2769125  53.3207065  87.3787591  77.5350861  53.4689700  87.9652221
  77.9561869  53.5815330  86.5154340  94.5592739  58.9488969  75.0478104
  95.0844063  59.2876242  74.3227424  94.4715091  58.0135985  74.8641239
  86.2212788  62.8623043  87.1767981  86.5299914  62.6172190  88.0490681
  87.0188270  63.0669681  86.6886851  86.2433400  65.0160953  79.4073358
  85.8038390  64.5237331  80.1006214  86.9941517  64.4733920  79.1665433
  78.7225739  61.2072493  79.4097986  79.5483758  60.9076265  79.0296629
  78.3719791  60.4380116  79.8587774  83.6907272  60.5598962  81.4795659
  83.0687281  59.8969667  81.1797887  84.3612139  60.5860094  80.7969307
  76.9234344  59.1258820  80.3686919  76.0866252  58.6980994  80.1870920
  76.8957989  59.3191263  81.3057710  83.7631799  49.0380750  91.0728165
  83.8119955  49.9142872  90.6905935  84.3054313  48.4958143  90.4999808
  94.2486645  59.5821873  90.3529302  93.4582189  59.5646012  89.8133802
  94.0119999  60.1210167  91.1078339  94.3684520  56.4314339  87.6662031
  94.4182525  56.2664347  88.6077554  94.2598443  55.5641598  87.2759912
  83.2520779  59.1102885  74.9554120  83.4008899  59.7938349  74.3020792
  84.0587222  59.0907975  75.4703575  91.6588282  52.4145267  88.9821338
  92.5598145  52.2751732  88.6905335  91.7336257  52.5799722  89.9219515
  85.9931088  49.7912122  87.8274524  85.1234397  50.0845688  87.5557112
  86.2290568  50.3752567  88.5481787  95.8702717  58.8511281  87.9104052
  95.5787525  59.2141261  88.7467513  95.2574848  58.1378289  87.7317384
  97.0698399  56.4164161  80.4306623  97.9045290  56.8553965  80.5944183
  97.2057528  55.9402814  79.6114868  94.1189905  53.9743895  86.3784110
  94.5944027  54.1671542  85.5702962  93.1955470  54.0303081  86.1327494
  81.0073412  55.1368063  75.9615189  80.7619454  54.2330393  76.1595399
  81.1769326  55.1385213  75.0194667  88.6970121  46.0091739  85.3439944
  89.2152065  46.7452766  85.0186433  88.3425254  46.3155732  86.1786703
  80.2769059  50.8696420  73.4601350  79.5838304  50.9440775  72.8041386
  80.0320811  50.1056764  73.9822867  88.9482716  42.4292022  80.8640841
  89.2284469  41.7615211  81.4901267  89.7333323  42.6221117  80.3515505
  86.7516184  61.6051015  72.4265867  86.1790151  62.2241203  71.9736339
  87.3248978  62.1550377  72.9605789  92.8191574  50.8509656  84.6112416
  93.7708997  50.9507753  84.6324640  92.6495024  50.0587924  85.1210500
  90.8405953  47.9365239  84.7971817  90.2455886  48.2170251  84.1018305
  90.5555650  48.4259140  85.5688558  89.9713444  61.8888166  73.5574449
  90.9044117  61.8233727  73.7607325  89.8836657  62.7244432  73.0988982
  92.6001461  61.2054036  70.5178397  92.5215092  60.8713900  71.4114155
  93.4211127  61.6975804  70.5169869  95.2979652  54.0715775  83.7254716
  95.2655972  53.1331776  83.9114399  95.9080275  54.1499812  82.9920540
  87.1362983  52.9411828  69.7681920  88.0822087  52.8118036  69.8370338
  86.7577228  52.2026490  70.2451348  95.4474140  50.8626819  83.7712999
  94.9313189  50.0785275  83.5842928  96.3314089  50.5345535  83.9359518
  93.1084867  44.6067834  79.7308811  92.9109688  44.2982922  80.6152143
  93.7184573  45.3329473  79.8606741 101.1156202  55.1331782  82.8660752
 101.8459590  54.8717070  83.4268456 100.5063147  54.3960504  82.9062820
  99.1971499  53.2739645  83.4635204  98.4704662  53.1395610  82.8551695
  98.7818786  53.5816473  84.2691922  87.0201675  56.9929574  91.2282577
  87.9404685  57.1708173  91.4222623  86.9851258  56.0485620  91.0762276
  85.3205900  50.8661805  69.7036805  84.4137355  50.5694917  69.7799518
  85.5981881  50.5691623  68.8371091  76.2383840  52.1868168  80.1535851
  75.9186625  51.3333476  79.8610225  75.6917268  52.4016746  80.9093819
  80.0163748  54.9030609  83.8705358  80.2349758  55.8347717  83.8893392
  80.4289522  54.5438583  84.6560162  86.9367966  45.4098694  75.8581046
  86.1268694  45.0645779  76.2336292  87.6252382  45.1006238  76.4468658
  88.8658514  44.4876741  77.4805343  89.4189552  44.9072195  78.1395366
  89.1028600  43.5612489  77.5228299  84.8891613  50.4763815  93.2608107
  84.7888340  51.4258172  93.1920198  84.6713155  50.1482054  92.3884177
  84.0904684  47.7248740  69.8448784  84.9523848  48.0503638  70.1044601
  84.2755029  46.9380236  69.3321850  76.1072100  55.8071079  82.1228973
  75.4135572  55.3925032  81.6098927  76.8545091  55.8491616  81.5262392
  92.2437321  46.5977266  76.9884007  91.6635990  47.2562070  76.6062059
  91.9773254  45.7754611  76.5771425  90.6940887  45.9982324  79.1905327
  91.1940666  46.1098858  78.3819646  91.3376495  45.6943377  79.8306136
  84.7522883  53.9060954  92.0773168  84.2689965  54.7061314  92.2837057
  84.8383822  53.9168898  91.1240612  78.0208843  55.7389333  79.9994988
  77.9979531  55.8377021  79.0476871  78.3309479  56.5854484  80.3212154
  80.6796221  57.7965488  84.1141602  81.6339474  57.7649431  84.0471534
  80.4808744  57.3356112  84.9291828  81.2695603  56.3666604  86.6812400
  82.0888492  56.8610683  86.7047237  81.5432410  55.4498572  86.6529967
  91.0262199  48.7577357  76.0440355  90.1388054  49.0427007  75.8260550
  91.4416188  48.5971120  75.1967632  94.3776735  48.7823878  79.7594695
  95.1537125  49.2720330  80.0319311  93.6524869  49.2081932  80.2166564
  96.8149294  49.4951497  80.8168635  97.4093785  49.2547233  80.1061943
  96.8875877  48.7758627  81.4442171  79.0346449  63.3385108  81.1311800
  78.9000917  62.5785509  80.5649798  78.6178512  64.0626008  80.6640589
  90.1705412  58.5222031  70.1388375  90.8741263  58.7272034  70.7546031
  89.4468061  59.0898793  70.4037459  91.0003223  54.2731893  76.2590645
  90.9438424  54.7300444  75.4198278  91.5531565  53.5122577  76.0813488
  94.8108029  50.0621624  77.0840765  94.5544963  49.6618260  77.9148973
  94.1860897  50.7765418  76.9590904  99.1220366  52.8017698  79.5912056
  98.5619924  52.8710887  80.3643618  98.5163870  52.6258682  78.8711553
  82.1915575  64.2354425  81.3430243  82.0747959  65.1799857  81.2408933
  81.3708022  63.9327986  81.7316042  92.0792110  58.9604561  72.1886835
  92.9137714  58.5285759  72.0064310  91.9176453  58.7886574  73.1163730
  91.7338002  55.4636674  73.5543175  91.6786806  55.2980945  72.6131619
  91.1084057  56.1712707  73.7105364  76.5230517  50.7004738  87.3804597
  77.1689381  50.1903692  87.8691822  76.3147668  51.4373420  87.9548022
  89.0483909  57.7685586  92.8796737  89.9175069  57.9426238  92.5183372
  88.5690661  58.5880003  92.7572467  85.0434127  44.9644783  73.1328493
  85.0312797  45.9086623  73.2896764  85.9357549  44.7814928  72.8387954
  83.2170089  64.8882687  84.5586171  84.1197336  64.9206297  84.8752666
  82.9907459  63.9583138  84.5732507  84.9723691  63.6413673  81.2196250
  84.0219322  63.6415535  81.1060622  85.2756178  62.8946408  80.7032284
  88.8586247  41.5587559  77.3874430  88.0918643  41.0046046  77.5331112
  89.2696952  41.6309428  78.2488581  80.8628008  47.8472355  91.4779611
  81.7259470  47.4909160  91.6882936  80.2893419  47.5086250  92.1655015
 100.7076385  69.4774212  82.2842012 101.3454795  69.3580959  81.5805352
 100.5897228  70.4255056  82.3429964  97.5166091  69.4301640  82.2203537
  97.1784603  69.3142704  81.3324072  98.3855859  69.0292805  82.2004543
  93.3752907  71.2837116  78.2100428  92.8117772  71.1927053  77.4416716
  93.2605302  70.4637021  78.6902920  97.9985874  70.5836491  88.1789742
  97.9874515  70.1889290  87.3070246  98.1606514  69.8502564  88.7723514
  90.9217339  72.7788308  81.0484648  91.7138631  72.4379132  80.6330948
  91.1613989  72.8883283  81.9686802  98.9552466  74.9508084  73.5214893
  98.3040445  75.5362164  73.1348906  99.7496828  75.4814279  73.5809930
  92.8808093  72.0397221  73.9202027  93.6538969  71.4926208  73.7814903
  93.2333492  72.9041470  74.1316488  94.7193135  73.3673603  87.1268926
  94.4283001  74.2719234  87.0115593  95.3550120  73.4090131  87.8412996
  95.6449342  70.7450452  83.7170286  96.2412914  70.5206474  83.0027249
  95.7024314  70.0035197  84.3195734  95.2174371  68.1989887  71.5520477
  95.4699891  67.6771408  70.7903940  94.2798930  68.0356033  71.6547161
 100.2617653  67.2025665  79.3595220 101.0480743  66.7845089  79.0085637
 100.5256358  68.1071758  79.5276869 100.4327731  72.6398516  74.0583877
  99.7973564  72.7133142  74.7704782 100.1025137  73.2292115  73.3802956
 105.6626081  67.1400899  80.2628199 106.3951252  66.5700115  80.4966028
 104.9065436  66.7522499  80.7034704  94.9370659  70.1017993  73.7544852
  94.8206917  69.4262896  74.4225936  95.0472919  69.6150367  72.9377005
  97.2802200  69.5628140  77.4591541  96.9160407  69.0358761  78.1704463
  98.1369316  69.1726609  77.2858027 103.1851501  60.8522473  84.7222807
 102.8534826  61.7217884  84.4984022 102.5897114  60.5358757  85.4016838
  96.9207687  64.5918040  72.4552890  97.0882090  65.4598276  72.8223361
  96.7304856  64.7545322  71.5314179  99.6783020  73.0535019  84.1218720
  99.3783743  73.9560058  84.0134527  99.3334080  72.7867202  84.9739873
  93.1295502  69.5048816  80.1555424  92.2045998  69.3725030  80.3633116
  93.3779915  70.2843035  80.6525367 103.0780164  65.5717559  81.8016157
 102.1697042  65.5032967  81.5074918 103.0267760  66.0489504  82.6297983
  96.8996908  67.0475697  73.4399556  96.7796533  67.4932748  74.2785037
  96.2049496  67.3961015  72.8813095  90.4904313  69.1482089  80.9899213
  90.6196694  69.4016568  81.9038625  89.8101764  69.7409797  80.6703869
  94.6603800  79.8179339  77.0889688  94.5827830  80.7687164  77.1678168
  94.0565444  79.4725212  77.7464614  97.1521030  66.9907205  89.7451055
  96.3754364  67.5501125  89.7353919  97.7911593  67.4763988  90.2665925
 104.9441811  63.7733997  83.5794031 104.3016191  64.0666531  82.9333826
 104.4396739  63.6586918  84.3847228 102.5981974  67.5197171  74.2679891
 103.5099830  67.7524557  74.0927588 102.0891621  68.1034215  73.7054969
  95.4067402  69.7992658  89.3069022  96.1482087  70.3377702  89.0303845
  94.7004388  70.4258947  89.4640573 100.8822742  71.9421798  87.9041183
 101.2906098  71.5004209  87.1595815 100.1600003  71.3674426  88.1575376
  97.2353812  66.8794405  85.2774740  98.0815007  67.3033819  85.4209389
  97.1752450  66.2228029  85.9713303 101.2051557  72.5022989  81.6593472
 100.5760419  72.6668703  80.9569540 100.8177219  72.9164599  82.4304436
 105.0840788  73.4377427  79.0137836 104.3991827  73.8176328  78.4634869
 105.1684638  74.0472754  79.7469783 100.3853257  64.5398774  86.9355914
 100.1414189  65.2940834  86.3990189 100.6613188  64.9184121  87.7703161
 102.3391720  71.0837386  85.6133179 102.5508615  71.7269146  84.9367560
 102.2921468  70.2499702  85.1455109  99.9417949  63.6955207  82.5169751
  99.0802428  63.9936460  82.8086489  99.9680384  63.9125605  81.5850784
  96.7579518  72.2397397  78.9243557  97.2217864  72.5185100  78.1348180
  96.4936317  71.3380842  78.7416648  93.6503599  71.7868879  81.8623320
  94.2204957  72.2156147  81.2240805  94.2411711  71.5051463  82.5607506
  95.6948404  68.3620549  75.7333122  96.3972448  68.8141593  76.2007049
  95.3629033  67.7204368  76.3613015  94.1428766  66.9532306  90.1084332
  93.5127427  67.6348587  90.3419728  94.0364854  66.8415388  89.1637470
  89.4373738  66.6204102  81.0350256  88.6472792  66.8761631  80.5590366
  89.9284986  67.4352440  81.1402296 103.4537548  73.9609341  83.7855537
 104.2754992  73.5589529  83.5038218 103.4499951  73.8577575  84.7371652
  91.3888484  66.9848681  77.9933732  90.5919647  67.0967376  78.5117228
  91.1614076  67.3235334  77.1274623  97.2194151  73.5093385  85.9416247
  97.2838584  73.9713792  86.7774419  96.5105075  72.8790750  86.0698557
  87.7211441  66.8734593  83.4665247  87.9719480  67.7581602  83.7322823
  88.2570990  66.6939194  82.6940338  96.9342169  75.1761492  75.8095227
  96.7987844  76.0213028  76.2380075  97.4751982  75.3780770  75.0461161
  93.4209509  61.2553072  92.4709583  93.0276454  60.7019270  93.1457227
  94.2375649  61.5663650  92.8616100  90.3871567  72.6936930  76.3823153
  90.8996087  73.4880180  76.5328717  91.0394279  71.9963221  76.3156754
  92.1966451  75.8102686  78.4645906  92.3733080  76.7320651  78.2766890
  92.9923285  75.4961106  78.8940285  96.3377470  62.6710951  90.0629839
  97.0787183  63.2718104  89.9834302  96.5695393  61.9288589  89.5047882
  91.4818808  67.8567318  88.3408069  91.3672323  66.9552576  88.6415168
  90.6263325  68.1031015  87.9892885  98.5610645  75.7985059  89.9395570
  98.1174500  75.0121437  89.6216474  99.2227859  75.9864209  89.2739460
  93.3197767  77.3280860  84.4656248  93.8705192  77.1997924  83.6933242
  92.4809243  77.6275749  84.1151141 100.6591884  76.0787859  87.9676971
 100.6410359  76.8996740  87.4757240 101.5811804  75.9541934  88.1927112
  97.1164938  73.5931988  88.8100479  97.6493275  72.8320276  88.5799787
  96.5879019  73.3005640  89.5524634 100.2834633  58.6992054  84.3394121
  99.9398902  59.5893696  84.2633231 100.6513595  58.5093712  83.4763706
  88.3520483  71.0225584  77.1582723  89.1895705  71.4322593  76.9416431
  88.5298751  70.0825027  77.1282917 100.2484915  68.6900665  72.8466556
  99.7331539  69.4605270  73.0854943  99.9762224  68.0165801  73.4699617
  97.8332026  63.5350366  77.9051794  96.9773623  63.1457216  77.7257433
  98.2458978  63.6142327  77.0451580  99.3631173  61.0696709  82.3043354
  98.8595969  61.0326844  81.4911159  99.6561780  61.9789452  82.3640011
  95.6074059  61.1535439  81.3109536  96.4727056  60.9578248  80.9515425
  95.6751568  60.9245791  82.2378893 105.2219190  71.4433020  74.7819729
 104.4448632  71.1044179  74.3374892 105.9010671  71.4485643  74.1074695
 100.0371219  66.5627757  74.6726337  99.7321354  66.8773906  75.5236480
 100.9901661  66.6409177  74.7153670  98.4817650  72.7217980  76.3219291
  97.9539012  71.9870740  76.0092529  97.9805153  73.4992657  76.0759259
 103.4610496  70.9167001  81.4386337 102.8034171  71.6066262  81.5266466
 104.2650896  71.3063433  81.7820324  93.2136378  63.3837647  78.6825903
  93.7880130  63.1612828  77.9499096  93.8007360  63.4526341  79.4354504
 102.2715955  69.2711374  79.4890279 102.7847837  69.9041365  79.9911989
 102.9217179  68.6712569  79.1233639  93.5405965  65.4142108  72.7021788
  92.7043277  65.7516794  73.0231063  93.4010735  65.2791088  71.7648925
  95.5159046  60.2578896  77.4100972  94.8623458  59.9427913  76.7857587
  95.4739520  59.6354636  78.1360795  96.6270251  70.5398191  69.3254264
  95.7197312  70.3087444  69.5245413  97.1241283  69.7435810  69.5128246
  99.5338329  79.2495698  72.2450950  98.8600028  79.5527395  72.8535908
  99.9204151  80.0524778  71.8956407  98.7496786  66.7460829  81.7348620
  97.8319347  66.9675776  81.5770308  99.1656930  66.8207140  80.8760327
  99.5331834  68.1452245  76.8651300 100.2803653  68.6573642  76.5558422
  99.8023423  67.8236298  77.7255694  97.8058484  70.6410786  73.8478254
  96.8969703  70.3569818  73.9450724  97.8353568  71.0609864  72.9881561
 103.0377751  74.2517375  77.6169422 102.5840079  73.4108285  77.6734612
 102.4071718  74.8878773  77.9544202 101.9810671  65.1809361  78.8470089
 101.2433428  64.6686747  79.1780332 102.2337445  64.7409743  78.0353366
 101.4810691  76.0893872  78.5519240 101.7733665  76.6498929  77.8331606
 101.9909311  76.3822433  79.3072399 102.0822298  57.9585613  79.4411859
 102.3881175  57.0982977  79.1537774 102.8074903  58.5503233  79.2410852
  88.3746654  68.3616300  77.8293456  88.1771054  67.7685660  77.1044523
  87.8193318  68.0568510  78.5469395  96.3543378  68.2539406  79.9488050
  96.4091988  67.3013243  79.8730526  95.5434580  68.4098845  80.4329348
  97.5034572  72.1819529  71.1866333  97.0654002  71.4655388  70.7271970
  98.2445013  72.4095644  70.6251424  94.2935738  66.8716466  77.7078428
  93.4803604  67.1710637  78.1143621  94.7894732  66.4772155  78.4252911
  96.4444316  76.8674223  79.6412693  96.4020495  77.0935069  78.7121225
  97.3607015  76.6337597  79.7898494  99.8909950  67.3358290  86.5393322
 100.2459337  67.5629764  87.3987788 100.5382081  67.6676667  85.9170578
 105.6207687  70.4576726  77.2442651 105.4825585  70.6478322  76.3163841
 105.2643905  71.2196109  77.7010703  93.7849813  64.4434821  83.3239663
  94.4249192  64.3023581  82.6262627  92.9527343  64.1569335  82.9478265
 105.6477066  72.5253253  82.2553923 106.0813573  72.4328542  83.1036977
 106.3608647  72.5010754  81.6173939  94.5610117  73.7437252  79.4374656
  95.3550715  73.2487572  79.2357231  93.8501809  73.2155115  79.0742361
  99.3804961  76.1255347  83.7887024  99.4341983  76.6946284  84.5564739
  98.5119742  76.2957232  83.4241061  90.8692880  67.8880334  75.5134409
  89.9390468  67.8264789  75.7304371  90.9650352  67.3656286  74.7171050
  90.7878429  64.4135146  78.1012650  91.0485246  65.3280480  77.9921811
  91.6095602  63.9459589  78.2509263  92.2603355  65.8272904  85.2711475
  92.9326408  65.6190266  84.6224124  91.4333141  65.6294990  84.8316707
 106.5092616  72.5676954  84.7886808 106.7028506  73.4722764  85.0346083
 106.4093234  72.1084373  85.6225393  98.1628927  62.4534845  87.2877136
  97.5156842  63.1524794  87.1941612  98.9329942  62.8870988  87.6553384
  98.3393061  70.2915609  85.3473955  99.2685121  70.4426769  85.1742923
  97.9184091  70.3799630  84.4922602  97.1381393  74.3166274  83.1172493
  96.9992478  73.9485058  83.9898431  96.3495989  74.8313913  82.9456451
  97.7329545  79.4175370  74.4598030  97.9081300  78.9463414  75.2743652
  97.0462333  80.0441137  74.6879290  98.6886608  73.6947877  80.5061331
  98.3536440  73.6548647  81.4018981  98.1890553  73.0292593  80.0331741
  92.6630852  69.1015507  86.0313912  92.5250650  68.3695745  86.6325451
  93.5735775  69.0124407  85.7498100 101.6245799  71.0403911  70.7798390
 101.0074970  70.3150739  70.6831443 101.1562288  71.8013271  70.4365465
  95.2913152  68.8135466  85.5197592  96.0012771  68.1728658  85.4784210
  95.2482461  69.0648361  86.4423772  94.0042086  65.8000684  87.3393231
  93.4679443  65.3491422  87.9914827  93.4158795  65.9346593  86.5963695
  92.2990630  82.5664733  81.2337890  92.5387228  83.1983257  81.9116908
  91.4559826  82.2152773  81.5203249  93.4144345  65.2589335  69.9019695
  92.5373812  65.1378136  69.5381941  93.8902098  64.4675414  69.6498583
 103.2817338  73.7142403  86.6718150 102.3944117  73.3768325  86.7944549
 103.8515889  72.9825434  86.9086916  84.9346485  70.0466495  79.9961202
  85.6217525  69.7328225  79.4082217  84.7794614  70.9507860  79.7228453
  89.7381208  64.9356692  84.4246226  89.6539396  64.3282361  83.6896635
  88.9163914  65.4265710  84.4255722  96.8118492  78.3743856  83.6379394
  96.7388663  79.1798827  84.1498698  96.3695885  78.5735821  82.8127415
  96.6008271  77.6115626  77.1482215  95.8175793  78.1537306  77.2420440
  97.3001017  78.1289605  77.5476456  99.9104922  63.4210255  79.7916421
 100.4073621  62.6680217  79.4717491  99.1391903  63.4574572  79.2259630
 107.7634679  69.1250621  81.4334712 107.7524555  70.0075336  81.0628645
 106.8952058  68.7722171  81.2389249  99.2717175  78.2730690  85.7937552
  99.9845148  78.9078154  85.7213454  98.7807204  78.3694556  84.9777554
 100.9934702  72.1781942  77.3654844 100.0590981  72.2983405  77.1959548
 101.1711371  71.2754409  77.1014854  96.4939890  65.5627638  79.5188105
  96.1237678  65.0098678  80.2069011  96.9898983  64.9585772  78.9663105
 104.3807254  68.0199262  77.9004878 104.8467706  68.8527253  77.8265181
 104.8314754  67.5544243  78.6050137  94.3229089  76.0225133  86.6143123
  95.0238548  76.6561616  86.7672517  93.8524204  76.3639865  85.8538762
 102.4483485  74.3643083  74.8991030 102.7243329  74.2499677  75.8084904
 101.5787983  73.9660568  74.8603203 102.3523916  60.3879849  81.9395779
 101.4386996  60.6184075  82.1077986 102.7817018  60.4718293  82.7909812
 102.1230375  68.5769741  84.4395674 101.4701825  68.8245648  83.7848126
 102.5010755  67.7633879  84.1058151  99.0837549  78.6129434  78.5423844
  99.2659943  77.7951090  79.0051596  99.9070535  78.8297126  78.1048734
  99.4179714  77.5397619  75.8038892  99.9467481  77.0290073  75.1909054
  99.6807934  77.2240149  76.6684425  98.1717948  69.3189552  90.9261711
  97.4958585  69.2183681  91.5964086  98.9945582  69.1628765  91.3897708
  89.9196807  75.5561488  83.5474226  90.5050244  74.8105176  83.6802130
  89.7221645  75.8665445  84.4310890  92.7735462  78.5912736  78.5636668
  92.1045837  79.0758863  78.0800708  92.6348332  78.8381956  79.4780047
  84.5114462  68.1267088  82.2678669  84.5498561  67.5930679  83.0615787
  84.0054754  67.6002294  81.6489646  96.9140731  80.6256479  85.1619327
  97.4659039  80.7888101  85.9268412  97.2546924  81.2160917  84.4899351
  91.8905224  62.9731629  85.7641211  91.9546550  63.8346460  85.3518609
  91.8272344  62.3605630  85.0313570  91.3657496  65.0454761  89.4114246
  91.9929535  64.6631839  90.0251770  90.5085415  64.8268963  89.7769938
  88.1423039  66.8531190  75.3432600  88.4376480  65.9441869  75.2899654
  87.2411075  66.8318930  75.0213603 100.0509118  78.5738455  82.1483009
  99.9260257  77.7728194  81.6393954 100.7088209  79.0684648  81.6596979
  91.6717286  64.9287187  81.3260149  90.9503872  65.5423155  81.1867622
  92.4610542  65.4644952  81.2476795 102.1144026  76.3747475  83.7762559
 101.1674362  76.2552826  83.7040886 102.4626799  75.4869973  83.8588820
  94.4743600  62.2641614  87.6000801  94.9978002  62.5103910  88.3627110
  94.2555933  63.0961648  87.1803938  89.8710881  64.5345288  75.4671926
  89.5423587  63.6542667  75.2847031  90.2250251  64.4792957  76.3548315
  99.1190460  76.1700191  79.9766911  98.9715422  75.2416898  80.1574481
  99.9443953  76.1920282  79.4923986  92.9852704  64.8218258  75.8347403
  93.3248776  65.3504179  75.1126012  93.4324824  65.1598664  76.6105970
 102.7224581  76.9928750  81.0631784 103.6471129  76.7871611  80.9256235
 102.5539885  76.7445151  81.9721125  95.6796145  63.2055309  85.2850471
  95.3392965  62.4063122  85.6871151  94.9735151  63.5057019  84.7127304
  96.3312617  60.2904621  83.7377794  97.1538686  59.8165099  83.6156685
  96.5750680  61.0695105  84.2376481  94.9720851  63.3192880  74.0340696
  95.6929214  63.6974132  73.5304413  94.3486155  64.0381756  74.1375674
  99.1151974  64.0238028  74.9699028  99.3315588  64.9062666  74.6687856
  98.6346041  63.6324242  74.2404670  93.8551195  66.9823742  81.5469773
  93.7095776  67.2964045  82.4394054  93.3776399  67.6008642  80.9940672
  95.7147578  63.9726290  81.5950662  95.7009147  63.0767383  81.2582960
  96.4320006  63.9796953  82.2288949  97.5673709  64.4063630  83.6403790
  97.3091487  65.3280701  83.6388120  97.0358749  64.0094064  84.3304254
 102.5119898  77.5114417  76.4193875 102.6856775  76.9460840  75.6667728
 103.0048789  78.3115312  76.2373365  88.3296858  69.5229086  84.4857434
  87.7850326  70.2988894  84.6177708  89.2076207  69.8699891  84.3276556
  95.1184474  62.8540670  76.8638233  95.2400385  61.9257316  77.0629120
  94.8286517  62.8679356  75.9516548  97.9875665  60.5395580  80.0004952
  98.0097361  60.6034914  79.0456932  98.4043724  59.7000089  80.1945459
 103.4995070  76.8281181  73.5190774 104.1945975  77.4487874  73.7378088
 103.8418220  75.9776533  73.7943151  89.1162879  68.6498982  87.3787591
  88.3744615  68.7981618  87.9652221  88.7955624  68.9107248  86.5154340
 105.3986493  74.2780887  75.0478104 105.9237817  74.6168160  74.3227424
 105.3108846  73.3427902  74.8641239  97.0606542  78.1914961  87.1767981
  97.3693668  77.9464107  88.0490681  97.8582024  78.3961599  86.6886851
  97.0827154  80.3452870  79.4073358  96.6432144  79.8529249  80.1006214
  97.8335271  79.8025838  79.1665433  89.5619493  76.5364411  79.4097986
  90.3877513  76.2368183  79.0296629  89.2113545  75.7672034  79.8587774
  94.5301026  75.8890879  81.4795659  93.9081036  75.2261584  81.1797887
  95.2005893  75.9152011  80.7969307  87.7628098  74.4550738  80.3686919
  86.9260006  74.0272912  80.1870920  87.7351744  74.6483181  81.3057710
  94.6025554  64.3672667  91.0728165  94.6513709  65.2434790  90.6905935
  95.1448068  63.8250060  90.4999808 105.2078274  71.7606257  87.6662031
 105.2576279  71.5956264  88.6077554 105.0992198  70.8933516  87.2759912
  94.0914533  74.4394803  74.9554120  94.2402653  75.1230267  74.3020792
  94.8980977  74.4199893  75.4703575 102.4982037  67.7437185  88.9821338
 103.3991900  67.6043650  88.6905335 102.5730011  67.9091640  89.9219515
  96.8324842  65.1204040  87.8274524  95.9628152  65.4137606  87.5557112
  97.0684323  65.7044485  88.5481787 104.9583660  69.3035813  86.3784110
 105.4337781  69.4963459  85.5702962 104.0349225  69.3594999  86.1327494
  91.8467166  70.4659980  75.9615189  91.6013208  69.5622310  76.1595399
  92.0163081  70.4677131  75.0194667  99.5363876  61.3383657  85.3439944
 100.0545820  62.0744684  85.0186433  99.1819009  61.6447650  86.1786703
  91.1162814  66.1988338  73.4601350  90.4232059  66.2732693  72.8041386
  90.8714566  65.4348682  73.9822867  99.7876470  57.7583939  80.8640841
 100.0678224  57.0907128  81.4901267 100.5727077  57.9513035  80.3515505
  97.5909939  76.9342933  72.4265867  97.0183906  77.5533120  71.9736339
  98.1642732  77.4842295  72.9605789 103.6585329  66.1801573  84.6112416
 104.6102751  66.2799671  84.6324640 103.4888779  65.3879842  85.1210500
 101.6799708  63.2657156  84.7971817 101.0849640  63.5462169  84.1018305
 101.3949405  63.7551057  85.5688558 100.8107198  77.2180083  73.5574449
 101.7437872  77.1525645  73.7607325 100.7230411  78.0536350  73.0988982
 103.4395215  76.5345954  70.5178397 103.3608847  76.2005817  71.4114155
 104.2604882  77.0267722  70.5169869 106.1373406  69.4007693  83.7254716
 106.1049726  68.4623694  83.9114399 106.7474030  69.4791730  82.9920540
  97.9756737  68.2703746  69.7681920  98.9215842  68.1409954  69.8370338
  97.5970982  67.5318408  70.2451348 106.2867895  66.1918736  83.7712999
 105.7706943  65.4077193  83.5842928 107.1707843  65.8637453  83.9359518
 103.9478622  59.9359752  79.7308811 103.7503443  59.6274840  80.6152143
 104.5578327  60.6621391  79.8606741  97.8595430  72.3221492  91.2282577
  98.7798439  72.5000091  91.4222623  97.8245013  71.3777537  91.0762276
  96.1599654  66.1953722  69.7036805  95.2531110  65.8986835  69.7799518
  96.4375635  65.8983540  68.8371091  87.0777595  67.5160086  80.1535851
  86.7580379  66.6625394  79.8610225  86.5311023  67.7308664  80.9093819
  90.8557502  70.2322527  83.8705358  91.0743512  71.1639634  83.8893392
  91.2683276  69.8730501  84.6560162  97.7761720  60.7390612  75.8581046
  96.9662448  60.3937697  76.2336292  98.4646137  60.4298156  76.4468658
  99.7052268  59.8168659  77.4805343 100.2583307  60.2364112  78.1395366
  99.9422355  58.8904407  77.5228299  95.7285368  65.8055732  93.2608107
  95.6282094  66.7550089  93.1920198  95.5106910  65.4773971  92.3884177
  94.9298439  63.0540657  69.8448784  95.7917603  63.3795556  70.1044601
  95.1148783  62.2672153  69.3321850  86.9465855  71.1362997  82.1228973
  86.2529326  70.7216950  81.6098927  87.6938846  71.1783534  81.5262392
 103.0831075  61.9269184  76.9884007 102.5029744  62.5853988  76.6062059
 102.8167008  61.1046529  76.5771425 101.5334642  61.3274242  79.1905327
 102.0334420  61.4390776  78.3819646 102.1770250  61.0235294  79.8306136
  95.5916638  69.2352871  92.0773168  95.1083719  70.0353231  92.2837057
  95.6777577  69.2460816  91.1240612  88.8602597  71.0681251  79.9994988
  88.8373285  71.1668938  79.0476871  89.1703234  71.9146402  80.3212154
  91.5189975  73.1257406  84.1141602  92.4733229  73.0941348  84.0471534
  91.3202499  72.6648030  84.9291828  92.1089357  71.6958522  86.6812400
  92.9282246  72.1902601  86.7047237  92.3826165  70.7790490  86.6529967
 101.8655953  64.0869274  76.0440355 100.9781808  64.3718925  75.8260550
 102.2809943  63.9263038  75.1967632 105.2170490  64.1115795  79.7594695
 105.9930880  64.6012248  80.0319311 104.4918624  64.5373849  80.2166564
 107.6543048  64.8243415  80.8168635 108.2487539  64.5839150  80.1061943
 107.7269632  64.1050545  81.4442171  89.8740204  78.6677025  81.1311800
  89.7394672  77.9077426  80.5649798  89.4572266  79.3917925  80.6640589
 101.0099167  73.8513949  70.1388375 101.7135017  74.0563951  70.7546031
 100.2861816  74.4190711  70.4037459 101.8396977  69.6023810  76.2590645
 101.7832179  70.0592362  75.4198278 102.3925320  68.8414495  76.0813488
 105.6501783  65.3913542  77.0840765 105.3938717  64.9910178  77.9148973
 105.0254651  66.1057336  76.9590904  93.0309330  79.5646342  81.3430243
  92.9141714  80.5091775  81.2408933  92.2101776  79.2619904  81.7316042
 102.9185864  74.2896478  72.1886835 103.7531468  73.8577677  72.0064310
 102.7570207  74.1178492  73.1163730 102.5731756  70.7928592  73.5543175
 102.5180560  70.6272863  72.6131619 101.9477812  71.5004624  73.7105364
  87.3624271  66.0296656  87.3804597  88.0083135  65.5195610  87.8691822
  87.1541423  66.7665338  87.9548022  95.8827882  60.2936701  73.1328493
  95.8706552  61.2378540  73.2896764  96.7751304  60.1106846  72.8387954
  94.0563844  80.2174604  84.5586171  94.9591091  80.2498215  84.8752666
  93.8301214  79.2875055  84.5732507  95.8117446  78.9705591  81.2196250
  94.8613077  78.9707453  81.1060622  96.1149932  78.2238325  80.7032284
  99.6980001  56.8879477  77.3874430  98.9312397  56.3337964  77.5331112
 100.1090706  56.9601346  78.2488581  91.7021762  63.1764273  91.4779611
  92.5653224  62.8201078  91.6882936  91.1287173  62.8378168  92.1655015
 104.2146661  86.6129034  78.2100428 103.6511527  86.5218971  77.4416716
 104.0999056  85.7928938  78.6902920 103.7201847  87.3689139  73.9202027
 104.4932723  86.8218126  73.7814903 104.0727246  88.2333388  74.1316488
 106.0568125  83.5281805  71.5520477 106.3093646  83.0063326  70.7903940
 105.1192684  83.3647950  71.6547161 105.7764414  85.4309911  73.7544852
 105.6600672  84.7554814  74.4225936 105.8866674  84.9442285  72.9377005
 107.7601442  79.9209958  72.4552890 107.9275844  80.7890194  72.8223361
 107.5698611  80.0837239  71.5314179 103.9689256  84.8340733  80.1555424
 103.0439753  84.7016947  80.3633116 104.2173670  85.6134953  80.6525367
 107.7390663  82.3767615  73.4399556 107.6190288  82.8224666  74.2785037
 107.0443251  82.7252933  72.8813095 101.3298067  84.4774007  80.9899213
 101.4590449  84.7308486  81.9038625 100.6495519  85.0701715  80.6703869
 107.5973273  87.5689315  78.9243557 108.0611618  87.8477018  78.1348180
 107.3330071  86.6672759  78.7416648 106.5342159  83.6912467  75.7333122
 107.2366202  84.1433511  76.2007049 106.2022787  83.0496286  76.3613015
 100.2767493  81.9496020  81.0350256  99.4866547  82.2053548  80.5590366
 100.7678740  82.7644358  81.1402296 102.2282238  82.3140599  77.9933732
 101.4313402  82.4259293  78.5117228 102.0007831  82.6527251  77.1274623
  98.5605196  82.2026510  83.4665247  98.8113234  83.0873520  83.7322823
  99.0964744  82.0231112  82.6940338 107.7735924  90.5053410  75.8095227
 107.6381598  91.3504945  76.2380075 108.3145736  90.7072687  75.0461161
 101.2265321  88.0228848  76.3823153 101.7389842  88.8172098  76.5328717
 101.8788034  87.3255138  76.3156754 103.0360206  91.1394604  78.4645906
 103.2126834  92.0612569  78.2766890 103.8317039  90.8253023  78.8940285
  99.1914238  86.3517502  77.1582723 100.0289460  86.7614510  76.9416431
  99.3692505  85.4116944  77.1282917 106.4467813  76.4827357  81.3109536
 107.3120810  76.2870165  80.9515425 106.5145322  76.2537708  82.2378893
 104.0530133  78.7129564  78.6825903 104.6273884  78.4904746  77.9499096
 104.6401115  78.7818259  79.4354504 104.3799720  80.7434025  72.7021788
 103.5437032  81.0808712  73.0231063 104.2404489  80.6083005  71.7648925
 106.3552800  75.5870813  77.4100972 105.7017213  75.2719831  76.7857587
 106.3133274  74.9646554  78.1360795 107.4664005  85.8690108  69.3254264
 106.5591067  85.6379362  69.5245413 107.9635037  85.0727728  69.5128246
  99.2140409  83.6908217  77.8293456  99.0164809  83.0977578  77.1044523
  98.6587073  83.3860428  78.5469395 107.1937133  83.5831324  79.9488050
 107.2485742  82.6305160  79.8730526 106.3828335  83.7390763  80.4329348
 105.1329492  82.2008384  77.7078428 104.3197358  82.5002554  78.1143621
 105.6288487  81.8064072  78.4252911 104.6243567  79.7726739  83.3239663
 105.2642947  79.6315498  82.6262627 103.7921098  79.4861253  82.9478265
 105.4003871  89.0729170  79.4374656 106.1944470  88.5779490  79.2357231
 104.6895564  88.5447033  79.0742361 101.7086635  83.2172251  75.5134409
 100.7784223  83.1556707  75.7304371 101.8044107  82.6948204  74.7171050
 101.6272184  79.7427064  78.1012650 101.8879001  80.6572397  77.9921811
 102.4489356  79.2751507  78.2509263 104.2538100  80.5881253  69.9019695
 103.3767566  80.4670054  69.5381941 104.7295853  79.7967331  69.6498583
  95.7740240  85.3758413  79.9961202  96.4611280  85.0620143  79.4082217
  95.6188369  86.2799777  79.7228453 100.5774962  80.2648609  84.4246226
 100.4933151  79.6574279  83.6896635  99.7557669  80.7557628  84.4255722
 107.3333645  80.8919556  79.5188105 106.9631432  80.3390596  80.2069011
 107.8292737  80.2877689  78.9663105  95.3508216  83.4559006  82.2678669
  95.3892316  82.9222597  83.0615787  94.8448509  82.9294212  81.6489646
 102.7298978  78.3023547  85.7641211 102.7940305  79.1638377  85.3518609
 102.6666099  77.6897548  85.0313570  98.9816794  82.1823108  75.3432600
  99.2770235  81.2733787  75.2899654  98.0804829  82.1610848  75.0213603
 102.5111041  80.2579105  81.3260149 101.7897626  80.8715072  81.1867622
 103.3004296  80.7936870  81.2476795 100.7104635  79.8637206  75.4671926
 100.3817341  78.9834585  75.2847031 101.0644006  79.8084875  76.3548315
 103.8246458  80.1510176  75.8347403 104.1642531  80.6796097  75.1126012
 104.2718579  80.4890582  76.6105970 107.1706371  75.6196539  83.7377794
 107.9932440  75.1457017  83.6156685 107.4144435  76.3987023  84.2376481
 105.8114606  78.6484797  74.0340696 106.5322968  79.0266050  73.5304413
 105.1879910  79.3673674  74.1375674 104.6944950  82.3115659  81.5469773
 104.5489531  82.6255962  82.4394054 104.2170153  82.9300560  80.9940672
 106.5541333  79.3018207  81.5950662 106.5402901  78.4059301  81.2582960
 107.2713761  79.3088871  82.2288949 105.9578229  78.1832588  76.8638233
 106.0794140  77.2549234  77.0629120 105.6680271  78.1971274  75.9516548
 100.4013248  91.8656329  79.4097986 101.2271267  91.5660101  79.0296629
 100.0507300  91.0963951  79.8587774  98.6021853  89.7842655  80.3686919
  97.7653761  89.3564830  80.1870920  98.5745498  89.9775099  81.3057710
 104.9308288  89.7686720  74.9554120 105.0796408  90.4522185  74.3020792
 105.7374731  89.7491810  75.4703575 102.6860921  85.7951898  75.9615189
 102.4406963  84.8914228  76.1595399 102.8556835  85.7969048  75.0194667
 101.9556568  81.5280256  73.4601350 101.2625813  81.6024611  72.8041386
 101.7108320  80.7640599  73.9822867 106.9993409  81.5245640  69.7036805
 106.0924864  81.2278753  69.7799518 107.2769390  81.2275458  68.8371091
  97.9171349  82.8452003  80.1535851  97.5974134  81.9917312  79.8610225
  97.3704777  83.0600581  80.9093819 105.7692193  78.3832575  69.8448784
 106.6311357  78.7087473  70.1044601 105.9542538  77.5964071  69.3321850
  97.7859609  86.4654915  82.1228973  97.0923081  86.0508868  81.6098927
  98.5332600  86.5075451  81.5262392  99.6996352  86.3973169  79.9994988
  99.6767040  86.4960856  79.0476871 100.0096988  87.2438319  80.3212154
 106.7221636  75.6228618  73.1328493 106.7100306  76.5670458  73.2896764
 107.6145058  75.4398764  72.8387954  48.9415613  -1.7440815  67.9583196
  49.1812211  -1.1122291  68.6362215  48.0984810  -2.0952775  68.2448556
  60.8571645   2.3023486  64.9345734  60.2936510   2.2113423  64.1662022
  60.7424040   1.4823390  65.4148227  58.4036077   3.7974677  67.7729955
  59.1957369   3.4565502  67.3576254  58.6432727   3.9069652  68.6932108
  66.4371203   5.9694453  60.2460199  65.7859183   6.5548534  59.8594213
  67.2315566   6.5000648  60.3055237  60.3626831   3.0583591  60.6447334
  61.1357707   2.5112578  60.5060209  60.7152229   3.9227840  60.8561795
  62.2011873   4.3859973  73.8514233  61.9101739   5.2905604  73.7360899
  62.8368857   4.4276500  74.5658303  63.1268080   1.7636821  70.4415593
  63.7231652   1.5392844  69.7272556  63.1843051   1.0221567  71.0441040
  67.9146469   3.6584885  60.7829184  67.2792302   3.7319512  61.4950088
  67.5843875   4.2478484  60.1048263  62.4189397   1.1204363  60.4790159
  62.3025655   0.4449266  61.1471243  62.5291657   0.6336737  59.6622312
  67.1601758   4.0721388  70.8464027  66.8602481   4.9746427  70.7379834
  66.8152818   3.8053572  71.6985180  60.6114240   0.5235185  66.8800731
  59.6864736   0.3911399  67.0878423  60.8598653   1.3029404  67.3770673
  57.9723051   0.1668459  67.7144520  58.1015432   0.4202938  68.6283932
  57.2920502   0.7596167  67.3949175  62.1422538  10.8365709  63.8134994
  62.0646568  11.7873534  63.8923475  61.5384182  10.4911581  64.4709921
  62.8886140   0.8179027  76.0314328  63.6300824   1.3564071  75.7549152
  62.1823126   1.4445316  76.1885880  68.3641480   2.9608168  74.6286490
  68.7724836   2.5190578  73.8841122  67.6418741   2.3860795  74.8820683
  68.6870294   3.5209359  68.3838779  68.0579157   3.6855073  67.6814846
  68.2995956   3.9350968  69.1549743  72.5659526   4.4563796  65.7383142
  71.8810564   4.8362698  65.1880176  72.6503376   5.0659123  66.4715090
  64.2398256   3.2583767  65.6488864  64.7036602   3.5371470  64.8593486
  63.9755054   2.3567211  65.4661954  61.1322337   2.8055248  68.5868627
  61.7023694   3.2342517  67.9486111  61.7230449   2.5237833  69.2852813
  70.9356286   4.9795711  70.5100843  71.7573730   4.5775898  70.2283525
  70.9318689   4.8763945  71.4616959  64.7012889   4.5279754  72.6661554
  64.7657322   4.9900161  73.5019726  63.9923813   3.8977119  72.7943864
  55.2030179  -2.1079038  70.1910553  55.4538218  -1.2232028  70.4568129
  55.7389728  -2.2874436  69.4185645  64.4160907   6.1947862  62.5340534
  64.2806582   7.0399397  62.9625382  64.9570719   6.3967139  61.7706468
  57.8690304   3.7123300  63.1068459  58.3814825   4.5066550  63.2574024
  58.5213017   3.0149590  63.0402061  59.6785189   6.8289056  65.1891212
  59.8551817   7.7507021  65.0012196  60.4742023   6.5147475  65.6185592
  66.0429383   6.8171428  76.6640876  65.5993237   6.0307807  76.3461781
  66.7046597   7.0050579  75.9984767  60.8016504   8.3467230  71.1901555
  61.3523930   8.2184293  70.4178549  59.9627980   8.6462119  70.8396447
  68.1410621   7.0974228  74.6922277  68.1229097   7.9183109  74.2002547
  69.0630541   6.9728303  74.9172419  64.5983676   4.6118358  75.5345786
  65.1312012   3.8506646  75.3045094  64.0697757   4.3192009  76.2769940
  55.8339221   2.0411954  63.8828030  56.6714443   2.4508962  63.6661737
  56.0117489   1.1011396  63.8528224  65.9636388   3.7404350  63.0464598
  65.4357750   3.0057110  62.7337835  65.4623891   4.5179026  62.8004566
  64.1088988   1.5584560  56.0499571  63.2016050   1.3273814  56.2490720
  64.6060020   0.7622180  56.2373552  67.0157067  10.2682068  58.9696257
  66.3418766  10.5713764  59.5781215  67.4022889  11.0711148  58.6201714
  65.2877222   1.6597155  60.5723561  64.3788441   1.3756188  60.6696031
  65.3172306   2.0796234  59.7126868  70.5196489   5.2703745  64.3414728
  70.0658816   4.4294655  64.3979919  69.8890456   5.9065143  64.6789509
  68.9629428   7.1080241  65.2764547  69.2552403   7.6685298  64.5576912
  69.4728049   7.4008802  66.0317706  55.8565392  -0.6197331  64.5538763
  55.6589792  -1.2127970  63.8289830  55.3012056  -0.9245121  65.2714702
  64.9853310   3.2005899  57.9111639  64.5472740   2.4841758  57.4517277
  65.7263750   3.4282014  57.3496731  63.9263054   7.8860592  66.3658000
  63.8839232   8.1121439  65.4366532  64.8425753   7.6523967  66.5143801
  62.0428854   4.7623621  66.1619963  62.8369453   4.2673942  65.9602538
  61.3320547   4.2341485  65.7987668  66.8623699   7.1441717  70.5132330
  66.9160721   7.7132653  71.2810046  65.9938480   7.3143602  70.1486367
  69.0526462   3.7370066  77.0872996  68.9011969   3.5080618  76.1703079
  69.0431142   4.6940668  77.1004341  65.8211799   1.3101979  72.0719262
  66.7503859   1.4613139  71.8988229  65.4002829   1.3986000  71.2167909
  64.6200130   5.3352643  69.8417800  64.4811216   4.9671428  70.7143738
  63.8314727   5.8500283  69.6701757  65.2148282  10.4361740  61.1843336
  65.3900038   9.9649783  61.9988959  64.5281070  11.0627506  61.4124597
  66.1705346   4.7134246  67.2306637  65.8355178   4.6735016  68.1264287
  65.6709291   4.0478962  66.7577048  60.1449590   0.1201876  72.7559219
  60.0069387  -0.6117885  73.3570758  61.0554513   0.0310776  72.4743406
  70.7618669   6.7689189  75.1649477  70.7031215   6.0848409  74.4980060
  71.1638187   7.5108179  74.7130103  59.7809368  13.5851103  67.9583196
  60.0205966  14.2169627  68.6362215  58.9378564  13.2339143  68.2448556
  70.7636076   4.7328773  73.3963457  69.8762855   4.3954695  73.5189856
  71.3334627   4.0011804  73.6332223  52.4165223   1.0652865  66.7206509
  53.1036263   0.7514595  66.1327524  52.2613352   1.9694229  66.4473760
  64.2937230   9.3930225  70.3624700  64.2207401  10.1985197  70.8744005
  63.8514623   9.5922191  69.5372722  64.0827009   8.6301995  63.8727522
  63.2994531   9.1723675  63.9665746  64.7819754   9.1475975  64.2721763
  66.7535913   9.2917059  72.5182859  67.4663885   9.9264524  72.4458760
  66.2625942   9.3880925  71.7022861  68.4753440   3.1968312  64.0900151
  67.5409719   3.3169774  63.9204855  68.6530108   2.2940779  63.8260160
  61.8047827   7.0411503  73.3388430  62.5057286   7.6747986  73.4917824
  61.3342942   7.3826234  72.5784069  69.9302222   5.3829452  61.6236337
  70.2062066   5.2686047  62.5330211  69.0606721   4.9846937  61.5848510
  66.5656286   9.6315803  65.2669150  66.7478681   8.8137459  65.7296903
  67.3889272   9.8483496  64.8294040  66.8998452   8.5583988  62.5284199
  67.4286218   8.0476443  61.9154361  67.1626672   8.2426519  63.3929732
  57.4015545   6.5747858  70.2719532  57.9868981   5.8291546  70.4047437
  57.2040383   6.8851814  71.1556196  60.2554200   9.6099105  65.2881975
  59.5864575  10.0945233  64.8046015  60.1167070   9.8568326  66.2025353
  51.9933199  -0.8546542  68.9923976  52.0317299  -1.3882951  69.7861094
  51.4873492  -1.3811337  68.3734953  64.3959468  11.6442849  71.8864633
  64.9477777  11.8074470  72.6513718  64.7365662  12.2347286  71.2144658
  69.2470343   6.4704106  77.7413288  69.7910247   7.0834064  77.2468242
  68.6657188   7.0283685  78.2580301  67.5327856   9.5924824  68.8728315
  67.4078995   8.7914564  68.3639261  68.1906947  10.0871017  68.3842285
  69.5962764   7.3933844  70.5007865  68.6493100   7.2739195  70.4286192
  69.9445537   6.5056342  70.5834127  66.6009197   7.1886560  66.7012218
  66.4534160   6.2603268  66.8819788  67.4262691   7.2106651  66.2169293
  70.2043319   8.0115119  67.7877090  71.1289867   7.8057980  67.6501542
  70.0358623   7.7631520  68.6966432  69.9938636   8.5300787  63.1439182
  70.1675513   7.9647209  62.3913034  70.4867527   9.3301681  62.9618672
  55.8115595   0.5415456  71.2102741  55.2669063   1.3175264  71.3423015
  56.6894945   0.8886260  71.0521862  70.9813808   7.8467551  60.2436080
  71.6764713   8.4674244  60.4623395  71.3236958   6.9962902  60.5188458
  56.5981617  -0.3314648  74.1032898  55.8563353  -0.1832013  74.6897528
  56.2774361  -0.0706382  73.2399647  72.8805231   5.2967257  61.7723411
  73.4056555   5.6354529  61.0472731  72.7927584   4.3614272  61.5886546
  64.5425280   9.2101330  73.9013288  64.8512406   8.9650477  74.7735987
  65.3400762   9.4147969  73.4132158  64.5645892  11.3639240  66.1318664
  64.1250882  10.8715619  66.8251521  65.3154009  10.8212207  65.8910739
  57.0438231   7.5550781  66.1343292  57.8696251   7.2554553  65.7541936
  56.6932283   6.7858403  66.5833081  62.0119764   6.9077249  68.2040966
  61.3899773   6.2447954  67.9043194  62.6824631   6.9338381  67.5214614
  55.2446836   5.4737107  67.0932226  54.4078744   5.0459281  66.9116227
  55.2170481   5.6669550  68.0303017  72.5699137   5.9300160  77.0774609
  71.7794681   5.9124299  76.5379108  72.3332492   6.4688454  77.8323646
  61.5733271   5.4581172  61.6799426  61.7221391   6.1416637  61.0266099
  62.3799714   5.4386262  62.1948882  74.1915209   5.1989568  74.6349359
  73.9000017   5.5619549  75.4712820  73.5787340   4.4856576  74.4562691
  59.3285904   1.4846350  62.6860495  59.0831946   0.5808680  62.8840705
  59.4981818   1.4863500  61.7439973  65.0728676   7.9529303  59.1511174
  64.5002644   8.5719490  58.6981646  65.6461470   8.5028664  59.6851096
  68.2925936   8.2366453  60.2819756  69.2256609   8.1712014  60.4852632
  68.2049149   9.0722720  59.8234289  70.9213953   7.5532323  57.2423704
  70.8427584   7.2192187  58.1359462  71.7423620   8.0454091  57.2415176
  65.3414167   3.3407862  77.9527883  66.2617177   3.5186461  78.1467930
  65.3063751   2.3963907  77.8007583  54.5596332  -1.4653545  66.8781158
  54.2399117  -2.3188237  66.5855532  54.0129761  -1.2504967  67.6339125
  58.3376240   1.2508896  70.5950664  58.5562250   2.1826004  70.6138698
  58.7502014   0.8916871  71.3805468  54.4284592   2.1549367  68.8474279
  53.7348064   1.7403320  68.3344234  55.1757583   2.1969903  68.2507698
  63.0735375   0.2539241  78.8018475  62.5902457   1.0539601  79.0082364
  63.1596314   0.2647186  77.8485919  56.3421335   2.0867621  66.7240294
  56.3192023   2.1855308  65.7722177  56.6521971   2.9332771  67.0457460
  59.0008713   4.1443776  70.8386909  59.9551966   4.1127718  70.7716840
  58.8021236   3.6834399  71.6537135  59.5908095   2.7144892  73.4057706
  60.4100984   3.2088970  73.4292544  59.8644903   1.7976860  73.3775274
  57.3558942   9.6863395  67.8557107  57.2213410   8.9263796  67.2895105
  56.9391004  10.4104295  67.3885896  68.4917905   4.8700319  56.8633682
  69.1953755   5.0750321  57.4791338  67.7680553   5.4377080  57.1282765
  60.5128068  10.5832712  68.0675549  60.3960452  11.5278145  67.9654240
  59.6920514  10.2806274  68.4561349  70.4004602   5.3082848  58.9132142
  71.2350206   4.8764046  58.7309617  70.2388945   5.1364861  59.8409036
  67.3696401   4.1163873  79.6042044  68.2387561   4.2904525  79.2428679
  66.8903153   4.9358290  79.4817773  61.5382582  11.2360974  71.2831478
  62.4409828  11.2684584  71.5997973  61.3119952  10.3061425  71.2977814
  63.2936184   9.9891960  67.9441556  62.3431815   9.9893822  67.8305929
  63.5968670   9.2424695  67.4277591  79.0288877  15.8252499  69.0087319
  79.6667287  15.7059246  68.3050659  78.9109720  16.7733343  69.0675271
  75.8378583  15.7779927  68.9448843  75.4997095  15.6620992  68.0569378
  76.7068352  15.3771092  68.9249850  71.6965399  17.6315403  64.9345734
  71.1330264  17.5405340  64.1662022  71.5817794  16.8115308  65.4148227
  76.3198366  16.9314779  74.9035049  76.3087007  16.5367577  74.0315553
  76.4819006  16.1980851  75.4968820  69.2429831  19.1266595  67.7729955
  70.0351123  18.7857420  67.3576254  69.4826481  19.2361570  68.6932108
  77.2764958  21.2986371  60.2460199  76.6252938  21.8840452  59.8594213
  78.0709321  21.8292566  60.3055237  71.2020585  18.3875508  60.6447334
  71.9751461  17.8404495  60.5060209  71.5545984  19.2519758  60.8561795
  73.0405628  19.7151891  73.8514233  72.7495494  20.6197521  73.7360899
  73.6762612  19.7568418  74.5658303  73.9661834  17.0928739  70.4415593
  74.5625407  16.8684761  69.7272556  74.0236806  16.3513485  71.0441040
  73.5386863  14.5468174  58.2765784  73.7912384  14.0249696  57.5149247
  72.6011422  14.3834320  58.3792467  78.5830146  13.5503953  66.0840527
  79.3693235  13.1323376  65.7330944  78.8468850  14.4550045  66.2522175
  78.7540223  18.9876803  60.7829184  78.1186056  19.0611430  61.4950088
  78.4237629  19.5770402  60.1048263  83.9838573  13.4879186  66.9873505
  84.7163745  12.9178403  67.2211335  83.2277928  13.1000786  67.4280011
  73.2583152  16.4496280  60.4790159  73.1419410  15.7741184  61.1471243
  73.3685411  15.9628654  59.6622312  75.6014693  15.9106427  64.1836848
  75.2372900  15.3837048  64.8949769  76.4581808  15.5204896  64.0103333
  81.5063993   7.2000760  71.4468114  81.1747318   8.0696171  71.2229329
  80.9109607   6.8837044  72.1262144  75.2420179  10.9396327  59.1798196
  75.4094582  11.8076564  59.5468667  75.0517349  11.1023609  58.2559486
  77.9995513  19.4013306  70.8464027  77.6996236  20.3038345  70.7379834
  77.6546572  19.1345489  71.6985180  71.4507994  15.8527103  66.8800731
  70.5258491  15.7203317  67.0878423  71.6992407  16.6321322  67.3770673
  81.3992656  11.9195846  68.5261464  80.4909534  11.8511255  68.2320225
  81.3480252  12.3967791  69.3543289  75.2209400  13.3953985  60.1644863
  75.1009026  13.8411035  61.0030343  74.5261989  13.7439302  59.6058401
  68.8116805  15.4960376  67.7144520  68.9409186  15.7494855  68.6283932
  68.1314256  16.0888084  67.3949175  72.9816292  26.1657626  63.8134994
  72.9040322  27.1165451  63.8923475  72.3777936  25.8203499  64.4709921
  75.4733522  13.3385492  76.4696361  74.6966856  13.8979412  76.4599226
  76.1124085  13.8242275  76.9911231  83.2654303  10.1212285  70.3039338
  82.6228683  10.4144818  69.6579132  82.7609231  10.0065205  71.1092535
  80.9194467  13.8675458  60.9925197  81.8312323  14.1002845  60.8172895
  80.4104114  14.4512502  60.4300276  73.7279895  16.1470945  76.0314328
  74.4694579  16.6855989  75.7549152  73.0216880  16.7737234  76.1885880
  79.2035234  18.2900086  74.6286490  79.6118590  17.8482496  73.8841122
  78.4812496  17.7152713  74.8820683  75.5566304  13.2272692  72.0020047
  76.4027499  13.6512106  72.1454696  75.4964942  12.5706317  72.6958610
  79.5264049  18.8501276  68.3838779  78.8972911  19.0146990  67.6814846
  79.1389711  19.2642886  69.1549743  83.4053281  19.7855714  65.7383142
  82.7204319  20.1654615  65.1880176  83.4897130  20.3951041  66.4715090
  78.7065750  10.8877061  73.6601220  78.4626681  11.6419121  73.1235496
  78.9825680  11.2662408  74.4948467  80.6604212  17.4315673  72.3378486
  80.8721108  18.0747433  71.6612867  80.6133961  16.5977990  71.8700416
  78.2630441  10.0433494  69.2415058  77.4014920  10.3414747  69.5331796
  78.2892876  10.2603893  68.3096091  75.0792011  18.5875684  65.6488864
  75.5430356  18.8663387  64.8593486  74.8148809  17.6859129  65.4661954
  71.9716092  18.1347166  68.5868627  72.5417449  18.5634434  67.9486111
  72.5624204  17.8529751  69.2852813  74.0160897  14.7098837  62.4578429
  74.7184940  15.1619880  62.9252355  73.6841525  14.0682656  63.0858322
  72.4641258  13.3010593  76.8329638  71.8339919  13.9826874  77.0665035
  72.3577346  13.1893675  75.8882776  67.7586231  12.9682389  67.7595562
  66.9685285  13.2239918  67.2835673  68.2497478  13.7830727  67.8647603
  81.7750040  20.3087629  70.5100843  82.5967484  19.9067816  70.2283525
  81.7712443  20.2055863  71.4616959  69.7100976  13.3326969  64.7179039
  68.9132139  13.4445663  65.2362535  69.4826568  13.6713621  63.8519930
  75.5406644  19.8571672  72.6661554  75.6051076  20.3192079  73.5019726
  74.8317568  19.2269037  72.7943864  66.0423934  13.2212880  70.1910553
  66.2931972  14.1059890  70.4568129  66.5783482  13.0417481  69.4185645
  89.8656033  16.6526377  66.8585815  89.1119742  16.0833775  66.7029819
  90.0003575  16.6189042  67.8056449  75.2554661  21.5239779  62.5340534
  75.1200336  22.3691315  62.9625382  75.7964474  21.7259057  61.7706468
  71.7422001   7.6031359  79.1954889  71.3488947   7.0497558  79.8702534
  72.5588141   7.9141938  79.5861407  68.7084059  19.0415217  63.1068459
  69.2208579  19.8358468  63.2574024  69.3606772  18.3441508  63.0402061
  70.5178943  22.1580974  65.1891212  70.6945572  23.0798938  65.0012196
  71.3135777  21.8439393  65.6185592  74.6589962   9.0189238  76.7875146
  75.3999675   9.6196391  76.7079608  74.8907885   8.2766876  76.2293188
  69.8031300  14.2045606  75.0653376  69.6884815  13.3030863  75.3660474
  68.9475818  14.4509302  74.7138192  76.8823138  22.1463346  76.6640876
  76.4386992  21.3599724  76.3461781  77.5440351  22.3342496  75.9984767
  71.6410259  23.6759147  71.1901555  72.1917684  23.5476211  70.4178549
  70.8021735  23.9754036  70.8396447  78.9804376  22.4266146  74.6922277
  78.9622851  23.2475027  74.2002547  79.9024296  22.3020221  74.9172419
  75.4377430  19.9410275  75.5345786  75.9705767  19.1798563  75.3045094
  74.9091511  19.6483927  76.2769940  66.6732976  17.3703872  63.8828030
  67.5108198  17.7800880  63.6661737  66.8511243  16.4303314  63.8528224
  78.5697408  15.0378952  59.5711863  78.0544031  15.8083557  59.8100250
  78.2974716  14.3644088  60.1944924  76.1544519   9.8828653  64.6297101
  75.2986115   9.4935503  64.4502740  76.5671470   9.9620614  63.7696887
  77.6843665   7.4174996  69.0288661  77.1808461   7.3805132  68.2156466
  77.9774272   8.3267739  69.0885317  73.9286551   7.5013726  68.0354843
  74.7939548   7.3056535  67.6760732  73.9964060   7.2724078  68.9624199
  83.5431682  17.7911307  61.5065036  82.7661125  17.4522466  61.0620198
  84.2223163  17.7963930  60.8320001  78.3583711  12.9106044  61.3971644
  78.0533846  13.2252194  62.2481787  79.3114153  12.9887464  61.4398977
  76.8030143  19.0696268  63.0464598  76.2751504  18.3349027  62.7337835
  76.3017645  19.8470944  62.8004566  81.7822989  17.2645288  68.1631644
  81.1246663  17.9544550  68.2511773  82.5863388  17.6541720  68.5065630
  71.5348870   9.7315934  65.4071209  72.1092622   9.5091116  64.6744402
  72.1219853   9.8004629  66.1599811  80.5928448  15.6189661  66.2135586
  81.1060329  16.2519653  66.7157296  81.2429671  15.0190856  65.8478946
  71.8618457  11.7620395  59.4267095  71.0255770  12.0995082  59.7476369
  71.7223227  11.6269375  58.4894232  73.8371538   6.6057183  64.1346279
  73.1835950   6.2906200  63.5102894  73.7952012   5.9832923  64.8606102
  74.9482743  16.8876478  56.0499571  74.0409805  16.6565731  56.2490720
  75.4453775  16.0914097  56.2373552  77.8550822  25.5973985  58.9696257
  77.1812521  25.9005682  59.5781215  78.2416644  26.4003066  58.6201714
  77.0709278  13.0939116  68.4593926  76.1531840  13.3154063  68.3015614
  77.4869422  13.1685427  67.6005634  77.8544326  14.4930532  63.5896607
  78.6016145  15.0051929  63.2803729  78.1235916  14.1714585  64.4501000
  76.1270976  16.9889073  60.5723561  75.2182196  16.7048106  60.6696031
  76.1566060  17.4088151  59.7126868  81.3590244  20.5995662  64.3414728
  80.9052571  19.7586572  64.3979919  80.7284210  21.2357061  64.6789509
  80.3023163  11.5287648  65.5715396  79.5645920  11.0165035  65.9025639
  80.5549937  11.0888030  64.7598673  79.8023183  22.4372159  65.2764547
  80.0946157  22.9977216  64.5576912  80.3121804  22.7300720  66.0317706
  66.6959147  14.7094587  64.5538763  66.4983547  14.1163948  63.8289830
  66.1405811  14.4046797  65.2714702  74.6755870  14.6017693  66.6733356
  74.7304480  13.6491530  66.5975833  73.8647072  14.7577133  67.1574655
  75.8247064  18.5297817  57.9111639  75.3866494  17.8133675  57.4517277
  76.5657505  18.7573931  57.3496731  72.6148230  13.2194753  64.4323735
  71.8016096  13.5188924  64.8388927  73.1107224  12.8250442  65.1498217
  74.7656808  23.2152510  66.3658000  74.7232987  23.4413356  65.4366532
  75.6819507  22.9815885  66.5143801  78.2122442  13.6836578  73.2638629
  78.5671830  13.9108051  74.1233095  78.8594573  14.0154954  72.6415884
  83.9420179  16.8055014  63.9687958  83.8038077  16.9956610  63.0409147
  83.5856398  17.5674396  64.4256009  72.1062305  10.7913109  70.0484970
  72.7461684  10.6501868  69.3507933  71.2739836  10.5047622  69.6723572
  83.9689559  18.8731541  68.9799230  84.4026065  18.7806830  69.8282284
  84.6821139  18.8489041  68.3419246  72.8822609  20.0915539  66.1619963
  73.6763207  19.5965859  65.9602538  72.1714301  19.5633402  65.7987668
  77.7017453  22.4733635  70.5132330  77.7554476  23.0424571  71.2810046
  76.8332235  22.6435520  70.1486367  69.1905372  14.2358621  62.2379715
  68.2602961  14.1743076  62.4549677  69.2862844  13.7134574  61.4416356
  69.1090921  10.7613434  64.8257957  69.3697739  11.6758767  64.7167117
  69.9308094  10.2937876  64.9754570  70.5815847  12.1751191  71.9956781
  71.2538900  11.9668553  71.3469430  69.7545633  11.9773277  71.5562014
  84.8305108  18.9155241  71.5132115  85.0240998  19.8201052  71.7591390
  84.7305726  18.4562660  72.3470700  76.4841419   8.8013132  74.0122442
  75.8369334   9.5003081  73.9186919  77.2542434   9.2349276  74.3798690
  79.8920217  19.0661984  77.0872996  79.7405723  18.8372536  76.1703079
  79.8824896  20.0232585  77.1004341  76.6605553  16.6393897  72.0719262
  77.5897613  16.7905056  71.8988229  76.2396583  16.7277918  71.2167909
  75.4593885  20.6644561  69.8417800  75.3204971  20.2963346  70.7143738
  74.6708481  21.1792201  69.6701757  76.0542037  25.7653658  61.1843336
  76.2293793  25.2941701  61.9988959  75.3674825  26.3919424  61.4124597
  77.0099100  20.0426164  67.2306637  76.6748933  20.0026934  68.1264287
  76.5103046  19.3770880  66.7577048  70.9843344  15.4493794  72.7559219
  70.8463142  14.7174033  73.3570758  71.8948268  15.3602694  72.4743406
  79.9458292  17.3882198  57.5043697  79.3287462  16.6629026  57.4076750
  79.4774780  18.1491558  57.1610771  73.6125645  15.1613753  72.2442898
  74.3225263  14.5206945  72.2029517  73.5694953  15.4126648  73.1669079
  81.6012423  22.0981107  75.1649477  81.5424970  21.4140327  74.4980060
  82.0031942  22.8400097  74.7130103  72.3254579  12.1478971  74.0638538
  71.7891936  11.6969710  74.7160134  71.7371287  12.2824880  73.3209002
  70.6203122  28.9143020  67.9583196  70.8599720  29.5461545  68.6362215
  69.7772319  28.5631060  68.2448556  71.7356838  11.6067622  56.6265001
  70.8586304  11.4856423  56.2627248  72.2114591  10.8153701  56.3743890
  81.6029831  20.0620690  73.3963457  80.7156609  19.7246612  73.5189856
  82.1728382  19.3303722  73.6332223  63.2558978  16.3944782  66.7206509
  63.9430018  16.0806512  66.1327524  63.1007106  17.2986147  66.4473760
  68.0593700  11.2834979  71.1491532  67.9751889  10.6760648  70.4141942
  67.2376406  11.7743997  71.1501029  75.1330984  24.7222143  70.3624700
  75.0601156  25.5277114  70.8744005  74.6908377  24.9214109  69.5372722
  74.9220764  23.9593913  63.8727522  74.1388286  24.5015593  63.9665746
  75.6213509  24.4767892  64.2721763  78.2317414   9.7688542  66.5161727
  78.7286113   9.0158505  66.1962797  77.4604395   9.8052859  65.9504937
  86.0847171  15.4728908  68.1580019  86.0737047  16.3553623  67.7873952
  85.2164551  15.1200459  67.9634556  77.5929668  24.6208977  72.5182859
  78.3057640  25.2556442  72.4458760  77.1019696  24.7172843  71.7022861
  79.3147194  18.5260230  64.0900151  78.3803473  18.6461692  63.9204855
  79.4923863  17.6232696  63.8260160  74.8152383  11.9105925  66.2433412
  74.4450170  11.3576966  66.9314317  75.3111475  11.3064059  65.6908412
  82.7019746  14.3677549  64.6250185  83.1680198  15.2005540  64.5510487
  83.1527246  13.9022530  65.3295443  72.6441581  22.3703420  73.3388430
  73.3451041  23.0039903  73.4917824  72.1736696  22.7118152  72.5784069
  80.7695977  20.7121370  61.6236337  81.0455821  20.5977965  62.5330211
  79.9000476  20.3138855  61.5848510  80.6736409   6.7358136  68.6641086
  79.7599488   6.9662363  68.8323293  81.1029510   6.8196580  69.5155118
  80.4442867  14.9248028  71.1640980  79.7914317  15.1723935  70.5093433
  80.8223247  14.1112166  70.8303457  77.4050041  24.9607721  65.2669150
  77.5872435  24.1429377  65.7296903  78.2283027  25.1775413  64.8294040
  77.7392206  23.8875906  62.5284199  78.2679973  23.3768361  61.9154361
  78.0020426  23.5718436  63.3929732  76.4930440  15.6667839  77.6507017
  75.8171077  15.5661968  78.3209392  77.3158074  15.5107053  78.1143014
  68.2409299  21.9039775  70.2719532  68.8262736  21.1583463  70.4047437
  68.0434138  22.2143732  71.1556196  71.0947954  24.9391023  65.2881975
  70.4258330  25.4237150  64.8046015  70.9560824  25.1860243  66.2025353
  62.8326954  14.4745376  68.9923976  62.8711053  13.9408966  69.7861094
  62.3267247  13.9480581  68.3734953  75.2353223  26.9734766  71.8864633
  75.7871531  27.1366388  72.6513718  75.5759416  27.5639204  71.2144658
  70.2117716   9.3209916  72.4886518  70.2759043  10.1824747  72.0763916
  70.1484836   8.7083918  71.7558876  69.6869989  11.3933049  76.1359552
  70.3142028  11.0110126  76.7497077  68.8297908  11.1747251  76.5015245
  80.0864097  21.7996024  77.7413288  80.6304001  22.4125982  77.2468242
  79.5050942  22.3575602  78.2580301  66.4635531  13.2009478  62.0677907
  66.7588973  12.2920156  62.0144961  65.5623567  13.1797217  61.7458909
  78.3721610  24.9216742  68.8728315  78.2472750  24.1206482  68.3639261
  79.0300701  25.4162935  68.3842285  69.9929778  11.2765474  68.0505456
  69.2716364  11.8901442  67.9112929  70.7823034  11.8123239  67.9722102
  80.4356519  22.7225762  70.5007865  79.4886854  22.6031113  70.4286192
  80.7839292  21.8348260  70.5834127  72.7956092   8.6119901  74.3246107
  73.3190494   8.8582197  75.0872417  72.5768425   9.4439936  73.9049245
  68.1923373  10.8823575  62.1917232  67.8636079  10.0020954  62.0092338
  68.5462744  10.8271244  63.0793621  77.4402952  22.5178478  66.7012218
  77.2927914  21.5895186  66.8819788  78.2656445  22.5398569  66.2169293
  71.3065196  11.1696545  62.5592710  71.6461269  11.6982466  61.8371318
  71.7537317  11.5076951  63.3351276  81.0437074  23.3407037  67.7877090
  81.9683621  23.1349898  67.6501542  80.8752377  23.0923438  68.6966432
  74.0008637   9.5533596  72.0095778  73.6605457   8.7541409  72.4116458
  73.2947643   9.8535307  71.4372611  74.6525109   6.6382908  70.4623101
  75.4751178   6.1643387  70.3401991  74.8963172   7.4173392  70.9621787
  73.2933343   9.6671167  60.7586003  74.0141706  10.0452420  60.2549719
  72.6698647  10.3860044  60.8620981  77.4364466  10.3716316  61.6944335
  77.6528081  11.2540954  61.3933163  76.9558533   9.9802529  60.9649977
  72.1763688  13.3302029  68.2715080  72.0308268  13.6442332  69.1639361
  71.6988891  13.9486929  67.7185978  74.0360071  10.3204577  68.3195969
  74.0221639   9.4245670  67.9828267  74.7532499  10.3275241  68.9534255
  75.8886201  10.7541917  70.3649097  75.6303979  11.6758988  70.3633427
  75.3571242  10.3572352  71.0549561  80.8332390  23.8592704  63.1439182
  81.0069268  23.2939127  62.3913034  81.3261281  24.6593599  62.9618672
  66.6509350  15.8707373  71.2102741  66.1062818  16.6467181  71.3423015
  67.5288700  16.2178178  71.0521862  73.4396966   9.2018957  63.5883539
  73.5612878   8.2735603  63.7874427  73.1499009   9.2157643  62.6761855
  76.3088157   6.8873868  66.7250259  76.3309854   6.9513201  65.7702239
  76.7256216   6.0478376  66.9190765  86.6871781  16.6229127  64.7629482
  87.1302927  15.8736452  64.3648605  85.8098291  16.6139264  64.3803214
  81.8207562  23.1759469  60.2436080  82.5158467  23.7966161  60.4623395
  82.1630713  22.3254820  60.5188458  67.4375372  14.9977270  74.1032898
  66.6957108  15.1459905  74.6897528  67.1168116  15.2585535  73.2399647
  83.7198986  20.6259174  61.7723411  84.2450310  20.9646447  61.0472731
  83.6321338  19.6906190  61.5886546  75.3819034  24.5393248  73.9013288
  75.6906161  24.2942395  74.7735987  76.1794516  24.7439886  73.4132158
  75.4039646  26.6931157  66.1318664  74.9644637  26.2007536  66.8251521
  76.1547763  26.1504125  65.8910739  67.8831985  22.8842698  66.1343292
  68.7090005  22.5846470  65.7541936  67.5326037  22.1150321  66.5833081
  72.8513519  22.2369167  68.2040966  72.2293528  21.5739872  67.9043194
  73.5218385  22.2630298  67.5214614  66.0840590  20.8029025  67.0932226
  65.2472499  20.3751199  66.9116227  66.0564236  20.9961468  68.0303017
  72.9238046  10.7150955  77.7973472  72.9726201  11.5913077  77.4151241
  73.4660560  10.1728348  77.2245115  83.4092892  21.2592078  77.0774609
  82.6188435  21.2416217  76.5379108  83.1726246  21.7980372  77.8323646
  83.5290767  18.1084544  74.3907337  83.5788772  17.9434552  75.3322860
  83.4204690  17.2411803  74.0005218  72.4127025  20.7873090  61.6799426
  72.5615146  21.4708554  61.0266099  73.2193469  20.7678180  62.1948882
  80.8194529  14.0915472  75.7066644  81.7204392  13.9521937  75.4150642
  80.8942504  14.2569927  76.6464822  75.1537334  11.4682327  74.5519830
  74.2840644  11.7615893  74.2802419  75.3896815  12.0522772  75.2727094
  85.0308964  20.5281486  74.6349359  84.7393772  20.8911466  75.4712820
  84.4181095  19.8148494  74.4562691  86.2304646  18.0934366  67.1551929
  87.0651537  18.5324170  67.3189490  86.3663775  17.6173019  66.3360175
  83.2796152  15.6514100  73.1029417  83.7550273  15.8441747  72.2948268
  82.3561717  15.7073286  72.8572801  70.1679658  16.8138268  62.6860495
  69.9225700  15.9100598  62.8840705  70.3375573  16.8155418  61.7439973
  77.8576368   7.6861944  72.0685251  78.3758312   8.4222971  71.7431739
  77.5031501   7.9925937  72.9032010  69.4375306  12.5466625  60.1846657
  68.7444551  12.6210980  59.5286693  69.1927058  11.7826969  60.7068174
  75.9122431  23.2821220  59.1511174  75.3396398  23.9011407  58.6981646
  76.4855225  23.8320582  59.6851096  81.9797821  12.5279860  71.3357723
  82.9315244  12.6277958  71.3569947  81.8101271  11.7358129  71.8455807
  80.0012200   9.6135444  71.5217124  79.4062132   9.8940456  70.8263612
  79.7161897  10.1029345  72.2933865  79.1319691  23.5658370  60.2819756
  80.0650364  23.5003932  60.4852632  79.0442904  24.4014637  59.8234289
  81.7607707  22.8824241  57.2423704  81.6821339  22.5484104  58.1359462
  82.5817374  23.3746009  57.2415176  84.4585899  15.7485980  70.4500022
  84.4262219  14.8101981  70.6359706  85.0686522  15.8270017  69.7165847
  76.2969229  14.6182033  56.4927226  77.2428334  14.4888241  56.5615644
  75.9183474  13.8796695  56.9696654  84.6080387  12.5397024  70.4958305
  84.0919436  11.7555480  70.3088234  85.4920336  12.2115740  70.6604825
  90.2762448  16.8101987  69.5906059  91.0065837  16.5487275  70.1513762
  89.6669394  16.0730709  69.6308127  88.3577746  14.9509850  70.1880510
  87.6310909  14.8165815  69.5797002  87.9425032  15.2586678  70.9937228
  76.1807922  18.6699779  77.9527883  77.1010931  18.8478378  78.1467930
  76.1457505  17.7255825  77.8007583  74.4812147  12.5432010  56.4282112
  73.5743602  12.2465122  56.5044825  74.7588128  12.2461828  55.5616398
  65.3990087  13.8638373  66.8781158  65.0792871  13.0103681  66.5855532
  64.8523515  14.0786951  67.6339125  69.1769995  16.5800814  70.5950664
  69.3956004  17.5117922  70.6138698  69.5895768  16.2208788  71.3805468
  76.0974212   7.0868899  62.5826353  75.2874941   6.7415984  62.9581599
  76.7858629   6.7776443  63.1713964  74.0497860  12.1534020  79.9853413
  73.9494587  13.1028377  79.9165504  73.8319402  11.8252259  79.1129483
  73.2510931   9.4018945  56.5694091  74.1130095   9.7273843  56.8289908
  73.4361275   8.6150441  56.0567156  65.2678347  17.4841284  68.8474279
  64.5741818  17.0695237  68.3344234  66.0151338  17.5261821  68.2507698
  81.4043568   8.2747471  63.7129314  80.8242237   8.9332275  63.3307366
  81.1379500   7.4524816  63.3016731  79.8547134   7.6752529  65.9150634
  80.3546912   7.7869063  65.1064953  80.4982742   7.3713582  66.5551442
  73.9129130  15.5831159  78.8018475  73.4296212  16.3831519  79.0082364
  73.9990069  15.5939103  77.8485919  67.1815089  17.4159538  66.7240294
  67.1585778  17.5147225  65.7722177  67.4915726  18.2624689  67.0457460
  69.8402467  19.4735693  70.8386909  70.7945721  19.4419636  70.7716840
  69.6414991  19.0126317  71.6537135  70.4301849  18.0436809  73.4057706
  71.2494738  18.5380888  73.4292544  70.7038657  17.1268777  73.3775274
  80.1868446  10.4347562  62.7685662  79.2994301  10.7197212  62.5505857
  80.6022435  10.2741325  61.9212939  83.5382982  10.4594083  66.4840001
  84.3143372  10.9490535  66.7564618  82.8131116  10.8852137  66.9411871
  85.9755540  11.1721702  67.5413942  86.5700031  10.9317438  66.8307250
  86.0482124  10.4528832  68.1687478  68.1952696  25.0155313  67.8557107
  68.0607164  24.2555714  67.2895105  67.7784758  25.7396213  67.3885896
  79.3311659  20.1992236  56.8633682  80.0347509  20.4042239  57.4791338
  78.6074308  20.7668998  57.1282765  80.1609469  15.9502097  62.9835952
  80.1044671  16.4070649  62.1443585  80.7137812  15.1892782  62.8058795
  83.9714275  11.7391829  63.8086072  83.7151210  11.3388465  64.6394279
  83.3467143  12.4535623  63.6836211  88.2826613  14.4787903  66.3157363
  87.7226171  14.5481092  67.0888925  87.6770117  14.3028887  65.5956859
  71.3521822  25.9124630  68.0675549  71.2354206  26.8570062  67.9654240
  70.5314268  25.6098191  68.4561349  81.2398357  20.6374765  58.9132142
  82.0743961  20.2055964  58.7309617  81.0782699  20.4656779  59.8409036
  80.8944249  17.1406879  60.2788481  80.8393053  16.9751150  59.3376925
  80.2690304  17.8482912  60.4350671  65.6836764  12.3774943  74.1049904
  66.3295627  11.8673897  74.5937129  65.4753915  13.1143625  74.6793329
  78.2090156  19.4455791  79.6042044  79.0781316  19.6196443  79.2428679
  77.7296907  20.2650207  79.4817773  74.2040374   6.6414988  59.8573800
  74.1919044   7.5856828  60.0142071  75.0963796   6.4585133  59.5633261
  72.3776336  26.5652892  71.2831478  73.2803583  26.5976502  71.5997973
  72.1513706  25.6353343  71.2977814  74.1329938  25.3183878  67.9441556
  73.1825569  25.3185740  67.8305929  74.4362424  24.5716613  67.4277591
  70.0234255   9.5242560  78.2024918  70.8865716   9.1679365  78.4128242
  69.4499665   9.1856455  78.8900322  89.8682632  31.1544417  69.0087319
  90.5061042  31.0351164  68.3050659  89.7503475  32.1025261  69.0675271
  86.6772338  31.1071845  68.9448843  86.3390849  30.9912909  68.0569378
  87.5462106  30.7063010  68.9249850  82.5359154  32.9607321  64.9345734
  81.9724019  32.8697258  64.1662022  82.4211549  32.1407226  65.4148227
  87.1592121  32.2606696  74.9035049  87.1480762  31.8659495  74.0315553
  87.3212760  31.5272769  75.4968820  80.0823586  34.4558513  67.7729955
  80.8744877  34.1149337  67.3576254  80.3220236  34.5653488  68.6932108
  88.1158712  36.6278289  60.2460199  87.4646692  37.2132369  59.8594213
  88.9103075  37.1584484  60.3055237  82.0414340  33.7167426  60.6447334
  82.8145216  33.1696413  60.5060209  82.3939738  34.5811675  60.8561795
  83.8799382  35.0443808  73.8514233  83.5889248  35.9489439  73.7360899
  84.5156366  35.0860336  74.5658303  84.8055589  32.4220657  70.4415593
  85.4019161  32.1976679  69.7272556  84.8630560  31.6805402  71.0441040
  84.3780617  29.8760092  58.2765784  84.6306138  29.3541613  57.5149247
  83.4405176  29.7126237  58.3792467  89.4223900  28.8795870  66.0840527
  90.2086989  28.4615294  65.7330944  89.6862604  29.7841963  66.2522175
  89.5933978  34.3168721  60.7829184  88.9579810  34.3903347  61.4950088
  89.2631384  34.9062320  60.1048263  94.8232327  28.8171104  66.9873505
  95.5557499  28.2470320  67.2211335  94.0671683  28.4292704  67.4280011
  84.0976906  31.7788198  60.4790159  83.9813164  31.1033101  61.1471243
  84.2079166  31.2920572  59.6622312  86.4408447  31.2398345  64.1836848
  86.0766654  30.7128966  64.8949769  87.2975563  30.8496814  64.0103333
  92.3457748  22.5292678  71.4468114  92.0141072  23.3988089  71.2229329
  91.7503361  22.2128962  72.1262144  86.0813934  26.2688245  59.1798196
  86.2488336  27.1368481  59.5468667  85.8911103  26.4315526  58.2559486
  88.8389267  34.7305224  70.8464027  88.5389990  35.6330263  70.7379834
  88.4940327  34.4637407  71.6985180  82.2901749  31.1819021  66.8800731
  81.3652245  31.0495235  67.0878423  82.5386162  31.9613240  67.3770673
  92.2386411  27.2487764  68.5261464  91.3303288  27.1803172  68.2320225
  92.1874007  27.7259709  69.3543289  86.0603155  28.7245902  60.1644863
  85.9402780  29.1702953  61.0030343  85.3655743  29.0731220  59.6058401
  79.6510560  30.8252294  67.7144520  79.7802941  31.0786773  68.6283932
  78.9708011  31.4180002  67.3949175  83.8210047  41.4949544  63.8134994
  83.7434077  42.4457369  63.8923475  83.2171691  41.1495417  64.4709921
  86.3127277  28.6677409  76.4696361  85.5360611  29.2271330  76.4599226
  86.9517840  29.1534192  76.9911231  94.1048057  25.4504202  70.3039338
  93.4622438  25.7436735  69.6579132  93.6002986  25.3357123  71.1092535
  91.7588221  29.1967375  60.9925197  92.6706077  29.4294762  60.8172895
  91.2497868  29.7804420  60.4300276  84.5673649  31.4762863  76.0314328
  85.3088333  32.0147907  75.7549152  83.8610635  32.1029152  76.1885880
  90.0428989  33.6192003  74.6286490  90.4512345  33.1774414  73.8841122
  89.3206250  33.0444631  74.8820683  86.3960059  28.5564610  72.0020047
  87.2421254  28.9804024  72.1454696  86.3358696  27.8998234  72.6958610
  90.3657803  34.1793194  68.3838779  89.7366666  34.3438908  67.6814846
  89.9783465  34.5934803  69.1549743  94.2447035  35.1147632  65.7383142
  93.5598073  35.4946533  65.1880176  94.3290885  35.7242958  66.4715090
  89.5459504  26.2168978  73.6601220  89.3020436  26.9711039  73.1235496
  89.8219435  26.5954326  74.4948467  91.4997967  32.7607591  72.3378486
  91.7114862  33.4039351  71.6612867  91.4527715  31.9269907  71.8700416
  89.1024196  25.3725411  69.2415058  88.2408675  25.6706665  69.5331796
  89.1286630  25.5895810  68.3096091  85.9185765  33.9167602  65.6488864
  86.3824111  34.1955305  64.8593486  85.6542563  33.0151047  65.4661954
  82.8109846  33.4639084  68.5868627  83.3811203  33.8926352  67.9486111
  83.4017958  33.1821668  69.2852813  84.8554651  30.0390754  62.4578429
  85.5578695  30.4911798  62.9252355  84.5235280  29.3974573  63.0858322
  83.3035013  28.6302511  76.8329638  82.6733673  29.3118792  77.0665035
  83.1971101  28.5185593  75.8882776  78.5979985  28.2974307  67.7595562
  77.8079039  28.5531836  67.2835673  79.0891233  29.1122645  67.8647603
  92.6143795  35.6379546  70.5100843  93.4361239  35.2359733  70.2283525
  92.6106198  35.5347780  71.4616959  80.5494731  28.6618886  64.7179039
  79.7525894  28.7737581  65.2362535  80.3220323  29.0005539  63.8519930
  86.3800398  35.1863590  72.6661554  86.4444831  35.6483997  73.5019726
  85.6711322  34.5560954  72.7943864  76.8817688  28.5504797  70.1910553
  77.1325727  29.4351807  70.4568129  77.4177237  28.3709399  69.4185645
 100.7049788  31.9818295  66.8585815  99.9513496  31.4125693  66.7029819
 100.8397329  31.9480959  67.8056449  86.0948416  36.8531697  62.5340534
  85.9594091  37.6983233  62.9625382  86.6358228  37.0550975  61.7706468
  82.5815756  22.9323277  79.1954889  82.1882701  22.3789475  79.8702534
  83.3981896  23.2433855  79.5861407  79.5477813  34.3707135  63.1068459
  80.0602334  35.1650385  63.2574024  80.2000526  33.6733425  63.0402061
  81.3572698  37.4872891  65.1891212  81.5339326  38.4090856  65.0012196
  82.1529531  37.1731311  65.6185592  85.4983717  24.3481156  76.7875146
  86.2393430  24.9488309  76.7079608  85.7301639  23.6058794  76.2293188
  80.6425055  29.5337523  75.0653376  80.5278570  28.6322780  75.3660474
  79.7869572  29.7801220  74.7138192  87.7216892  37.4755264  76.6640876
  87.2780746  36.6891642  76.3461781  88.3834106  37.6634414  75.9984767
  82.4804013  39.0051065  71.1901555  83.0311439  38.8768128  70.4178549
  81.6415489  39.3045954  70.8396447  89.8198130  37.7558063  74.6922277
  89.8016606  38.5766944  74.2002547  90.7418050  37.6312139  74.9172419
  86.2771184  35.2702193  75.5345786  86.8099521  34.5090481  75.3045094
  85.7485266  34.9775845  76.2769940  89.4440879  20.3762259  71.0639428
  89.1005149  21.2663901  70.9878538  89.8119842  20.1863917  70.2009013
  77.5126730  32.6995789  63.8828030  78.3501952  33.1092798  63.6661737
  77.6904998  31.7595232  63.8528224  89.4091162  30.3670870  59.5711863
  88.8937786  31.1375475  59.8100250  89.1368471  29.6936006  60.1944924
  86.9938273  25.2120571  64.6297101  86.1379870  24.8227421  64.4502740
  87.4065225  25.2912532  63.7696887  88.5237420  22.7466914  69.0288661
  88.0202215  22.7097049  68.2156466  88.8168027  23.6559657  69.0885317
  84.7680306  22.8305644  68.0354843  85.6333302  22.6348452  67.6760732
  84.8357815  22.6015996  68.9624199  94.3825436  33.1203225  61.5065036
  93.6054879  32.7814384  61.0620198  95.0616917  33.1255848  60.8320001
  89.1977465  28.2397962  61.3971644  88.8927601  28.5544111  62.2481787
  90.1507907  28.3179382  61.4398977  87.6423897  34.3988185  63.0464598
  87.1145259  33.6640945  62.7337835  87.1411400  35.1762862  62.8004566
  92.6216743  32.5937206  68.1631644  91.9640418  33.2836467  68.2511773
  93.4257142  32.9833638  68.5065630  82.3742625  25.0607852  65.4071209
  82.9486377  24.8383033  64.6744402  82.9613607  25.1296546  66.1599811
  91.4322202  30.9481579  66.2135586  91.9454084  31.5811570  66.7157296
  92.0823426  30.3482774  65.8478946  82.7012212  27.0912313  59.4267095
  81.8649524  27.4286999  59.7476369  82.5616982  26.9561293  58.4894232
  84.6765293  21.9349101  64.1346279  84.0229705  21.6198118  63.5102894
  84.6345767  21.3124841  64.8606102  85.7876497  32.2168396  56.0499571
  84.8803559  31.9857649  56.2490720  86.2847529  31.4206015  56.2373552
  88.6944576  40.9265903  58.9696257  88.0206275  41.2297600  59.5781215
  89.0810398  41.7294983  58.6201714  87.9103033  28.4231034  68.4593926
  86.9925594  28.6445981  68.3015614  88.3263176  28.4977345  67.6005634
  88.6938081  29.8222450  63.5896607  89.4409900  30.3343847  63.2803729
  88.9629670  29.5006503  64.4501000  86.9664731  32.3180991  60.5723561
  86.0575950  32.0340023  60.6696031  86.9959815  32.7380069  59.7126868
  92.1983998  35.9287580  64.3414728  91.7446325  35.0878490  64.3979919
  91.5677965  36.5648978  64.6789509  91.1416918  26.8579566  65.5715396
  90.4039675  26.3456952  65.9025639  91.3943691  26.4179948  64.7598673
  90.6416937  37.7664077  65.2764547  90.9339912  38.3269134  64.5576912
  91.1515558  38.0592638  66.0317706  91.2428545  19.6355818  66.1657165
  91.5487422  18.7753181  65.8783080  91.9681150  20.2273438  65.9656159
  77.5352901  30.0386505  64.5538763  77.3377301  29.4455865  63.8289830
  76.9799565  29.7338715  65.2714702  85.5149625  29.9309611  66.6733356
  85.5698235  28.9783448  66.5975833  84.7040827  30.0869050  67.1574655
  86.6640819  33.8589734  57.9111639  86.2260249  33.1425593  57.4517277
  87.4051259  34.0865849  57.3496731  83.4541985  28.5486671  64.4323735
  82.6409850  28.8480841  64.8388927  83.9500979  28.1542360  65.1498217
  85.6050563  38.5444428  66.3658000  85.5626741  38.7705274  65.4366532
  86.5213262  38.3107802  66.5143801  89.0516196  29.0128495  73.2638629
  89.4065584  29.2399968  74.1233095  89.6988328  29.3446872  72.6415884
  94.7813933  32.1346931  63.9687958  94.6431832  32.3248527  63.0409147
  94.4250152  32.8966314  64.4256009  82.9456060  26.1205026  70.0484970
  83.5855439  25.9793786  69.3507933  82.1133590  25.8339540  69.6723572
  94.8083313  34.2023458  68.9799230  95.2419820  34.1098747  69.8282284
  95.5214894  34.1780959  68.3419246  83.7216363  35.4207457  66.1619963
  84.5156962  34.9257777  65.9602538  83.0108056  34.8925320  65.7987668
  88.5411208  37.8025552  70.5132330  88.5948230  38.3716489  71.2810046
  87.6725989  37.9727437  70.1486367  80.0299127  29.5650539  62.2379715
  79.0996715  29.5034994  62.4549677  80.1256599  29.0426491  61.4416356
  79.9484676  26.0905351  64.8257957  80.2091493  27.0050685  64.7167117
  80.7701848  25.6229794  64.9754570  81.4209601  27.5043109  71.9956781
  82.0932655  27.2960471  71.3469430  80.5939388  27.3065195  71.5562014
  95.6698863  34.2447159  71.5132115  95.8634753  35.1492969  71.7591390
  95.5699481  33.7854578  72.3470700  87.3235173  24.1305049  74.0122442
  86.6763088  24.8294999  73.9186919  88.0936189  24.5641193  74.3798690
  90.7313971  34.3953902  77.0872996  90.5799478  34.1664453  76.1703079
  90.7218651  35.3524503  77.1004341  87.4999308  31.9685814  72.0719262
  88.4291368  32.1196974  71.8988229  87.0790338  32.0569835  71.2167909
  86.2987639  35.9936479  69.8417800  86.1598725  35.6255263  70.7143738
  85.5102236  36.5084118  69.6701757  86.8935791  41.0945575  61.1843336
  87.0687547  40.6233618  61.9988959  86.2068579  41.7211341  61.4124597
  87.8492855  35.3718082  67.2306637  87.5142687  35.3318851  68.1264287
  87.3496800  34.7062797  66.7577048  81.8237099  30.7785712  72.7559219
  81.6856896  30.0465950  73.3570758  82.7342022  30.6894612  72.4743406
  90.7852046  32.7174116  57.5043697  90.1681217  31.9920944  57.4076750
  90.3168535  33.4783476  57.1610771  84.4519399  30.4905671  72.2442898
  85.1619018  29.8498863  72.2029517  84.4088707  30.7418566  73.1669079
  92.4406178  37.4273024  75.1649477  92.3818724  36.7432244  74.4980060
  92.8425696  38.1692014  74.7130103  83.1648333  27.4770889  74.0638538
  82.6285690  27.0261627  74.7160134  82.5765042  27.6116798  73.3209002
  81.4596877  44.2434938  67.9583196  81.6993475  44.8753462  68.6362215
  80.6166073  43.8922978  68.2448556  82.5750592  26.9359540  56.6265001
  81.6980058  26.8148341  56.2627248  83.0508345  26.1445618  56.3743890
  92.4423585  35.3912608  73.3963457  91.5550364  35.0538530  73.5189856
  93.0122136  34.6595639  73.6332223  74.0952732  31.7236700  66.7206509
  74.7823772  31.4098430  66.1327524  73.9400861  32.6278065  66.4473760
  78.8987454  26.6126896  71.1491532  78.8145643  26.0052566  70.4141942
  78.0770161  27.1035915  71.1501029  85.9724739  40.0514060  70.3624700
  85.8994910  40.8569032  70.8744005  85.5302132  40.2506026  69.5372722
  85.7614518  39.2885831  63.8727522  84.9782040  39.8307511  63.9665746
  86.4607263  39.8059810  64.2721763  89.0711168  25.0980460  66.5161727
  89.5679868  24.3450422  66.1962797  88.2998150  25.1344777  65.9504937
  96.9240926  30.8020826  68.1580019  96.9130802  31.6845541  67.7873952
  96.0558305  30.4492376  67.9634556  88.4323422  39.9500895  72.5182859
  89.1451394  40.5848359  72.4458760  87.9413451  40.0464761  71.7022861
  90.1540949  33.8552147  64.0900151  89.2197228  33.9753610  63.9204855
  90.3317617  32.9524614  63.8260160  85.6546137  27.2397843  66.2433412
  85.2843925  26.6868883  66.9314317  86.1505229  26.6355976  65.6908412
  93.5413500  29.6969466  64.6250185  94.0073953  30.5297458  64.5510487
  93.9921001  29.2314448  65.3295443  83.4835336  37.6995338  73.3388430
  84.1844795  38.3331821  73.4917824  83.0130451  38.0410070  72.5784069
  91.6089731  36.0413288  61.6236337  91.8849575  35.9269882  62.5330211
  90.7394230  35.6430773  61.5848510  91.5130163  22.0650053  68.6641086
  90.5993243  22.2954280  68.8323293  91.9423265  22.1488498  69.5155118
  91.2836622  30.2539945  71.1640980  90.6308072  30.5015853  70.5093433
  91.6617001  29.4404084  70.8303457  88.2443795  40.2899639  65.2669150
  88.4266190  39.4721295  65.7296903  89.0676781  40.5067331  64.8294040
  88.5785961  39.2167824  62.5284199  89.1073727  38.7060278  61.9154361
  88.8414181  38.9010354  63.3929732  87.3324195  30.9959756  77.6507017
  86.6564832  30.8953886  78.3209392  88.1551828  30.8398970  78.1143014
  79.0803054  37.2331693  70.2719532  79.6656490  36.4875381  70.4047437
  78.8827892  37.5435650  71.1556196  81.9341709  40.2682940  65.2881975
  81.2652084  40.7529068  64.8046015  81.7954579  40.5152161  66.2025353
  73.6720708  29.8037293  68.9923976  73.7104808  29.2700884  69.7861094
  73.1661001  29.2772499  68.3734953  86.0746977  42.3026684  71.8864633
  86.6265285  42.4658305  72.6513718  86.4153171  42.8931122  71.2144658
  81.0511471  24.6501834  72.4886518  81.1152797  25.5116665  72.0763916
  80.9878591  24.0375835  71.7558876  80.5263743  26.7224966  76.1359552
  81.1535782  26.3402044  76.7497077  79.6691662  26.5039168  76.5015245
  90.9257852  37.1287941  77.7413288  91.4697756  37.7417900  77.2468242
  90.3444697  37.6867520  78.2580301  77.3029286  28.5301395  62.0677907
  77.5982727  27.6212074  62.0144961  76.4017322  28.5089135  61.7458909
  89.2115365  40.2508659  68.8728315  89.0866504  39.4498399  68.3639261
  89.8694456  40.7454853  68.3842285  80.8323533  26.6057392  68.0505456
  80.1110119  27.2193360  67.9112929  81.6216789  27.1415157  67.9722102
  91.2750273  38.0517680  70.5007865  90.3280609  37.9323031  70.4286192
  91.6233046  37.1640178  70.5834127  83.6349847  23.9411818  74.3246107
  84.1584248  24.1874115  75.0872417  83.4162180  24.7731853  73.9049245
  79.0317128  26.2115493  62.1917232  78.7029834  25.3312872  62.0092338
  79.3856498  26.1563162  63.0793621  88.2796706  37.8470396  66.7012218
  88.1321669  36.9187103  66.8819788  89.1050200  37.8690486  66.2169293
  82.1458951  26.4988463  62.5592710  82.4855023  27.0274384  61.8371318
  82.5931071  26.8368869  63.3351276  91.8830828  38.6698954  67.7877090
  92.8077376  38.4641816  67.6501542  91.7146132  38.4215356  68.6966432
  84.8402392  24.8825514  72.0095778  84.4999212  24.0833327  72.4116458
  84.1341398  25.1827224  71.4372611  85.4918863  21.9674826  70.4623101
  86.3144933  21.4935304  70.3401991  85.7356927  22.7465310  70.9621787
  84.1327098  24.9963084  60.7586003  84.8535460  25.3744337  60.2549719
  83.5092402  25.7151961  60.8620981  88.2758221  25.7008233  61.6944335
  88.4921835  26.5832871  61.3933163  87.7952288  25.3094447  60.9649977
  83.0157442  28.6593947  68.2715080  82.8702023  28.9734250  69.1639361
  82.5382646  29.2778847  67.7185978  84.8753825  25.6496495  68.3195969
  84.8615394  24.7537588  67.9828267  85.5926253  25.6567158  68.9534255
  86.7279956  26.0833835  70.3649097  86.4697734  27.0050905  70.3633427
  86.1964996  25.6864269  71.0549561  91.6726144  39.1884622  63.1439182
  91.8463022  38.6231044  62.3913034  92.1655036  39.9885517  62.9618672
  77.4903104  31.1999291  71.2102741  76.9456572  31.9759099  71.3423015
  78.3682454  31.5470096  71.0521862  84.2790721  24.5310875  63.5883539
  84.4006632  23.6027521  63.7874427  83.9892763  24.5449561  62.6761855
  87.1481911  22.2165785  66.7250259  87.1703608  22.2805118  65.7702239
  87.5649970  21.3770294  66.9190765  97.5265536  31.9521045  64.7629482
  97.9696682  31.2028370  64.3648605  96.6492046  31.9431181  64.3803214
  92.6601317  38.5051386  60.2436080  93.3552222  39.1258079  60.4623395
  93.0024467  37.6546738  60.5188458  78.2769126  30.3269187  74.1032898
  77.5350862  30.4751823  74.6897528  77.9561870  30.5877453  73.2399647
  94.5592740  35.9551092  61.7723411  95.0844064  36.2938365  61.0472731
  94.4715093  35.0198107  61.5886546  86.2212789  39.8685166  73.9013288
  86.5299915  39.6234312  74.7735987  87.0188271  40.0731804  73.4132158
  86.2433401  42.0223075  66.1318664  85.8038391  41.5299454  66.8251521
  86.9941518  41.4796043  65.8910739  78.7225740  38.2134616  66.1343292
  79.5483760  37.9138388  65.7541936  78.3719792  37.4442238  66.5833081
  83.6907273  37.5661084  68.2040966  83.0687282  36.9031789  67.9043194
  84.3612140  37.5922216  67.5214614  76.9234345  36.1320942  67.0932226
  76.0866253  35.7043117  66.9116227  76.8957990  36.3253386  68.0303017
  83.7631800  26.0442872  77.7973472  83.8119956  26.9204995  77.4151241
  84.3054315  25.5020265  77.2245115  94.2486646  36.5883996  77.0774609
  93.4582190  36.5708134  76.5379108  94.0120001  37.1272289  77.8323646
  94.3684521  33.4376462  74.3907337  94.4182526  33.2726469  75.3322860
  94.2598445  32.5703721  74.0005218  83.2520780  36.1165008  61.6799426
  83.4008900  36.8000472  61.0266099  84.0587223  36.0970098  62.1948882
  91.6588284  29.4207390  75.7066644  92.5598146  29.2813855  75.4150642
  91.7336258  29.5861845  76.6464822  85.9931089  26.7974245  74.5519830
  85.1234398  27.0907811  74.2802419  86.2290569  27.3814690  75.2727094
  95.8702718  35.8573403  74.6349359  95.5787526  36.2203384  75.4712820
  95.2574849  35.1440412  74.4562691  97.0698400  33.4226283  67.1551929
  97.9045292  33.8616087  67.3189490  97.2057529  32.9464936  66.3360175
  94.1189906  30.9806018  73.1029417  94.5944028  31.1733664  72.2948268
  93.1955472  31.0365204  72.8572801  81.0073413  32.1430185  62.6860495
  80.7619455  31.2392515  62.8840705  81.1769327  32.1447336  61.7439973
  88.6970123  23.0153862  72.0685251  89.2152067  23.7514889  71.7431739
  88.3425256  23.3217855  72.9032010  80.2769060  27.8758543  60.1846657
  79.5838305  27.9502898  59.5286693  80.0320812  27.1118886  60.7068174
  88.9482717  19.4354144  67.5886147  89.2284471  18.7677333  68.2146574
  89.7333324  19.6283240  67.0760811  86.7516185  38.6113138  59.1511174
  86.1790153  39.2303325  58.6981646  87.3248979  39.1612500  59.6851096
  92.8191575  27.8571778  71.3357723  93.7708998  27.9569876  71.3569947
  92.6495026  27.0650047  71.8455807  90.8405955  24.9427361  71.5217124
  90.2455887  25.2232374  70.8263612  90.5555651  25.4321262  72.2933865
  89.9713445  38.8950288  60.2819756  90.9044118  38.8295850  60.4852632
  89.8836658  39.7306555  59.8234289  92.6001462  38.2116159  57.2423704
  92.5215093  37.8776022  58.1359462  93.4211129  38.7037926  57.2415176
  95.2979653  31.0777898  70.4500022  95.2655973  30.1393899  70.6359706
  95.9080277  31.1561935  69.7165847  87.1362984  29.9473951  56.4927226
  88.0822089  29.8180159  56.5615644  86.7577229  29.2088613  56.9696654
  95.4474142  27.8688941  70.4958305  94.9313190  27.0847398  70.3088234
  96.3314090  27.5407658  70.6604825  93.1084868  21.6129957  66.4554118
  92.9109690  21.3045045  67.3397450  93.7184574  22.3391596  66.5852048
 101.1156203  32.1393905  69.5906059 101.8459591  31.8779193  70.1513762
 100.5063148  31.4022627  69.6308127  99.1971500  30.2801767  70.1880510
  98.4704664  30.1457732  69.5797002  98.7818787  30.5878596  70.9937228
  87.0201676  33.9991697  77.9527883  87.9404686  34.1770296  78.1467930
  86.9851259  33.0547742  77.8007583  85.3205901  27.8723927  56.4282112
  84.4137356  27.5757040  56.5044825  85.5981882  27.5753745  55.5616398
  76.2383841  29.1930291  66.8781158  75.9186626  28.3395599  66.5855532
  75.6917270  29.4078869  67.6339125  80.0163749  31.9092732  70.5950664
  80.2349759  32.8409839  70.6138698  80.4289523  31.5500706  71.3805468
  86.9367967  22.4160817  62.5826353  86.1268695  22.0707902  62.9581599
  87.6252384  22.1068361  63.1713964  88.8658515  21.4938864  64.2050649
  89.4189554  21.9134317  64.8640673  89.1028601  20.5674612  64.2473605
  84.8891614  27.4825937  79.9853413  84.7888341  28.4320294  79.9165504
  84.6713156  27.1544176  79.1129483  84.0904686  24.7310862  56.5694091
  84.9523850  25.0565761  56.8289908  84.2755030  23.9442358  56.0567156
  76.1072101  32.8133202  68.8474279  75.4135573  32.3987155  68.3344234
  76.8545092  32.8553739  68.2507698  92.2437322  23.6039389  63.7129314
  91.6635991  24.2624193  63.3307366  91.9773255  22.7816733  63.3016731
  90.6940889  23.0044447  65.9150634  91.1940667  23.1160981  65.1064953
  91.3376496  22.7005499  66.5551442  84.7522884  30.9123076  78.8018475
  84.2689966  31.7123436  79.0082364  84.8383823  30.9231021  77.8485919
  78.0208844  32.7451456  66.7240294  77.9979532  32.8439143  65.7722177
  78.3309480  33.5916607  67.0457460  80.6796222  34.8027611  70.8386909
  81.6339475  34.7711553  70.7716840  80.4808745  34.3418235  71.6537135
  81.2695604  33.3728727  73.4057706  82.0888493  33.8672806  73.4292544
  81.5432412  32.4560695  73.3775274  91.0262200  25.7639479  62.7685662
  90.1388055  26.0489130  62.5505857  91.4416189  25.6033243  61.9212939
  94.3776736  25.7886000  66.4840001  95.1537126  26.2782453  66.7564618
  93.6524870  26.2144054  66.9411871  96.8149295  26.5013619  67.5413942
  97.4093786  26.2609355  66.8307250  96.8875879  25.7820750  68.1687478
  79.0346451  40.3447230  67.8557107  78.9000919  39.5847631  67.2895105
  78.6178513  41.0688130  67.3885896  90.1705414  35.5284154  56.8633682
  90.8741264  35.7334156  57.4791338  89.4468062  36.0960916  57.1282765
  91.0003224  31.2794015  62.9835952  90.9438425  31.7362567  62.1443585
  91.5531566  30.5184700  62.8058795  94.8108030  27.0683747  63.8086072
  94.5544964  26.6680383  64.6394279  94.1860898  27.7827541  63.6836211
  99.1220368  29.8079820  66.3157363  98.5619926  29.8773010  67.0888925
  98.5163871  29.6320805  65.5956859  82.1915577  41.2416547  68.0675549
  82.0747961  42.1861980  67.9654240  81.3708023  40.9390109  68.4561349
  92.0792111  35.9666683  58.9132142  92.9137715  35.5347882  58.7309617
  91.9176454  35.7948697  59.8409036  91.7338003  32.4698796  60.2788481
  91.6786807  32.3043068  59.3376925  91.1084059  33.1774829  60.4350671
  76.5230518  27.7066861  74.1049904  77.1689382  27.1965815  74.5937129
  76.3147669  28.4435542  74.6793329  89.0483910  34.7747708  79.6042044
  89.9175070  34.9488361  79.2428679  88.5690662  35.5942125  79.4817773
  85.0434129  21.9706905  59.8573800  85.0312799  22.9148745  60.0142071
  85.9357551  21.7877051  59.5633261  83.2170091  41.8944809  71.2831478
  84.1197337  41.9268420  71.5997973  82.9907461  40.9645260  71.2977814
  84.9723693  40.6475796  67.9441556  84.0219324  40.6477657  67.8305929
  85.2756179  39.9008530  67.4277591  88.8586248  18.5649682  64.1119736
  88.0918644  18.0108169  64.2576419  89.2696953  18.6371551  64.9733888
  80.8628009  24.8534478  78.2024918  81.7259471  24.4971283  78.4128242
  80.2893420  24.5148373  78.8900322 100.7076386  46.4836334  69.0087319
 101.3454796  46.3643082  68.3050659 100.5897229  47.4317178  69.0675271
  97.5166092  46.4363762  68.9448843  97.1784604  46.3204827  68.0569378
  98.3855861  46.0354927  68.9249850  93.3752908  48.2899239  64.9345734
  92.8117773  48.1989176  64.1662022  93.2605303  47.4699143  65.4148227
  97.9985875  47.5898614  74.9035049  97.9874516  47.1951412  74.0315553
  98.1606515  46.8564687  75.4968820  90.9217340  49.7850430  67.7729955
  91.7138632  49.4441255  67.3576254  91.1613990  49.8945405  68.6932108
  98.9552467  51.9570206  60.2460199  98.3040447  52.5424287  59.8594213
  99.7496830  52.4876401  60.3055237  92.8808094  49.0459344  60.6447334
  93.6538970  48.4988331  60.5060209  93.2333493  49.9103593  60.8561795
  94.7193137  50.3735726  73.8514233  94.4283003  51.2781357  73.7360899
  95.3550121  50.4152253  74.5658303  95.6449343  47.7512574  70.4415593
  96.2412916  47.5268597  69.7272556  95.7024315  47.0097320  71.0441040
  95.2174372  45.2052010  58.2765784  95.4699893  44.6833531  57.5149247
  94.2798931  45.0418155  58.3792467 100.2617655  44.2087788  66.0840527
 101.0480744  43.7907211  65.7330944 100.5256359  45.1133880  66.2522175
 100.4327732  49.6460638  60.7829184  99.7973565  49.7195265  61.4950088
 100.1025138  50.2354237  60.1048263 105.6626082  44.1463021  66.9873505
 106.3951254  43.5762238  67.2211335 104.9065437  43.7584622  67.4280011
  94.9370661  47.1080116  60.4790159  94.8206919  46.4325019  61.1471243
  95.0472920  46.6212490  59.6622312  97.2802201  46.5690263  64.1836848
  96.9160409  46.0420884  64.8949769  98.1369317  46.1788732  64.0103333
 103.1851502  37.8584595  71.4468114 102.8534827  38.7280006  71.2229329
 102.5897116  37.5420879  72.1262144  96.9207688  41.5980162  59.1798196
  97.0882091  42.4660399  59.5468667  96.7304858  41.7607444  58.2559486
  99.6783022  50.0597141  70.8464027  99.3783745  50.9622180  70.7379834
  99.3334081  49.7929325  71.6985180  93.1295503  46.5110938  66.8800731
  92.2046000  46.3787152  67.0878423  93.3779916  47.2905157  67.3770673
 103.0780165  42.5779682  68.5261464 102.1697043  42.5095090  68.2320225
 103.0267761  43.0551626  69.3543289  96.8996909  44.0537820  60.1644863
  96.7796535  44.4994871  61.0030343  96.2049498  44.4023138  59.6058401
  90.4904314  46.1544212  67.7144520  90.6196695  46.4078691  68.6283932
  89.8101765  46.7471920  67.3949175  94.6603801  56.8241462  63.8134994
  94.5827831  57.7749287  63.8923475  94.0565445  56.4787334  64.4709921
  97.1521031  43.9969327  76.4696361  96.3754365  44.5563247  76.4599226
  97.7911594  44.4826110  76.9911231 104.9441812  40.7796120  70.3039338
 104.3016192  41.0728653  69.6579132 104.4396740  40.6649040  71.1092535
 102.5981976  44.5259293  60.9925197 103.5099832  44.7586680  60.8172895
 102.0891623  45.1096337  60.4300276  95.4067404  46.8054781  76.0314328
  96.1482088  47.3439824  75.7549152  94.7004389  47.4321069  76.1885880
 100.8822743  48.9483921  74.6286490 101.2906099  48.5066331  73.8841122
 100.1600005  48.3736548  74.8820683  97.2353813  43.8856528  72.0020047
  98.0815008  44.3095941  72.1454696  97.1752451  43.2290152  72.6958610
 101.2051558  49.5085112  68.3838779 100.5760420  49.6730826  67.6814846
 100.8177220  49.9226721  69.1549743 105.0840790  50.4439549  65.7383142
 104.3991828  50.8238451  65.1880176 105.1684639  51.0534876  66.4715090
 100.3853259  41.5460896  73.6601220 100.1414190  42.3002957  73.1235496
 100.6613189  41.9246244  74.4948467 102.3391721  48.0899508  72.3378486
 102.5508617  48.7331268  71.6612867 102.2921470  47.2561825  71.8700416
  99.9417950  40.7017329  69.2415058  99.0802429  40.9998583  69.5331796
  99.9680385  40.9187728  68.3096091  96.7579520  49.2459520  65.6488864
  97.2217865  49.5247223  64.8593486  96.4936318  48.3442964  65.4661954
  93.6503601  48.7931001  68.5868627  94.2204958  49.2218270  67.9486111
  94.2411713  48.5113586  69.2852813  95.6948406  45.3682672  62.4578429
  96.3972449  45.8203716  62.9252355  95.3629034  44.7266491  63.0858322
  94.1428767  43.9594429  76.8329638  93.5127428  44.6410710  77.0665035
  94.0364855  43.8477510  75.8882776  89.4373740  43.6266225  67.7595562
  88.6472794  43.8823753  67.2835673  89.9284987  44.4414563  67.8647603
 103.4537549  50.9671464  70.5100843 104.2754993  50.5651651  70.2283525
 103.4499952  50.8639698  71.4616959  91.3888485  43.9910804  64.7179039
  90.5919648  44.1029498  65.2362535  91.1614077  44.3297456  63.8519930
  97.2194153  50.5155507  72.6661554  97.2838585  50.9775914  73.5019726
  96.5105077  49.8852872  72.7943864  87.7211443  43.8796715  70.1910553
  87.9719481  44.7643725  70.4568129  88.2570991  43.7001317  69.4185645
  96.9342170  52.1823615  62.5340534  96.7987845  53.0275150  62.9625382
  97.4751983  52.3842892  61.7706468  93.4209510  38.2615195  79.1954889
  93.0276456  37.7081393  79.8702534  94.2375650  38.5725773  79.5861407
  90.3871568  49.6999053  63.1068459  90.8996088  50.4942303  63.2574024
  91.0394281  49.0025343  63.0402061  92.1966452  52.8164809  65.1891212
  92.3733081  53.7382774  65.0012196  92.9923286  52.5023228  65.6185592
  96.3377471  39.6773074  76.7875146  97.0787184  40.2780227  76.7079608
  96.5695394  38.9350711  76.2293188  91.4818809  44.8629441  75.0653376
  91.3672324  43.9614698  75.3660474  90.6263327  45.1093138  74.7138192
  98.5610647  52.8047181  76.6640876  98.1174501  52.0183560  76.3461781
  99.2227860  52.9926332  75.9984767  93.3197768  54.3342983  71.1901555
  93.8705193  54.2060046  70.4178549  92.4809244  54.6337872  70.8396447
 100.6591885  53.0849981  74.6922277 100.6410360  53.9058862  74.2002547
 101.5811805  52.9604056  74.9172419  97.1164939  50.5994111  75.5345786
  97.6493276  49.8382399  75.3045094  96.5879020  50.3067762  76.2769940
 100.2834634  35.7054177  71.0639428  99.9398903  36.5955818  70.9878538
 100.6513597  35.5155834  70.2009013  88.3520485  48.0287707  63.8828030
  89.1895707  48.4384715  63.6661737  88.5298752  47.0887149  63.8528224
 100.2484917  45.6962788  59.5711863  99.7331540  46.4667392  59.8100250
  99.9762225  45.0227924  60.1944924  97.8332028  40.5412488  64.6297101
  96.9773624  40.1519339  64.4502740  98.2458979  40.6204449  63.7696887
  99.3631174  38.0758832  69.0288661  98.8595970  38.0388967  68.2156466
  99.6561781  38.9851574  69.0885317  95.6074060  38.1597561  68.0354843
  96.4727057  37.9640370  67.6760732  95.6751569  37.9307913  68.9624199
 105.2219191  48.4495142  61.5065036 104.4448634  48.1106302  61.0620198
 105.9010672  48.4547765  60.8320001 100.0371220  43.5689880  61.3971644
  99.7321355  43.8836029  62.2481787 100.9901662  43.6471300  61.4398977
  98.4817652  49.7280103  63.0464598  97.9539013  48.9932863  62.7337835
  97.9805154  50.5054779  62.8004566 103.4610498  47.9229124  68.1631644
 102.8034172  48.6128385  68.2511773 104.2650897  48.3125556  68.5065630
  93.2136379  40.3899769  65.4071209  93.7880131  40.1674951  64.6744402
  93.8007362  40.4588464  66.1599811 102.2715957  46.2773496  66.2135586
 102.7847838  46.9103488  66.7157296 102.9217180  45.6774692  65.8478946
  93.5405966  42.4204230  59.4267095  92.7043279  42.7578917  59.7476369
  93.4010736  42.2853210  58.4894232  95.5159047  37.2641018  64.1346279
  94.8623459  36.9490035  63.5102894  95.4739521  36.6416759  64.8606102
  96.6270252  47.5460313  56.0499571  95.7197314  47.3149567  56.2490720
  97.1241284  46.7497933  56.2373552  99.5338331  56.2557821  58.9696257
  98.8600030  56.5589517  59.5781215  99.9204153  57.0586901  58.6201714
  98.7496787  43.7522952  68.4593926  97.8319349  43.9737899  68.3015614
  99.1656931  43.8269262  67.6005634  99.5331835  45.1514367  63.5896607
 100.2803654  45.6635765  63.2803729  99.8023425  44.8298420  64.4501000
  97.8058485  47.6472908  60.5723561  96.8969705  47.3631941  60.6696031
  97.8353569  48.0671987  59.7126868 103.0377753  51.2579498  64.3414728
 102.5840080  50.4170408  64.3979919 102.4071719  51.8940896  64.6789509
 101.9810672  42.1871484  65.5715396 101.2433429  41.6748870  65.9025639
 102.2337446  41.7471865  64.7598673 101.4810692  53.0955994  65.2764547
 101.7733666  53.6561052  64.5576912 101.9909313  53.3884555  66.0317706
 102.0822300  34.9647736  66.1657165 102.3881176  34.1045099  65.8783080
 102.8074904  35.5565356  65.9656159  88.3746656  45.3678422  64.5538763
  88.1771055  44.7747783  63.8289830  87.8193320  45.0630633  65.2714702
  96.3543379  45.2601529  66.6733356  96.4091989  44.3075365  66.5975833
  95.5434581  45.4160968  67.1574655  97.5034573  49.1881652  57.9111639
  97.0654003  48.4717511  57.4517277  98.2445014  49.4157767  57.3496731
  94.2935739  43.8778589  64.4323735  93.4803605  44.1772759  64.8388927
  94.7894733  43.4834277  65.1498217  96.4444317  53.8736345  66.3658000
  96.4020496  54.0997192  65.4366532  97.3607016  53.6399720  66.5143801
  99.8909951  44.3420413  73.2638629 100.2459339  44.5691886  74.1233095
 100.5382082  44.6738790  72.6415884 105.6207688  47.4638849  63.9687958
 105.4825586  47.6540445  63.0409147 105.2643907  48.2258232  64.4256009
  93.7849814  41.4496944  70.0484970  94.4249193  41.3085703  69.3507933
  92.9527345  41.1631457  69.6723572 105.6477067  49.5315376  68.9799230
 106.0813574  49.4390665  69.8282284 106.3608648  49.5072876  68.3419246
  94.5610118  50.7499374  66.1619963  95.3550716  50.2549695  65.9602538
  93.8501810  50.2217238  65.7987668  99.3804962  53.1317470  70.5132330
  99.4341985  53.7008406  71.2810046  98.5119744  53.3019355  70.1486367
  90.8692881  44.8942456  62.2379715  89.9390469  44.8326912  62.4549677
  90.9650353  44.3718409  61.4416356  90.7878430  41.4197269  64.8257957
  91.0485248  42.3342602  64.7167117  91.6095603  40.9521712  64.9754570
  92.2603356  42.8335026  71.9956781  92.9326409  42.6252388  71.3469430
  91.4333142  42.6357112  71.5562014 106.5092617  49.5739077  71.5132115
 106.7028507  50.4784887  71.7591390 106.4093235  49.1146496  72.3470700
  98.1628928  39.4596967  74.0122442  97.5156843  40.1586917  73.9186919
  98.9329943  39.8933111  74.3798690 101.5707726  49.7245819  77.0872996
 101.4193232  49.4956371  76.1703079 101.5612405  50.6816421  77.1004341
  98.3393062  47.2977732  72.0719262  99.2685122  47.4488892  71.8988229
  97.9184092  47.3861753  71.2167909  97.1381394  51.3228396  69.8417800
  96.9992480  50.9547181  70.7143738  96.3495990  51.8376036  69.6701757
  97.7329546  56.4237493  61.1843336  97.9081302  55.9525536  61.9988959
  97.0462334  57.0503259  61.4124597  98.6886609  50.7009999  67.2306637
  98.3536442  50.6610769  68.1264287  98.1890555  50.0354715  66.7577048
  92.6630853  46.1077629  72.7559219  92.5250651  45.3757868  73.3570758
  93.5735776  46.0186529  72.4743406 101.6245801  48.0466034  57.5043697
 101.0074971  47.3212862  57.4076750 101.1562289  48.8075394  57.1610771
  95.2913154  45.8197589  72.2442898  96.0012772  45.1790781  72.2029517
  95.2482462  46.0710483  73.1669079 103.2799932  52.7564942  75.1649477
 103.2212479  52.0724162  74.4980060 103.6819451  53.4983932  74.7130103
  94.0042088  42.8062806  74.0638538  93.4679445  42.3553545  74.7160134
  93.4158796  42.9408715  73.3209002  92.2990631  59.5726856  67.9583196
  92.5387229  60.2045380  68.6362215  91.4559828  59.2214896  68.2448556
  93.4144347  42.2651458  56.6265001  92.5373813  42.1440259  56.2627248
  93.8902100  41.4737536  56.3743890 103.2817340  50.7204526  73.3963457
 102.3944118  50.3830448  73.5189856 103.8515891  49.9887557  73.6332223
  84.9346487  47.0528618  66.7206509  85.6217527  46.7390348  66.1327524
  84.7794615  47.9569982  66.4473760  89.7381209  41.9418814  71.1491532
  89.6539398  41.3344484  70.4141942  88.9163915  42.4327832  71.1501029
  96.8118493  55.3805978  70.3624700  96.7388665  56.1860950  70.8744005
  96.3695886  55.5797944  69.5372722  96.6008273  54.6177748  63.8727522
  95.8175795  55.1599428  63.9665746  97.3001018  55.1351728  64.2721763
  99.9104923  40.4272378  66.5161727 100.4073622  39.6742340  66.1962797
  99.1391904  40.4636694  65.9504937 107.7634680  46.1312743  68.1580019
 107.7524556  47.0137459  67.7873952 106.8952060  45.7784294  67.9634556
  99.2717177  55.2792812  72.5182859  99.9845149  55.9140277  72.4458760
  98.7807205  55.3756678  71.7022861 100.9934703  49.1844065  64.0900151
 100.0590982  49.3045527  63.9204855 101.1711372  48.2816532  63.8260160
  96.4939892  42.5689761  66.2433412  96.1237679  42.0160801  66.9314317
  96.9898984  41.9647894  65.6908412 104.3807255  45.0261384  64.6250185
 104.8467707  45.8589376  64.5510487 104.8314755  44.5606366  65.3295443
  94.3229090  53.0287256  73.3388430  95.0238550  53.6623739  73.4917824
  93.8524205  53.3701987  72.5784069 102.4483486  51.3705205  61.6236337
 102.7243330  51.2561800  62.5330211 101.5787985  50.9722690  61.5848510
 102.3523918  37.3941971  68.6641086 101.4386997  37.6246198  68.8323293
 102.7817019  37.4780415  69.5155118 102.1230376  45.5831863  71.1640980
 101.4701826  45.8307771  70.5093433 102.5010756  44.7696001  70.8303457
  99.0837550  55.6191556  65.2669150  99.2659944  54.8013212  65.7296903
  99.9070536  55.8359249  64.8294040  99.4179715  54.5459741  62.5284199
  99.9467482  54.0352196  61.9154361  99.6807935  54.2302272  63.3929732
  98.1717949  46.3251674  77.6507017  97.4958586  46.2245803  78.3209392
  98.9945583  46.1690888  78.1143014  89.9196808  52.5623611  70.2719532
  90.5050245  51.8167299  70.4047437  89.7221647  52.8727567  71.1556196
  92.7735463  55.5974858  65.2881975  92.1045839  56.0820986  64.8046015
  92.6348333  55.8444079  66.2025353  84.5114463  45.1329211  68.9923976
  84.5498562  44.5992802  69.7861094  84.0054756  44.6064416  68.3734953
  96.9140732  57.6318602  71.8864633  97.4659040  57.7950223  72.6513718
  97.2546925  58.2223039  71.2144658  91.8905225  39.9793751  72.4886518
  91.9546552  40.8408582  72.0763916  91.8272345  39.3667753  71.7558876
  91.3657498  42.0516884  76.1359552  91.9929537  41.6693961  76.7497077
  90.5085417  41.8331086  76.5015245 101.7651606  52.4579859  77.7413288
 102.3091510  53.0709817  77.2468242 101.1838451  53.0159438  78.2580301
  88.1423040  43.8593313  62.0677907  88.4376482  42.9503991  62.0144961
  87.2411076  43.8381053  61.7458909 100.0509119  55.5800577  68.8728315
  99.9260259  54.7790317  68.3639261 100.7088210  56.0746771  68.3842285
  91.6717287  41.9349310  68.0505456  90.9503873  42.5485277  67.9112929
  92.4610543  42.4707074  67.9722102 102.1144028  53.3809597  70.5007865
 101.1674363  53.2614948  70.4286192 102.4626801  52.4932095  70.5834127
  94.4743601  39.2703736  74.3246107  94.9978003  39.5166033  75.0872417
  94.2555934  40.1023771  73.9049245  89.8710882  41.5407411  62.1917232
  89.5423588  40.6604790  62.0092338  90.2250253  41.4855079  63.0793621
  99.1190461  53.1762313  66.7012218  98.9715423  52.2479021  66.8819788
  99.9443954  53.1982404  66.2169293  92.9852705  41.8280381  62.5592710
  93.3248778  42.3566302  61.8371318  93.4324826  42.1660787  63.3351276
 102.7224583  53.9990872  67.7877090 103.6471130  53.7933734  67.6501542
 102.5539886  53.7507273  68.6966432  95.6796146  40.2117431  72.0095778
  95.3392966  39.4125244  72.4116458  94.9735152  40.5119142  71.4372611
  96.3312618  37.2966744  70.4623101  97.1538687  36.8227222  70.3401991
  96.5750681  38.0757227  70.9621787  94.9720852  40.3255002  60.7586003
  95.6929215  40.7036255  60.2549719  94.3486156  41.0443879  60.8620981
  99.1151975  41.0300151  61.6944335  99.3315590  41.9124789  61.3933163
  98.6346042  40.6386364  60.9649977  93.8551197  43.9885864  68.2715080
  93.7095777  44.3026167  69.1639361  93.3776400  44.6070765  67.7185978
  95.7147579  40.9788412  68.3195969  95.7009148  40.0829506  67.9828267
  96.4320008  40.9859076  68.9534255  97.5673710  41.4125753  70.3649097
  97.3091488  42.3342823  70.3633427  97.0358751  41.0156187  71.0549561
 102.5119899  54.5176540  63.1439182 102.6856777  53.9522962  62.3913034
 103.0048790  55.3177435  62.9618672  88.3296859  46.5291209  71.2102741
  87.7850327  47.3051017  71.3423015  89.2076209  46.8762013  71.0521862
  95.1184475  39.8602793  63.5883539  95.2400387  38.9319439  63.7874427
  94.8286518  39.8741479  62.6761855  97.9875666  37.5457703  66.7250259
  98.0097363  37.6097036  65.7702239  98.4043725  36.7062212  66.9190765
 103.4995071  53.8343304  60.2436080 104.1945976  54.4549997  60.4623395
 103.8418222  52.9838655  60.5188458  89.1162881  45.6561105  74.1032898
  88.3744617  45.8043740  74.6897528  88.7955625  45.9169371  73.2399647
 105.3986495  51.2843010  61.7723411 105.9237819  51.6230282  61.0472731
 105.3108847  50.3490025  61.5886546  97.0606543  55.1977083  73.9013288
  97.3693670  54.9526230  74.7735987  97.8582025  55.4023722  73.4132158
  97.0827155  57.3514993  66.1318664  96.6432146  56.8591372  66.8251521
  97.8335272  56.8087961  65.8910739  89.5619494  53.5426534  66.1343292
  90.3877514  53.2430306  65.7541936  89.2113546  52.7734156  66.5833081
  94.5301027  52.8953002  68.2040966  93.9081037  52.2323707  67.9043194
  95.2005894  52.9214134  67.5214614  87.7628099  51.4612860  67.0932226
  86.9260008  51.0335035  66.9116227  87.7351745  51.6545303  68.0303017
  94.6025555  41.3734790  77.7973472  94.6513710  42.2496913  77.4151241
  95.1448069  40.8312183  77.2245115 105.0880401  51.9175913  77.0774609
 104.2975944  51.9000052  76.5379108 104.8513755  52.4564207  77.8323646
 105.2078276  48.7668380  74.3907337 105.2576281  48.6018387  75.3322860
 105.0992199  47.8995639  74.0005218  94.0914534  51.4456925  61.6799426
  94.2402655  52.1292390  61.0266099  94.8980978  51.4262015  62.1948882
 102.4982038  44.7499308  75.7066644 103.3991901  44.6105772  75.4150642
 102.5730013  44.9153762  76.6464822  96.8324843  42.1266162  74.5519830
  95.9628153  42.4199728  74.2802419  97.0684324  42.7106607  75.2727094
 106.7096473  51.1865321  74.6349359 106.4181281  51.5495302  75.4712820
 106.0968604  50.4732329  74.4562691 104.9583661  46.3097936  73.1029417
 105.4337782  46.5025582  72.2948268 104.0349226  46.3657122  72.8572801
  91.8467167  47.4722103  62.6860495  91.6013209  46.5684433  62.8840705
  92.0163082  47.4739253  61.7439973  99.5363877  38.3445779  72.0685251
 100.0545821  39.0806806  71.7431739  99.1819010  38.6509773  72.9032010
  91.1162815  43.2050460  60.1846657  90.4232060  43.2794815  59.5286693
  90.8714567  42.4410804  60.7068174  99.7876471  34.7646062  67.5886147
 100.0678225  34.0969251  68.2146574 100.5727078  34.9575157  67.0760811
  97.5909940  53.9405056  59.1511174  97.0183907  54.5595243  58.6981646
  98.1642734  54.4904417  59.6851096 103.6585330  43.1863696  71.3357723
 104.6102753  43.2861793  71.3569947 103.4888780  42.3941964  71.8455807
 101.6799709  40.2719279  71.5217124 101.0849641  40.5524292  70.8263612
 101.3949406  40.7613180  72.2933865 100.8107200  54.2242206  60.2819756
 101.7437873  54.1587768  60.4852632 100.7230413  55.0598473  59.8234289
 103.4395216  53.5408076  57.2423704 103.3608848  53.2067940  58.1359462
 104.2604883  54.0329844  57.2415176 106.1373408  46.4069815  70.4500022
 106.1049728  45.4685816  70.6359706 106.7474031  46.4853852  69.7165847
  97.9756738  45.2765868  56.4927226  98.9215843  45.1472077  56.5615644
  97.5970983  44.5380530  56.9696654 106.2867896  43.1980859  70.4958305
 105.7706945  42.4139316  70.3088234 107.1707845  42.8699576  70.6604825
 103.9478623  36.9421874  66.4554118 103.7503444  36.6336963  67.3397450
 104.5578329  37.6683513  66.5852048  97.8595431  49.3283615  77.9527883
  98.7798440  49.5062214  78.1467930  97.8245014  48.3839660  77.8007583
  96.1599656  43.2015845  56.4282112  95.2531111  42.9048958  56.5044825
  96.4375637  42.9045663  55.5616398  87.0777596  44.5222208  66.8781158
  86.7580380  43.6687516  66.5855532  86.5311024  44.7370786  67.6339125
  90.8557503  47.2384649  70.5950664  91.0743513  48.1701757  70.6138698
  91.2683277  46.8792624  71.3805468  97.7761721  37.7452735  62.5826353
  96.9662450  37.3999820  62.9581599  98.4646138  37.4360278  63.1713964
  99.7052270  36.8230781  64.2050649 100.2583308  37.2426235  64.8640673
  99.9422356  35.8966529  64.2473605  95.7285369  42.8117855  79.9853413
  95.6282096  43.7612212  79.9165504  95.5106911  42.4836094  79.1129483
  94.9298440  40.0602780  56.5694091  95.7917604  40.3857678  56.8289908
  95.1148784  39.2734276  56.0567156  86.9465856  48.1425120  68.8474279
  86.2529327  47.7279073  68.3344234  87.6938847  48.1845656  68.2507698
 103.0831077  38.9331307  63.7129314 102.5029746  39.5916111  63.3307366
 102.8167009  38.1108651  63.3016731 101.5334643  38.3336364  65.9150634
 102.0334421  38.4452899  65.1064953 102.1770251  38.0297417  66.5551442
  95.5916639  46.2414994  78.8018475  95.1083721  47.0415354  79.0082364
  95.6777578  46.2522939  77.8485919  88.8602598  48.0743374  66.7240294
  88.8373287  48.1731061  65.7722177  89.1703235  48.9208524  67.0457460
  91.5189976  50.1319529  70.8386909  92.4733230  50.1003471  70.7716840
  91.3202500  49.6710152  71.6537135  92.1089358  48.7020645  73.4057706
  92.9282247  49.1964723  73.4292544  92.3826166  47.7852613  73.3775274
 101.8655955  41.0931397  62.7685662 100.9781810  41.3781048  62.5505857
 102.2809944  40.9325160  61.9212939 105.2170491  41.1177918  66.4840001
 105.9930881  41.6074370  66.7564618 104.4918625  41.5435972  66.9411871
 107.6543049  41.8305537  67.5413942 108.2487540  41.5901273  66.8307250
 107.7269633  41.1112668  68.1687478  89.8740205  55.6739148  67.8557107
  89.7394673  54.9139549  67.2895105  89.4572267  56.3980048  67.3885896
 101.0099168  50.8576072  56.8633682 101.7135018  51.0626074  57.4791338
 100.2861817  51.4252833  57.1282765 101.8396978  46.6085933  62.9835952
 101.7832180  47.0654484  62.1443585 102.3925321  45.8476617  62.8058795
 105.6501784  42.3975665  63.8086072 105.3938719  41.9972300  64.6394279
 105.0254652  43.1119459  63.6836211  93.0309331  56.5708465  68.0675549
  92.9141715  57.5153898  67.9654240  92.2101777  56.2682027  68.4561349
 102.9185866  51.2958601  58.9132142 103.7531469  50.8639799  58.7309617
 102.7570208  51.1240614  59.8409036 102.5731758  47.7990714  60.2788481
 102.5180562  47.6334986  59.3376925 101.9477813  48.5066747  60.4350671
  87.3624273  43.0358778  74.1049904  88.0083136  42.5257732  74.5937129
  87.1541424  43.7727460  74.6793329  99.8877665  50.1039626  79.6042044
 100.7568825  50.2780278  79.2428679  99.4084416  50.9234043  79.4817773
  95.8827883  37.2998823  59.8573800  95.8706553  38.2440663  60.0142071
  96.7751305  37.1168969  59.5633261  94.0563845  57.2236727  71.2831478
  94.9591092  57.2560337  71.5997973  93.8301215  56.2937178  71.2977814
  95.8117447  55.9767714  67.9441556  94.8613078  55.9769575  67.8305929
  96.1149933  55.2300448  67.4277591  99.6980003  33.8941600  64.1119736
  98.9312398  33.3400086  64.2576419 100.1090708  33.9663469  64.9733888
  91.7021764  40.1826396  78.2024918  92.5653225  39.8263200  78.4128242
  91.1287174  39.8440290  78.8900322 104.2146663  63.6191156  64.9345734
 103.6511528  63.5281093  64.1662022 104.0999058  62.7991061  65.4148227
 101.7611095  65.1142348  67.7729955 102.5532386  64.7733173  67.3576254
 102.0007745  65.2237323  68.6932108 103.7201848  64.3751261  60.6447334
 104.4932724  63.8280248  60.5060209 104.0727247  65.2395511  60.8561795
 105.5586891  65.7027644  73.8514233 105.2676757  66.6073274  73.7360899
 106.1943875  65.7444171  74.5658303 106.4843098  63.0804492  70.4415593
 107.0806670  62.8560514  69.7272556 106.5418069  62.3389238  71.0441040
 106.0568126  60.5343927  58.2765784 106.3093647  60.0125449  57.5149247
 105.1192685  60.3710073  58.3792467 105.7764415  62.4372033  60.4790159
 105.6600673  61.7616937  61.1471243 105.8866675  61.9504407  59.6622312
 107.7601443  56.9272080  59.1798196 107.9275845  57.7952317  59.5468667
 107.5698612  57.0899362  58.2559486 103.9689258  61.8402856  66.8800731
 103.0439754  61.7079070  67.0878423 104.2173671  62.6197075  67.3770673
 107.7390664  59.3829738  60.1644863 107.6190289  59.8286788  61.0030343
 107.0443252  59.7315055  59.6058401 101.3298069  61.4836129  67.7144520
 101.4590450  61.7370608  68.6283932 100.6495520  62.0763837  67.3949175
 105.4997556  72.1533379  63.8134994 105.4221586  73.1041204  63.8923475
 104.8959200  71.8079252  64.4709921 106.2461158  62.1346698  76.0314328
 106.9875842  62.6731742  75.7549152 105.5398143  62.7612987  76.1885880
 107.5973274  64.5751437  65.6488864 108.0611620  64.8539140  64.8593486
 107.3330072  63.6734882  65.4661954 104.4897355  64.1222919  68.5868627
 105.0598712  64.5510187  67.9486111 105.0805467  63.8405504  69.2852813
 106.5342160  60.6974590  62.4578429 107.2366204  61.1495633  62.9252355
 106.2022789  60.0558409  63.0858322 104.9822522  59.2886346  76.8329638
 104.3521182  59.9702627  77.0665035 104.8758610  59.1769428  75.8882776
 100.2767494  58.9558142  67.7595562  99.4866548  59.2115671  67.2835673
 100.7678742  59.7706480  67.8647603 102.2282240  59.3202722  64.7179039
 101.4313403  59.4321416  65.2362535 102.0007832  59.6589374  63.8519930
 108.0587907  65.8447425  72.6661554 108.1232340  66.3067832  73.5019726
 107.3498831  65.2144790  72.7943864  98.5605197  59.2088633  70.1910553
  98.8113236  60.0935643  70.4568129  99.0964746  59.0293234  69.4185645
 107.7735925  67.5115532  62.5340534 107.6381600  68.3567068  62.9625382
 108.3145737  67.7134810  61.7706468 104.2603264  53.5907112  79.1954889
 103.8670210  53.0373311  79.8702534 105.0769405  53.9017691  79.5861407
 101.2265322  65.0290970  63.1068459 101.7389843  65.8234221  63.2574024
 101.8788035  64.3317261  63.0402061 103.0360207  68.1456727  65.1891212
 103.2126835  69.0674691  65.0012196 103.8317040  67.8315146  65.6185592
 107.1771225  55.0064991  76.7875146 107.9180939  55.6072144  76.7079608
 107.4089148  54.2642629  76.2293188 102.3212563  60.1921359  75.0653376
 102.2066079  59.2906616  75.3660474 101.4657081  60.4385055  74.7138192
 104.1591522  69.6634900  71.1901555 104.7098948  69.5351964  70.4178549
 103.3202998  69.9629789  70.8396447  99.1914239  63.3579625  63.8828030
 100.0289461  63.7676633  63.6661737  99.3692507  62.4179067  63.8528224
 106.4467815  53.4889479  68.0354843 107.3120811  53.2932288  67.6760732
 106.5145324  53.2599831  68.9624199 104.0530134  55.7191687  65.4071209
 104.6273886  55.4966869  64.6744402 104.6401116  55.7880382  66.1599811
 104.3799721  57.7496148  59.4267095 103.5437033  58.0870835  59.7476369
 104.2404491  57.6145128  58.4894232 106.3552801  52.5932936  64.1346279
 105.7017214  52.2781953  63.5102894 106.3133276  51.9708676  64.8606102
 107.4664006  62.8752231  56.0499571 106.5591068  62.6441484  56.2490720
 107.9635038  62.0789850  56.2373552  99.2140410  60.6970340  64.5538763
  99.0164810  60.1039701  63.8289830  98.6587074  60.3922550  65.2714702
 107.1937134  60.5893446  66.6733356 107.2485744  59.6367283  66.5975833
 106.3828336  60.7452886  67.1574655 105.1329494  59.2070506  64.4323735
 104.3197359  59.5064677  64.8388927 105.6288488  58.8126195  65.1498217
 107.2838072  69.2028263  66.3658000 107.2414250  69.4289109  65.4366532
 108.2000770  68.9691638  66.5143801 104.6243569  56.7788862  70.0484970
 105.2642948  56.6377621  69.3507933 103.7921099  56.4923375  69.6723572
 105.4003872  66.0791292  66.1619963 106.1944471  65.5841612  65.9602538
 104.6895565  65.5509155  65.7987668 101.7086636  60.2234374  62.2379715
 100.7784224  60.1618829  62.4549677 101.8044108  59.7010327  61.4416356
 101.6272185  56.7489187  64.8257957 101.8879002  57.6634520  64.7167117
 102.4489357  56.2813629  64.9754570 103.0997110  58.1626944  71.9956781
 103.7720164  57.9544306  71.3469430 102.2726897  57.9649030  71.5562014
 107.9775148  66.6520314  69.8417800 107.8386234  66.2839099  70.7143738
 107.1889745  67.1667954  69.6701757 103.5024608  61.4369547  72.7559219
 103.3644405  60.7049786  73.3570758 104.4129531  61.3478447  72.4743406
 106.1306908  61.1489506  72.2442898 106.8406527  60.5082698  72.2029517
 106.0876216  61.4002401  73.1669079 104.8435842  58.1354724  74.0638538
 104.3073199  57.6845463  74.7160134 104.2552551  58.2700633  73.3209002
 103.1384386  74.9018773  67.9583196 103.3780984  75.5337298  68.6362215
 102.2953582  74.5506813  68.2448556 104.2538101  57.5943376  56.6265001
 103.3767567  57.4732176  56.2627248 104.7295854  56.8029454  56.3743890
  95.7740241  62.3820535  66.7206509  96.4611281  62.0682265  66.1327524
  95.6188370  63.2861900  66.4473760 100.5774963  57.2710732  71.1491532
 100.4933152  56.6636401  70.4141942  99.7557670  57.7619750  71.1501029
 107.6512248  70.7097896  70.3624700 107.5782419  71.5152867  70.8744005
 107.2089641  70.9089862  69.5372722 107.4402027  69.9469666  63.8727522
 106.6569549  70.4891346  63.9665746 108.1394772  70.4643646  64.2721763
 107.3333646  57.8981678  66.2433412 106.9631434  57.3452719  66.9314317
 107.8292738  57.2939812  65.6908412 105.1622845  68.3579173  73.3388430
 105.8632304  68.9915656  73.4917824 104.6917960  68.6993905  72.5784069
 100.7590563  67.8915528  70.2719532 101.3443999  67.1459216  70.4047437
 100.5615401  68.2019485  71.1556196 103.6129218  70.9266776  65.2881975
 102.9439593  71.4112903  64.8046015 103.4742088  71.1735996  66.2025353
  95.3508217  60.4621129  68.9923976  95.3892317  59.9284719  69.7861094
  94.8448510  59.9356334  68.3734953 107.7534486  72.9610519  71.8864633
 108.3052794  73.1242141  72.6513718 108.0940680  73.5514957  71.2144658
 102.7298980  55.3085669  72.4886518 102.7940306  56.1700500  72.0763916
 102.6666100  54.6959671  71.7558876 102.2051252  57.3808802  76.1359552
 102.8323291  56.9985879  76.7497077 101.3479171  57.1623004  76.5015245
  98.9816795  59.1885231  62.0677907  99.2770236  58.2795909  62.0144961
  98.0804831  59.1672970  61.7458909 102.5111042  57.2641227  68.0505456
 101.7897628  57.8777195  67.9112929 103.3004298  57.7998992  67.9722102
 105.3137355  54.5995654  74.3246107 105.8371757  54.8457950  75.0872417
 105.0949689  55.4315689  73.9049245 100.7104637  56.8699328  62.1917232
 100.3817343  55.9896707  62.0092338 101.0644007  56.8146997  63.0793621
 103.8246460  57.1572298  62.5592710 104.1642532  57.6858219  61.8371318
 104.2718580  57.4952704  63.3351276 106.5189901  55.5409349  72.0095778
 106.1786721  54.7417162  72.4116458 105.8128907  55.8411060  71.4372611
 107.1706372  52.6258661  70.4623101 107.9932442  52.1519140  70.3401991
 107.4144436  53.4049145  70.9621787 105.8114607  55.6546920  60.7586003
 106.5322969  56.0328173  60.2549719 105.1879911  56.3735797  60.8620981
 104.6944951  59.3177782  68.2715080 104.5489532  59.6318085  69.1639361
 104.2170155  59.9362682  67.7185978 106.5541334  56.3080330  68.3195969
 106.5402903  55.4121423  67.9828267 107.2713762  56.3150994  68.9534255
  99.1690613  61.8583126  71.2102741  98.6244081  62.6342934  71.3423015
 100.0469963  62.2053931  71.0521862 105.9578230  55.1894710  63.5883539
 106.0794141  54.2611356  63.7874427 105.6680272  55.2033396  62.6761855
  99.9556635  60.9853023  74.1032898  99.2138371  61.1335658  74.6897528
  99.6349379  61.2461288  73.2399647 100.4013249  68.8718451  66.1343292
 101.2271269  68.5722223  65.7541936 100.0507301  68.1026074  66.5833081
 105.3694782  68.2244920  68.2040966 104.7474791  67.5615625  67.9043194
 106.0399649  68.2506051  67.5214614  98.6021854  66.7904778  67.0932226
  97.7653762  66.3626952  66.9116227  98.5745499  66.9837221  68.0303017
 105.4419309  56.7026708  77.7973472 105.4907465  57.5788830  77.4151241
 105.9841824  56.1604101  77.2245115 104.9308289  66.7748843  61.6799426
 105.0796409  67.4584307  61.0266099 105.7374732  66.7553933  62.1948882
 107.6718598  57.4558080  74.5519830 106.8021907  57.7491646  74.2802419
 107.9078078  58.0398525  75.2727094 102.6860922  62.8014021  62.6860495
 102.4406964  61.8976351  62.8840705 102.8556836  62.8031171  61.7439973
 101.9556569  58.5342378  60.1846657 101.2625814  58.6086733  59.5286693
 101.7108321  57.7702722  60.7068174 106.9993410  58.5307763  56.4282112
 106.0924865  58.2340875  56.5044825 107.2769391  58.2337581  55.5616398
  97.9171350  59.8514126  66.8781158  97.5974135  58.9979434  66.5855532
  97.3704779  60.0662704  67.6339125 101.6951258  62.5676567  70.5950664
 101.9137268  63.4993675  70.6138698 102.1077032  62.2084541  71.3805468
 106.5679123  58.1409773  79.9853413 106.4675850  59.0904130  79.9165504
 106.3500665  57.8128012  79.1129483 105.7692195  55.3894698  56.5694091
 106.6311359  55.7149596  56.8289908 105.9542539  54.6026194  56.0567156
  97.7859610  63.4717037  68.8474279  97.0923082  63.0570990  68.3344234
  98.5332601  63.5137574  68.2507698 106.4310393  61.5706912  78.8018475
 105.9477475  62.3707272  79.0082364 106.5171332  61.5814856  77.8485919
  99.6996353  63.4035291  66.7240294  99.6767041  63.5022978  65.7722177
 100.0096989  64.2500442  67.0457460 102.3583731  65.4611446  70.8386909
 103.3126984  65.4295389  70.7716840 102.1596254  65.0002070  71.6537135
 102.9483113  64.0312562  73.4057706 103.7676002  64.5256641  73.4292544
 103.2219921  63.1144530  73.3775274 100.7133960  71.0031066  67.8557107
 100.5788428  70.2431467  67.2895105 100.2966022  71.7271966  67.3885896
 103.8703086  71.9000383  68.0675549 103.7535470  72.8445815  67.9654240
 103.0495532  71.5973944  68.4561349  98.2018027  58.3650696  74.1049904
  98.8476891  57.8549650  74.5937129  97.9935178  59.1019378  74.6793329
 106.7221638  52.6290741  59.8573800 106.7100308  53.5732581  60.0142071
 107.6145060  52.4460886  59.5633261 104.8957600  72.5528645  71.2831478
 105.7984846  72.5852255  71.5997973 104.6694970  71.6229096  71.2977814
 106.6511202  71.3059631  67.9441556 105.7006833  71.3061493  67.8305929
 106.9543688  70.5592366  67.4277591 102.5415518  55.5118313  78.2024918
 103.4046980  55.1555118  78.4128242 101.9680929  55.1732208  78.8900322
 106.6133996  77.7112453  66.7206509 107.3005036  77.3974183  66.1327524
 106.4582124  78.6153818  66.4473760 106.1901972  75.7913046  68.9923976
 106.2286071  75.2576637  69.7861094 105.6842265  75.2648252  68.3734953
  70.6203123   5.9205143  54.6828503  70.8599722   6.5523667  55.3607522
  69.7772320   5.5693183  54.9693862  82.5359155   9.9669444  51.6591041
  81.9724020   9.8759381  50.8907329  82.4211550   9.1469348  52.1393534
  80.0823587  11.4620635  54.4975261  80.8744879  11.1211460  54.0821561
  80.3220237  11.5715610  55.4177415  88.1158714  13.6340411  46.9705506
  87.4646693  14.2194492  46.5839520  88.9103076  14.1646606  47.0300543
  82.0414341  10.7229549  47.3692640  82.8145217  10.1758536  47.2305516
  82.3939740  11.5873798  47.5807102  83.8799383  12.0505931  60.5759540
  83.5889249  12.9551562  60.4606206  84.5156368  12.0922458  61.2903609
  84.8055590   9.4282779  57.1660899  85.4019162   9.2038802  56.4517862
  84.8630562   8.6867525  57.7686347  89.5933979  11.3230843  47.5074490
  88.9579812  11.3965470  48.2195395  89.2631385  11.9124442  46.8293569
  84.0976907   8.7850321  47.2035465  83.9813165   8.1095224  47.8716549
  84.2079167   8.2982695  46.3867618  88.8389268  11.7367346  57.5709333
  88.5389992  12.6392385  57.4625140  88.4940328  11.4699530  58.4230486
  82.2901750   8.1881143  53.6046038  81.3652246   8.0557357  53.8123729
  82.5386163   8.9675362  54.1015980  79.6510561   7.8314417  54.4389827
  79.7802942   8.0848896  55.3529238  78.9708012   8.4242125  54.1194482
  83.8210048  18.5011667  50.5380301  83.7434078  19.4519492  50.6168782
  83.2171692  18.1557539  51.1955227  84.5673650   8.4824985  62.7559635
  85.3088335   9.0210029  62.4794458  83.8610636   9.1091274  62.9131187
  90.0428990  10.6254126  61.3531796  90.4512346  10.1836536  60.6086429
  89.3206251  10.0506753  61.6065989  90.3657805  11.1855317  55.1084085
  89.7366667  11.3501031  54.4060153  89.9783467  11.5996926  55.8795049
  94.2447036  12.1209754  52.4628449  93.5598075  12.5008656  51.9125482
  94.3290886  12.7305081  53.1960397  85.9185766  10.9229725  52.3734170
  86.3824112  11.2017428  51.5838793  85.6542565  10.0213169  52.1907261
  82.8109848  10.4701206  55.3113934  83.3811205  10.8988475  54.6731418
  83.4017959  10.1883791  56.0098119  92.6143796  12.6441669  57.2346150
  93.4361240  12.2421856  56.9528831  92.6106199  12.5409903  58.1862266
  86.3800399  12.1925712  59.3906860  86.4444832  12.6546119  60.2265032
  85.6711323  11.5623077  59.5189170  76.8817689   5.5566920  56.9155860
  77.1325728   6.4413930  57.1813436  77.4177238   5.3771522  56.1430952
  86.0948417  13.8593820  49.2585841  85.9594092  14.7045355  49.6870689
  86.6358230  14.0613097  48.4951774  79.5477815  11.3769258  49.8313766
  80.0602335  12.1712508  49.9819330  80.2000527  10.6795548  49.7647367
  81.3572699  14.4935014  51.9136519  81.5339328  15.4152979  51.7257503
  82.1529533  14.1793433  52.3430899  87.7216894  14.4817386  63.3886183
  87.2780748  13.6953765  63.0707087  88.3834107  14.6696537  62.7230074
  82.4804015  16.0113188  57.9146861  83.0311440  15.8830251  57.1423855
  81.6415491  16.3108077  57.5641754  89.8198132  14.7620186  61.4167584
  89.8016607  15.5829067  60.9247853  90.7418052  14.6374261  61.6417725
  86.2771186  12.2764316  62.2591092  86.8099523  11.5152604  62.0290400
  85.7485267  11.9837967  63.0015247  77.5126731   9.7057912  50.6073336
  78.3501953  10.1154920  50.3907044  77.6904999   8.7657354  50.5773530
  87.6423898  11.4050308  49.7709904  87.1145260  10.6703068  49.4583142
  87.1411401  12.1824984  49.5249873  85.7876499   9.2230518  42.7744877
  84.8803560   8.9919772  42.9736026  86.2847531   8.4268138  42.9618859
  88.6944578  17.9328025  45.6941564  88.0206276  18.2359722  46.3026521
  89.0810399  18.7357106  45.3447021  86.9664732   9.3243113  47.2968868
  86.0575951   9.0402146  47.3941337  86.9959816   9.7442192  46.4372174
  92.1983999  12.9349703  51.0660035  91.7446327  12.0940613  51.1225226
  91.5677966  13.5711101  51.4034815  90.6416939  14.7726199  52.0009853
  90.9339913  15.3331256  51.2822219  91.1515559  15.0654760  52.7563012
  77.5352902   7.0448627  51.2784070  77.3377302   6.4517988  50.5535136
  76.9799566   6.7400837  51.9960009  86.6640820  10.8651857  44.6356946
  86.2260250  10.1487716  44.1762583  87.4051261  11.0927972  44.0742038
  85.6050564  15.5506550  53.0903306  85.5626743  15.7767397  52.1611838
  86.5213263  15.3169925  53.2389108  83.7216365  12.4269579  52.8865269
  84.5156963  11.9319900  52.6847844  83.0108057  11.8987443  52.5232975
  88.5411209  14.8087675  57.2377637  88.5948231  15.3778611  58.0055353
  87.6725991  14.9789560  56.8731674  90.7313972  11.4016024  63.8118302
  90.5799479  11.1726576  62.8948386  90.7218652  12.3586626  63.8249647
  87.4999309   8.9747937  58.7964569  88.4291369   9.1259097  58.6233536
  87.0790339   9.0631958  57.9413215  86.2987641  12.9998601  56.5663106
  86.1598726  12.6317386  57.4389044  85.5102237  13.5146241  56.3947064
  86.8935793  18.1007698  47.9088643  87.0687548  17.6295741  48.7234265
  86.2068581  18.7273464  48.1369904  87.8492856  12.3780204  53.9551944
  87.5142688  12.3380974  54.8509594  87.3496802  11.7124920  53.4822354
  81.8237100   7.7847834  59.4804525  81.6856898   7.0528073  60.0816064
  82.7342023   7.6956734  59.1988713  92.4406179  14.4335147  61.8894784
  92.3818725  13.7494367  61.2225367  92.8425698  15.1754137  61.4375410
  81.4596878  21.2497061  54.6828503  81.6993476  21.8815585  55.3607522
  80.6166074  20.8985101  54.9693862  92.4423586  12.3974731  60.1208764
  91.5550365  12.0600653  60.2435163  93.0122137  11.6657762  60.3577529
  74.0952734   8.7298822  53.4451815  74.7823773   8.4160553  52.8572830
  73.9400862   9.6340187  53.1719067  85.9724740  17.0576183  57.0870007
  85.8994911  17.8631155  57.5989312  85.5302133  17.2568149  56.2618028
  85.7614519  16.2947953  50.5972828  84.9782041  16.8369633  50.6911053
  86.4607265  16.8121933  50.9967070  88.4323423  16.9563017  59.2428166
  89.1451396  17.5910482  59.1704067  87.9413452  17.0526883  58.4268167
  90.1540950  10.8614270  50.8145457  89.2197229  10.9815732  50.6450162
  90.3317619   9.9586737  50.5505467  83.4835337  14.7057461  60.0633736
  84.1844796  15.3393944  60.2163131  83.0130452  15.0472192  59.3029376
  91.6089733  13.0475410  48.3481643  91.8849577  12.9332005  49.2575518
  90.7394231  12.6492895  48.3093817  88.2443797  17.2961761  51.9914457
  88.4266191  16.4783417  52.4542209  89.0676783  17.5129453  51.5539347
  88.5785962  16.2229946  49.2529506  89.1073729  15.7122401  48.6399668
  88.8414182  15.9072477  50.1175039  79.0803055  14.2393816  56.9964839
  79.6656492  13.4937504  57.1292743  78.8827893  14.5497772  57.8801503
  81.9341710  17.2745063  52.0127281  81.2652085  17.7591191  51.5291322
  81.7954580  17.5214283  52.9270660  73.6720710   6.8099416  55.7169282
  73.7104809   6.2763007  56.5106400  73.1661002   6.2834621  55.0980259
  86.0746979  19.3088807  58.6109940  86.6265287  19.4720428  59.3759025
  86.4153172  19.8993244  57.9389965  90.9257853  14.1350064  64.4658594
  91.4697757  14.7480022  63.9713549  90.3444698  14.6929642  64.9825607
  89.2115366  17.2570782  55.5973622  89.0866505  16.4560522  55.0884568
  89.8694457  17.7516975  55.1087592  91.2750274  15.0579802  57.2253172
  90.3280610  14.9385153  57.1531499  91.6233047  14.1702300  57.3079434
  88.2796708  14.8532518  53.4257524  88.1321670  13.9249226  53.6065094
  89.1050201  14.8752609  52.9414600  91.8830830  15.6761077  54.5122397
  92.8077377  15.4703938  54.3746848  91.7146133  15.4277478  55.4211739
  91.6726146  16.1946745  49.8684489  91.8463023  15.6293167  49.1158341
  92.1655037  16.9947639  49.6863978  77.4903106   8.2061414  57.9348047
  76.9456574   8.9821222  58.0668322  78.3682455   8.5532218  57.7767169
  92.6601318  15.5113509  46.9681387  93.3552223  16.1320202  47.1868701
  93.0024468  14.6608860  47.2433765  78.2769127   7.3331310  60.8278204
  77.5350863   7.4813945  61.4142835  77.9561872   7.5939576  59.9644954
  94.5592741  12.9613214  48.4968718  95.0844065  13.3000487  47.7718038
  94.4715094  12.0260230  48.3131852  86.2212790  16.8747288  60.6258594
  86.5299916  16.6296435  61.4981294  87.0188272  17.0793927  60.1377464
  86.2433402  19.0285198  52.8563971  85.8038392  18.5361576  53.5496827
  86.9941519  18.4858165  52.6156046  78.7225741  15.2196739  52.8588599
  79.5483761  14.9200510  52.4787242  78.3719793  14.4504361  53.3078388
  83.6907274  14.5723207  54.9286272  83.0687284  13.9093912  54.6288500
  84.3612141  14.5984339  54.2459920  76.9234346  13.1383065  53.8177532
  76.0866254  12.7105239  53.6361534  76.8957992  13.3315508  54.7548324
  94.2486647  13.5946118  63.8019916  93.4582191  13.5770257  63.2624415
  94.0120002  14.1334412  64.5568952  83.2520781  13.1227130  48.4044733
  83.4008902  13.8062595  47.7511406  84.0587225  13.1032220  48.9194189
  95.8702719  12.8635526  61.3594666  95.5787528  13.2265507  62.1958127
  95.2574851  12.1502534  61.1807998  81.0073414   9.1492308  49.4105802
  80.7619456   8.2454638  49.6086012  81.1769329   9.1509458  48.4685280
  86.7516187  15.6175261  45.8756480  86.1790154  16.2365448  45.4226952
  87.3248980  16.1674622  46.4096402  89.9713446  15.9012411  47.0065063
  90.9044120  15.8357972  47.2097938  89.8836659  16.7368678  46.5479595
  92.6001463  15.2178281  43.9669010  92.5215095  14.8838145  44.8604768
  93.4211130  15.7100049  43.9660483  87.0201678  11.0053820  64.6773190
  87.9404687  11.1832419  64.8713236  86.9851261  10.0609865  64.5252889
  76.2383843   6.1992413  53.6026465  75.9186627   5.3457721  53.3100839
  75.6917271   6.4140991  54.3584432  80.0163750   8.9154854  57.3195971
  80.2349760   9.8471962  57.3384005  80.4289524   8.5562829  58.1050775
  76.1072103   9.8195325  55.5719586  75.4135574   9.4049277  55.0589541
  76.8545094   9.8615861  54.9753005  84.7522886   7.9185199  65.5263782
  84.2689967   8.7185559  65.7327671  84.8383825   7.9293144  64.5731226
  78.0208845   9.7513578  53.4485601  77.9979533   9.8501266  52.4967484
  78.3309482  10.5978729  53.7702767  80.6796223  11.8089733  57.5632215
  81.6339477  11.7773676  57.4962147  80.4808747  11.3480357  58.3782441
  81.2695605  10.3790850  60.1303013  82.0888494  10.8734928  60.1537850
  81.5432413   9.4622818  60.1020581  79.0346452  17.3509353  54.5802413
  78.9000920  16.5909754  54.0140411  78.6178514  18.0750253  54.1131202
  90.1705415  12.5346277  43.5878989  90.8741265  12.7396279  44.2036644
  89.4468064  13.1023038  43.8528072  82.1915578  18.2478670  54.7920856
  82.0747962  19.1924102  54.6899546  81.3708024  17.9452232  55.1806655
  92.0792112  12.9728806  45.6377449  92.9137716  12.5410004  45.4554923
  91.9176455  12.8010819  46.5654343  89.0483912  11.7809831  66.3287351
  89.9175071  11.9550483  65.9673986  88.5690663  12.6004248  66.2063080
  83.2170092  18.9006932  58.0076784  84.1197339  18.9330542  58.3243279
  82.9907462  17.9707383  58.0223120  84.9723694  17.6537918  54.6686863
  84.0219325  17.6539780  54.5551235  85.2756180  16.9070653  54.1522898
 100.7076387  23.4898457  55.7332625 101.3454797  23.3705204  55.0295965
 100.5897230  24.4379301  55.7920578  97.5166094  23.4425885  55.6694150
  97.1784605  23.3266950  54.7814685  98.3855862  23.0417050  55.6495156
  93.3752909  25.2961361  51.6591041  92.8117775  25.2051298  50.8907329
  93.2605304  24.4761266  52.1393534  97.9985877  24.5960737  61.6280356
  97.9874517  24.2013535  60.7560859  98.1606516  23.8626809  62.2214127
  90.9217341  26.7912553  54.4975261  91.7138633  26.4503378  54.0821561
  91.1613991  26.9007528  55.4177415  98.9552468  28.9632329  46.9705506
  98.3040448  29.5486409  46.5839520  99.7496831  29.4938524  47.0300543
  92.8808095  26.0521466  47.3692640  93.6538971  25.5050453  47.2305516
  93.2333494  26.9165716  47.5807102  94.7193138  27.3797848  60.5759540
  94.4283004  28.2843479  60.4606206  95.3550122  27.4214376  61.2903609
  95.6449345  24.7574697  57.1660899  96.2412917  24.5330719  56.4517862
  95.7024316  24.0159442  57.7686347  95.2174373  22.2114132  45.0011090
  95.4699894  21.6895654  44.2394553  94.2798932  22.0480278  45.1037774
 100.2617656  21.2149911  52.8085833 101.0480745  20.7969334  52.4576250
 100.5256360  22.1196003  52.9767482 100.4327733  26.6522761  47.5074490
  99.7973566  26.7257387  48.2195395 100.1025140  27.2416360  46.8293569
 105.6626083  21.1525144  53.7118812 106.3951255  20.5824361  53.9456641
 104.9065439  20.7646744  54.1525318  94.9370662  24.1142238  47.2035465
  94.8206920  23.4387142  47.8716549  95.0472922  23.6274612  46.3867618
  97.2802203  23.5752385  50.9082154  96.9160410  23.0483006  51.6195076
  98.1369319  23.1850854  50.7348640 103.1851503  14.8646718  58.1713421
 102.8534828  15.7342129  57.9474636 102.5897117  14.5483002  58.8507451
  96.9207690  18.6042285  45.9043503  97.0882092  19.4722521  46.2713974
  96.7304859  18.7669567  44.9804792  99.6783023  27.0659264  57.5709333
  99.3783746  27.9684303  57.4625140  99.3334082  26.7991447  58.4230486
  93.1295504  23.5173061  53.6046038  92.2046001  23.3849275  53.8123729
  93.3779918  24.2967280  54.1015980 103.0780167  19.5841804  55.2506771
 102.1697044  19.5157213  54.9565532 103.0267762  20.0613749  56.0788596
  96.8996911  21.0599943  46.8890170  96.7796536  21.5056993  47.7275650
  96.2049499  21.4085260  46.3303708  90.4904315  23.1606334  54.4389827
  90.6196697  23.4140813  55.3529238  89.8101767  23.7534042  54.1194482
  94.6603803  33.8303584  50.5380301  94.5827832  34.7811409  50.6168782
  94.0565446  33.4849457  51.1955227  97.1521032  21.0031450  63.1941668
  96.3754367  21.5625370  63.1844533  97.7911596  21.4888233  63.7156538
 104.9441813  17.7858243  57.0284645 104.3016193  18.0790776  56.3824439
 104.4396742  17.6711163  57.8337841 102.5981977  21.5321416  47.7170504
 103.5099833  21.7648802  47.5418201 102.0891624  22.1158460  47.1545582
  95.4067405  23.8116903  62.7559635  96.1482089  24.3501947  62.4794458
  94.7004390  24.4383192  62.9131187 100.8822744  25.9546044  61.3531796
 101.2906100  25.5128454  60.6086429 100.1600006  25.3798671  61.6065989
  97.2353814  20.8918650  58.7265353  98.0815010  21.3158064  58.8700002
  97.1752452  20.2352275  59.4203916 101.2051559  26.5147234  55.1084085
 100.5760422  26.6792948  54.4060153 100.8177221  26.9288844  55.8795049
 105.0840791  27.4501672  52.4628449 104.3991829  27.8300573  51.9125482
 105.1684640  28.0596999  53.1960397 100.3853260  18.5523019  60.3846527
 100.1414192  19.3065079  59.8480803 100.6613190  18.9308366  61.2193774
 102.3391723  25.0961631  59.0623793 102.5508618  25.7393391  58.3858174
 102.2921471  24.2623948  58.5945723  99.9417952  17.7079452  55.9660365
  99.0802431  18.0060705  56.2577102  99.9680386  17.9249851  55.0341397
  96.7579521  26.2521642  52.3734170  97.2217866  26.5309345  51.5838793
  96.4936319  25.3505087  52.1907261  93.6503602  25.7993124  55.3113934
  94.2204959  26.2280392  54.6731418  94.2411714  25.5175709  56.0098119
  95.6948407  22.3744795  49.1823735  96.3972450  22.8265838  49.6497662
  95.3629036  21.7328614  49.8103629  94.1428769  20.9656551  63.5574945
  93.5127429  21.6472832  63.7910342  94.0364856  20.8539633  62.6128083
  89.4373741  20.6328347  54.4840869  88.6472795  20.8885876  54.0080980
  89.9284988  21.4476685  54.5892910 103.4537551  27.9733586  57.2346150
 104.2754994  27.5713774  56.9528831 103.4499953  27.8701821  58.1862266
  91.3888486  20.9972927  51.4424346  90.5919650  21.1091621  51.9607841
  91.1614079  21.3359579  50.5765236  97.2194154  27.5217630  59.3906860
  97.2838586  27.9838037  60.2265032  96.5105078  26.8914995  59.5189170
  87.7211444  20.8858838  56.9155860  87.9719482  21.7705848  57.1813436
  88.2570992  20.7063439  56.1430952  96.9342172  29.1885737  49.2585841
  96.7987846  30.0337273  49.6870689  97.4751984  29.3905015  48.4951774
  93.4209511  15.2677317  65.9200196  93.0276457  14.7143516  66.5947840
  94.2375652  15.5787896  66.3106713  90.3871569  26.7061175  49.8313766
  90.8996090  27.5004426  49.9819330  91.0394282  26.0087466  49.7647367
  92.1966454  29.8226932  51.9136519  92.3733082  30.7444896  51.7257503
  92.9923287  29.5085351  52.3430899  96.3377472  16.6835196  63.5120452
  97.0787186  17.2842349  63.4324915  96.5695395  15.9412834  62.9538495
  91.4818810  21.8691563  61.7898682  91.3672325  20.9676821  62.0905781
  90.6263328  22.1155260  61.4383499  98.5610648  29.8109304  63.3886183
  98.1174502  29.0245682  63.0707087  99.2227862  29.9988454  62.7230074
  93.3197769  31.3405105  57.9146861  93.8705194  31.2122169  57.1423855
  92.4809245  31.6399994  57.5641754 100.6591886  30.0912104  61.4167584
 100.6410361  30.9120985  60.9247853 101.5811806  29.9666179  61.6417725
  97.1164940  27.6056233  62.2591092  97.6493277  26.8444521  62.0290400
  96.5879021  27.3129885  63.0015247  88.3520486  25.0349830  50.6073336
  89.1895708  25.4446838  50.3907044  88.5298753  24.0949272  50.5773530
 100.2484918  22.7024910  46.2957169  99.7331541  23.4729515  46.5345557
  99.9762226  22.0290046  46.9190231  97.8332029  17.5474611  51.3542408
  96.9773625  17.1581461  51.1748046  98.2458981  17.6266572  50.4942193
  99.3631176  15.0820954  55.7533967  98.8595971  15.0451089  54.9401773
  99.6561782  15.9913697  55.8130624  95.6074061  15.1659684  54.7600149
  96.4727058  14.9702493  54.4006039  95.6751570  14.9370036  55.6869506
 105.2219192  25.4557265  48.2310343 104.4448635  25.1168424  47.7865505
 105.9010673  25.4609888  47.5565308 100.0371221  20.5752002  48.1216950
  99.7321357  20.8898152  48.9727094 100.9901663  20.6533422  48.1644283
  98.4817653  26.7342226  49.7709904  97.9539015  25.9994985  49.4583142
  97.9805156  27.5116902  49.5249873 103.4610499  24.9291246  54.8876951
 102.8034173  25.6190508  54.9757079 104.2650898  25.3187678  55.2310937
  93.2136381  17.3961892  52.1316516  93.7880132  17.1737073  51.3989709
  93.8007363  17.4650586  52.8845117 102.2715958  23.2835619  52.9380892
 102.7847840  23.9165611  53.4402602 102.9217182  22.6836814  52.5724252
  93.5405968  19.4266353  46.1512401  92.7043280  19.7641040  46.4721676
  93.4010737  19.2915333  45.2139538  95.5159048  14.2703141  50.8591585
  94.8623461  13.9552158  50.2348200  95.4739522  13.6478881  51.5851408
  96.6270253  24.5522436  42.7744877  95.7197315  24.3211689  42.9736026
  97.1241285  23.7560055  42.9618859  99.5338332  33.2619943  45.6941564
  98.8600031  33.5651640  46.3026521  99.9204154  34.0649023  45.3447021
  98.7496789  20.7585074  55.1839233  97.8319350  20.9800021  55.0260921
  99.1656932  20.8331385  54.3250940  99.5331836  22.1576490  50.3141913
 100.2803655  22.6697887  50.0049035  99.8023426  21.8360543  51.1746307
  97.8058487  24.6535031  47.2968868  96.8969706  24.3694064  47.3941337
  97.8353570  25.0734109  46.4372174 103.0377754  28.2641620  51.0660035
 102.5840081  27.4232530  51.1225226 102.4071721  28.9003019  51.4034815
 101.9810674  19.1933606  52.2960703 101.2433430  18.6810993  52.6270945
 102.2337447  18.7533988  51.4843979 101.4810693  30.1018117  52.0009853
 101.7733668  30.6623174  51.2822219 101.9909314  30.3946678  52.7563012
  88.3746657  22.3740545  51.2784070  88.1771057  21.7809906  50.5535136
  87.8193321  22.0692755  51.9960009  96.3543381  22.2663651  53.3978663
  96.4091990  21.3137488  53.3221139  95.5434583  22.4223091  53.8819961
  97.5034574  26.1943774  44.6356946  97.0654004  25.4779633  44.1762583
  98.2445015  26.4219889  44.0742038  94.2935741  20.8840711  51.1569042
  93.4803606  21.1834882  51.5634234  94.7894735  20.4896400  51.8743524
  96.4444318  30.8798468  53.0903306  96.4020497  31.1059314  52.1611838
  97.3607017  30.6461843  53.2389108  99.8909952  21.3482536  59.9883936
 100.2459340  21.5754009  60.8478401 100.5382083  21.6800912  59.3661191
 105.6207689  24.4700972  50.6933265 105.4825588  24.6602567  49.7654454
 105.2643908  25.2320354  51.1501316  93.7849815  18.4559067  56.7730277
  94.4249195  18.3147826  56.0753240  92.9527346  18.1693580  56.3968879
 105.6477069  26.5377499  55.7044536 106.0813575  26.4452788  56.5527590
 106.3608649  26.5134999  55.0664552  94.5610119  27.7561497  52.8865269
  95.3550718  27.2611817  52.6847844  93.8501812  27.2279360  52.5232975
  99.3804964  30.1379593  57.2377637  99.4341986  30.7070529  58.0055353
  98.5119745  30.3081478  56.8731674  90.8692883  21.9004579  48.9625022
  89.9390471  21.8389034  49.1794984  90.9650355  21.3780532  48.1661663
  90.7878432  18.4259392  51.5503264  91.0485249  19.3404725  51.4412424
  91.6095604  17.9583834  51.6999876  92.2603357  19.8397149  58.7202088
  92.9326410  19.6314511  58.0714737  91.4333144  19.6419235  58.2807320
 106.5092618  26.5801199  58.2377422 106.7028508  27.4847010  58.4836697
 106.4093236  26.1208618  59.0716007  98.1628929  16.4659090  60.7367749
  97.5156844  17.1649039  60.6432225  98.9329944  16.8995234  61.1043997
 101.5707727  26.7307942  63.8118302 101.4193233  26.5018494  62.8948386
 101.5612406  27.6878543  63.8249647  98.3393063  24.3039855  58.7964569
  99.2685123  24.4551014  58.6233536  97.9184093  24.3923875  57.9413215
  97.1381395  28.3290519  56.5663106  96.9992481  27.9609303  57.4389044
  96.3495991  28.8438159  56.3947064  97.7329547  33.4299616  47.9088643
  97.9081303  32.9587659  48.7234265  97.0462335  34.0565382  48.1369904
  98.6886610  27.7072122  53.9551944  98.3536443  27.6672892  54.8509594
  98.1890556  27.0416838  53.4822354  92.6630854  23.1139752  59.4804525
  92.5250652  22.3819991  60.0816064  93.5735778  23.0248652  59.1988713
 101.6245802  25.0528156  44.2289004 101.0074973  24.3274984  44.1322056
 101.1562290  25.8137516  43.8856078  95.2913155  22.8259711  58.9688205
  96.0012773  22.1852903  58.9274823  95.2482463  23.0772606  59.8914386
 103.2799934  29.7627064  61.8894784 103.2212480  29.0786285  61.2225367
 103.6819452  30.5046054  61.4375410  94.0042089  19.8124929  60.7883844
  93.4679446  19.3615667  61.4405441  93.4158797  19.9470838  60.0454309
  92.2990632  36.5788978  54.6828503  92.5387231  37.2107502  55.3607522
  91.4559829  36.2277018  54.9693862  93.4144348  19.2713580  43.3510308
  92.5373814  19.1502381  42.9872555  93.8902101  18.4799659  43.0989197
 103.2817341  27.7266648  60.1208764 102.3944120  27.3892570  60.2435163
 103.8515892  26.9949680  60.3577529  84.9346488  24.0590740  53.4451815
  85.6217528  23.7452470  52.8572830  84.7794617  24.9632105  53.1719067
  89.7381210  18.9480937  57.8736839  89.6539399  18.3406606  57.1387249
  88.9163917  19.4389955  57.8746335  96.8118494  32.3868101  57.0870007
  96.7388666  33.1923072  57.5989312  96.3695887  32.5860067  56.2618028
  96.6008274  31.6239871  50.5972828  95.8175796  32.1661551  50.6911053
  97.3001019  32.1413850  50.9967070  99.9104924  17.4334500  53.2407034
 100.4073624  16.6804463  52.9208104  99.1391906  17.4698817  52.6750243
 107.7634681  23.1374866  54.8825325 107.7524558  24.0199581  54.5119258
 106.8952061  22.7846417  54.6879862  99.2717178  32.2854935  59.2428166
  99.9845150  32.9202400  59.1704067  98.7807206  32.3818801  58.4268167
 100.9934705  26.1906187  50.8145457 100.0590983  26.3107650  50.6450162
 101.1711373  25.2878654  50.5505467  96.4939893  19.5751883  52.9678718
  96.1237680  19.0222924  53.6559624  96.9898985  18.9710017  52.4153719
 104.3807256  22.0323507  51.3495491 104.8467708  22.8651498  51.2755794
 104.8314757  21.5668488  52.0540750  94.3229091  30.0349378  60.0633736
  95.0238551  30.6685861  60.2163131  93.8524206  30.3764110  59.3029376
 102.4483487  28.3767328  48.3481643 102.7243331  28.2623923  49.2575518
 101.5787986  27.9784813  48.3093817 102.3523919  14.4004094  55.3886393
 101.4386999  14.6308321  55.5568600 102.7817020  14.4842538  56.2400425
 102.1230377  22.5893986  57.8886287 101.4701828  22.8369893  57.2338740
 102.5010757  21.7758124  57.5548764  99.0837551  32.6253679  51.9914457
  99.2659946  31.8075335  52.4542209  99.9070537  32.8421371  51.5539347
  99.4179717  31.5521864  49.2529506  99.9467483  31.0414319  48.6399668
  99.6807936  31.2364394  50.1175039  98.1717950  23.3313797  64.3752324
  97.4958587  23.2307926  65.0454699  98.9945584  23.1753011  64.8388321
  89.9196809  29.5685733  56.9964839  90.5050246  28.8229421  57.1292743
  89.7221648  29.8789690  57.8801503  92.7735465  32.6036981  52.0127281
  92.1045840  33.0883108  51.5291322  92.6348334  32.8506201  52.9270660
  84.5114464  22.1391334  55.7169282  84.5498564  21.6054924  56.5106400
  84.0054757  21.6126539  55.0980259  96.9140733  34.6380724  58.6109940
  97.4659041  34.8012346  59.3759025  97.2546927  35.2285162  57.9389965
  91.8905226  16.9855874  59.2131825  91.9546553  17.8470705  58.8009222
  91.8272347  16.3729876  58.4804183  91.3657499  19.0579007  62.8604859
  91.9929538  18.6756084  63.4742383  90.5085418  18.8393208  63.2260551
 101.7651608  29.4641982  64.4658594 102.3091512  30.0771940  63.9713549
 101.1838452  30.0221560  64.9825607  88.1423042  20.8655436  48.7923214
  88.4376483  19.9566114  48.7390267  87.2411077  20.8443175  48.4704216
 100.0509120  32.5862700  55.5973622  99.9260260  31.7852440  55.0884568
 100.7088212  33.0808893  55.1087592  91.6717289  18.9411432  54.7750762
  90.9503874  19.5547400  54.6358236  92.4610544  19.4769197  54.6967408
 102.1144029  30.3871720  57.2253172 101.1674364  30.2677071  57.1531499
 102.4626802  29.4994218  57.3079434  94.4743602  16.2765859  61.0491414
  94.9978004  16.5228155  61.8117723  94.2555936  17.1085894  60.6294551
  89.8710883  18.5469533  48.9162539  89.5423589  17.6666912  48.7337645
  90.2250254  18.4917202  49.8038928  99.1190462  30.1824436  53.4257524
  98.9715425  29.2541143  53.6065094  99.9443956  30.2044527  52.9414600
  92.9852706  18.8342503  49.2838016  93.3248779  19.3628424  48.5616625
  93.4324827  19.1722909  50.0596583 102.7224584  31.0052995  54.5122397
 103.6471131  30.7995856  54.3746848 102.5539887  30.7569396  55.4211739
  95.6796147  17.2179554  58.7341085  95.3392968  16.4187367  59.1361764
  94.9735154  17.5181265  58.1617918  96.3312619  14.3028866  57.1868408
  97.1538688  13.8289344  57.0647298  96.5750683  15.0819350  57.6867094
  94.9720854  17.3317125  47.4831309  95.6929216  17.7098378  46.9795026
  94.3486158  18.0506002  47.5866287  99.1151976  18.0362274  48.4189642
  99.3315591  18.9186912  48.1178470  98.6346044  17.6448487  47.6895284
  93.8551198  20.9947987  54.9960386  93.7095779  21.3088290  55.8884668
  93.3776401  21.6132887  54.4431285  95.7147581  17.9850535  55.0441276
  95.7009150  17.0891628  54.7073574  96.4320009  17.9921199  55.6779562
  97.5673711  18.4187875  57.0894403  97.3091489  19.3404946  57.0878734
  97.0358752  18.0218310  57.7794867 102.5119900  31.5238662  49.8684489
 102.6856778  30.9585085  49.1158341 103.0048791  32.3239557  49.6863978
  88.3296860  23.5353331  57.9348047  87.7850328  24.3113139  58.0668322
  89.2076210  23.8824136  57.7767169  95.1184477  16.8664915  50.3128846
  95.2400388  15.9381561  50.5119733  94.8286519  16.8803601  49.4007161
  97.9875667  14.5519826  53.4495566  98.0097364  14.6159159  52.4947545
  98.4043726  13.7124334  53.6436072 103.4995073  30.8405427  46.9681387
 104.1945977  31.4612119  47.1868701 103.8418223  29.9900778  47.2433765
  89.1162882  22.6623228  60.8278204  88.3744618  22.8105863  61.4142835
  88.7955626  22.9231493  59.9644954 105.3986496  28.2905132  48.4968718
 105.9237820  28.6292405  47.7718038 105.3108848  27.3552147  48.3131852
  97.0606545  32.2039206  60.6258594  97.3693671  31.9588353  61.4981294
  97.8582027  32.4085844  60.1377464  97.0827157  34.3577115  52.8563971
  96.6432147  33.8653494  53.5496827  97.8335274  33.8150083  52.6156046
  89.5619496  30.5488656  52.8588599  90.3877515  30.2492428  52.4787242
  89.2113548  29.7796279  53.3078388  94.5301029  29.9015125  54.9286272
  93.9081038  29.2385830  54.6288500  95.2005896  29.9276256  54.2459920
  87.7628101  28.4674983  53.8177532  86.9260009  28.0397157  53.6361534
  87.7351746  28.6607426  54.7548324  94.6025556  18.3796913  64.5218778
  94.6513712  19.2559035  64.1396548  95.1448070  17.8374306  63.9490422
 105.0880402  28.9238036  63.8019916 104.2975946  28.9062175  63.2624415
 104.8513756  29.4626329  64.5568952 105.2078277  25.7730502  61.1152644
 105.2576282  25.6080510  62.0568167 105.0992200  24.9057761  60.7250525
  94.0914536  28.4519048  48.4044733  94.2402656  29.1354512  47.7511406
  94.8980979  28.4324138  48.9194189 102.4982039  21.7561430  62.4311951
 103.3991902  21.6167895  62.1395949 102.5730014  21.9215885  63.3710128
  96.8324845  19.1328285  61.2765137  95.9628154  19.4261851  61.0047726
  97.0684325  19.7168730  61.9972401 106.7096474  28.1927444  61.3594666
 106.4181282  28.5557424  62.1958127 106.0968605  27.4794452  61.1807998
 104.9583662  23.3160058  59.8274724 105.4337784  23.5087705  59.0193575
 104.0349227  23.3719244  59.5818107  91.8467169  24.4784225  49.4105802
  91.6013211  23.5746555  49.6086012  92.0163083  24.4801376  48.4685280
  99.5363879  15.3507902  58.7930558 100.0545822  16.0868929  58.4677046
  99.1819011  15.6571895  59.6277317  91.1162816  20.2112583  46.9091963
  90.4232061  20.2856938  46.2531999  90.8714568  19.4472927  47.4313480
  97.5909941  30.9467178  45.8756480  97.0183908  31.5657365  45.4226952
  98.1642735  31.4966540  46.4096402 103.6585331  20.1925818  58.0603029
 104.6102754  20.2923916  58.0815253 103.4888781  19.4004087  58.5701114
 101.6799710  17.2781402  58.2462430 101.0849643  17.5586414  57.5508919
 101.3949407  17.7675303  59.0179171 100.8107201  31.2304328  47.0065063
 101.7437874  31.1649890  47.2097938 100.7230414  32.0660595  46.5479595
 103.4395218  30.5470199  43.9669010 103.3608849  30.2130062  44.8604768
 104.2604884  31.0391967  43.9660483 106.1373409  23.4131938  57.1745329
 106.1049729  22.4747939  57.3605013 106.7474032  23.4915975  56.4411154
  97.9756740  22.2827991  43.2172533  98.9215844  22.1534199  43.2860951
  97.5970985  21.5442653  43.6941961 106.2867897  20.2042982  57.2203612
 105.7706946  19.4201438  57.0333541 107.1707846  19.8761698  57.3850132
  97.8595432  26.3345737  64.6773190  98.7798442  26.5124336  64.8713236
  97.8245015  25.3901783  64.5252889  96.1599657  20.2077967  43.1527418
  95.2531112  19.9111080  43.2290132  96.4375638  19.9107786  42.2861704
  87.0777597  21.5284331  53.6026465  86.7580382  20.6749639  53.3100839
  86.5311025  21.7432909  54.3584432  90.8557505  24.2446772  57.3195971
  91.0743515  25.1763880  57.3384005  91.2683279  23.8854746  58.1050775
  97.7761723  14.7514857  49.3071659  96.9662451  14.4061942  49.6826906
  98.4646139  14.4422401  49.8959271  95.7285370  19.8179978  66.7098720
  95.6282097  20.7674335  66.6410811  95.5106912  19.4898217  65.8374790
  94.9298441  17.0664903  43.2939397  95.7917605  17.3919801  43.5535215
  95.1148786  16.2796399  42.7812463  86.9465857  25.1487242  55.5719586
  86.2529329  24.7341195  55.0589541  87.6938848  25.1907779  54.9753005
 103.0831078  15.9393429  50.4374620 102.5029747  16.5978233  50.0552673
 102.8167011  15.1170774  50.0262038 101.5334644  15.3398487  52.6395941
 102.0334423  15.4515021  51.8310260 102.1770252  15.0359540  53.2796749
  95.5916640  23.2477116  65.5263782  95.1083722  24.0477477  65.7327671
  95.6777579  23.2585061  64.5731226  88.8602600  25.0805496  53.4485601
  88.8373288  25.1793183  52.4967484  89.1703236  25.9270647  53.7702767
  91.5189978  27.1381651  57.5632215  92.4733231  27.1065593  57.4962147
  91.3202501  26.6772275  58.3782441  92.1089360  25.7082767  60.1303013
  92.9282249  26.2026846  60.1537850  92.3826167  24.7914735  60.1020581
 101.8655956  18.0993520  49.4930969 100.9781811  18.3843170  49.2751163
 102.2809945  17.9387283  48.6458245 105.2170492  18.1240040  53.2085308
 105.9930882  18.6136493  53.4809925 104.4918626  18.5498095  53.6657177
 107.6543051  18.8367660  54.2659248 108.2487542  18.5963396  53.5552557
 107.7269634  18.1174790  54.8932785  89.8740206  32.6801271  54.5802413
  89.7394674  31.9201672  54.0140411  89.4572269  33.4042171  54.1131202
 101.0099169  27.8638194  43.5878989 101.7135020  28.0688197  44.2036644
 100.2861818  28.4314956  43.8528072 101.8396980  23.6148055  49.7081259
 101.7832181  24.0716607  48.8688891 102.3925322  22.8538740  49.5304102
 105.6501786  19.4037787  50.5331378 105.3938720  19.0034423  51.3639586
 105.0254654  20.1181581  50.4081517  93.0309332  33.5770588  54.7920856
  92.9141716  34.5216020  54.6899546  92.2101779  33.2744149  55.1806655
 102.9185867  28.3020723  45.6377449 103.7531471  27.8701922  45.4554923
 102.7570210  28.1302737  46.5654343 102.5731759  24.8052837  47.0033788
 102.5180563  24.6397108  46.0622232 101.9477814  25.5128870  47.1595978
  87.3624274  20.0420901  60.8295210  88.0083138  19.5319855  61.3182435
  87.1541425  20.7789583  61.4038635  99.8877666  27.1101749  66.3287351
 100.7568826  27.2842401  65.9673986  99.4084418  27.9296165  66.2063080
  95.8827884  14.3060946  46.5819106  95.8706554  15.2502786  46.7387377
  96.7751306  14.1231091  46.2878568  94.0563846  34.2298850  58.0076784
  94.9591093  34.2622460  58.3243279  93.8301216  33.2999301  58.0223120
  95.8117448  32.9829836  54.6686863  94.8613079  32.9831698  54.5551235
  96.1149935  32.2362571  54.1522898  91.7021765  17.1888518  64.9270224
  92.5653227  16.8325323  65.1373549  91.1287176  16.8502413  65.6145629
 104.2146664  40.6253279  51.6591041 103.6511529  40.5343216  50.8907329
 104.0999059  39.8053183  52.1393534 101.7611096  42.1204471  54.4975261
 102.5532388  41.7795295  54.0821561 102.0007746  42.2299446  55.4177415
 103.7201850  41.3813384  47.3692640 104.4932726  40.8342371  47.2305516
 104.0727249  42.2457633  47.5807102 105.5586892  42.7089766  60.5759540
 105.2676758  43.6135397  60.4606206 106.1943877  42.7506294  61.2903609
 106.4843099  40.0866615  57.1660899 107.0806671  39.8622637  56.4517862
 106.5418071  39.3451360  57.7686347 106.0568128  37.5406050  45.0011090
 106.3093648  37.0187571  44.2394553 105.1192687  37.3772195  45.1037774
 105.7764416  39.4434156  47.2035465 105.6600674  38.7679059  47.8716549
 105.8866676  38.9566530  46.3867618 107.7601444  33.9334203  45.9043503
 107.9275847  34.8014439  46.2713974 107.5698613  34.0961484  44.9804792
 103.9689259  38.8464978  53.6046038 103.0439755  38.7141193  53.8123729
 104.2173672  39.6259198  54.1015980 107.7390665  36.3891860  46.8890170
 107.6190290  36.8348911  47.7275650 107.0443253  36.7377178  46.3303708
 101.3298070  38.4898252  54.4389827 101.4590451  38.7432731  55.3529238
 100.6495521  39.0825960  54.1194482 105.4997557  49.1595502  50.5380301
 105.4221587  50.1103327  50.6168782 104.8959201  48.8141374  51.1955227
 106.2461159  39.1408821  62.7559635 106.9875844  39.6793865  62.4794458
 105.5398145  39.7675110  62.9131187 107.5973275  41.5813560  52.3734170
 108.0611621  41.8601263  51.5838793 107.3330074  40.6797005  52.1907261
 104.4897357  41.1285042  55.3113934 105.0598714  41.5572310  54.6731418
 105.0805468  40.8467626  56.0098119 106.5342162  37.7036712  49.1823735
 107.2366205  38.1557756  49.6497662 106.2022790  37.0620531  49.8103629
 104.9822523  36.2948469  63.5574945 104.3521184  36.9764750  63.7910342
 104.8758611  36.1831551  62.6128083 100.2767495  35.9620265  54.4840869
  99.4866549  36.2177794  54.0080980 100.7678743  36.7768603  54.5892910
 102.2282241  36.3264844  51.4424346 101.4313404  36.4383538  51.9607841
 102.0007833  36.6651496  50.5765236 108.0587908  42.8509547  59.3906860
 108.1232341  43.3129955  60.2265032 107.3498832  42.2206912  59.5189170
  98.5605198  36.2150755  56.9155860  98.8113237  37.0997765  57.1813436
  99.0964747  36.0355357  56.1430952 107.7735926  44.5177655  49.2585841
 107.6381601  45.3629191  49.6870689 108.3145739  44.7196933  48.4951774
 104.2603266  30.5969235  65.9200196 103.8670211  30.0435433  66.5947840
 105.0769406  30.9079813  66.3106713 101.2265324  42.0353093  49.8313766
 101.7389844  42.8296343  49.9819330 101.8788036  41.3379383  49.7647367
 103.0360208  45.1518849  51.9136519 103.2126837  46.0736814  51.7257503
 103.8317042  44.8377268  52.3430899 107.1771227  32.0127114  63.5120452
 107.9180940  32.6134267  63.4324915 107.4089150  31.2704752  62.9538495
 102.3212565  37.1983481  61.7898682 102.2066080  36.2968738  62.0905781
 101.4657083  37.4447178  61.4383499 104.1591524  46.6697023  57.9146861
 104.7098949  46.5414086  57.1423855 103.3203000  46.9691912  57.5641754
  99.1914240  40.3641747  50.6073336 100.0289462  40.7738756  50.3907044
  99.3692508  39.4241189  50.5773530 106.4467816  30.4951602  54.7600149
 107.3120813  30.2994410  54.4006039 106.5145325  30.2661953  55.6869506
 104.0530135  32.7253810  52.1316516 104.6273887  32.5028991  51.3989709
 104.6401117  32.7942504  52.8845117 104.3799722  34.7558271  46.1512401
 103.5437034  35.0932957  46.4721676 104.2404492  34.6207250  45.2139538
 106.3552803  29.5995059  50.8591585 105.7017215  29.2844076  50.2348200
 106.3133277  28.9770799  51.5851408 107.4664008  39.8814354  42.7744877
 106.5591069  39.6503607  42.9736026 107.9635040  39.0851973  42.9618859
  99.2140411  37.7032463  51.2784070  99.0164811  37.1101823  50.5535136
  98.6587075  37.3984673  51.9960009 107.1937135  37.5955569  53.3978663
 107.2485745  36.6429405  53.3221139 106.3828337  37.7515008  53.8819961
 105.1329495  36.2132629  51.1569042 104.3197361  36.5126799  51.5634234
 105.6288489  35.8188318  51.8743524 107.2838073  46.2090386  53.0903306
 107.2414252  46.4351232  52.1611838 108.2000772  45.9753760  53.2389108
 104.6243570  33.7850984  56.7730277 105.2642949  33.6439743  56.0753240
 103.7921100  33.4985498  56.3968879 105.4003874  43.0853415  52.8865269
 106.1944472  42.5903735  52.6847844 104.6895566  42.5571278  52.5232975
 101.7086637  37.2296497  48.9625022 100.7784225  37.1680952  49.1794984
 101.8044109  36.7072449  48.1661663 101.6272186  33.7551309  51.5503264
 101.8879003  34.6696643  51.4412424 102.4489359  33.2875752  51.6999876
 103.0997112  35.1689067  58.7202088 103.7720165  34.9606429  58.0714737
 102.2726898  34.9711153  58.2807320 107.9775150  43.6582437  56.5663106
 107.8386235  43.2901221  57.4389044 107.1889746  44.1730076  56.3947064
 103.5024609  38.4431669  59.4804525 103.3644407  37.7111908  60.0816064
 104.4129532  38.3540570  59.1988713 106.1306909  38.1551629  58.9688205
 106.8406528  37.5144821  58.9274823 106.0876218  38.4064524  59.8914386
 104.8435843  35.1416847  60.7883844 104.3073200  34.6907585  61.4405441
 104.2552552  35.2762756  60.0454309 103.1384387  51.9080896  54.6828503
 103.3780985  52.5399420  55.3607522 102.2953583  51.5568936  54.9693862
 104.2538102  34.6005498  43.3510308 103.3767569  34.4794299  42.9872555
 104.7295855  33.8091576  43.0989197  95.7740243  39.3882658  53.4451815
  96.4611282  39.0744388  52.8572830  95.6188371  40.2924022  53.1719067
 100.5774965  34.2772854  57.8736839 100.4933153  33.6698524  57.1387249
  99.7557671  34.7681873  57.8746335 107.6512249  47.7160018  57.0870007
 107.5782420  48.5214990  57.5989312 107.2089642  47.9151984  56.2618028
 107.4402028  46.9531788  50.5972828 106.6569550  47.4953469  50.6911053
 108.1394774  47.4705768  50.9967070 107.3333647  34.9043801  52.9678718
 106.9631435  34.3514841  53.6559624 107.8292740  34.3001934  52.4153719
 105.1622846  45.3641296  60.0633736 105.8632305  45.9977779  60.2163131
 104.6917961  45.7056027  59.3029376 100.7590564  44.8977651  56.9964839
 101.3444001  44.1521339  57.1292743 100.5615402  45.2081608  57.8801503
 103.6129219  47.9328898  52.0127281 102.9439594  48.4175026  51.5291322
 103.4742089  48.1798119  52.9270660  95.3508219  37.4683251  55.7169282
  95.3892318  36.9346842  56.5106400  94.8448511  36.9418457  55.0980259
 107.7534488  49.9672642  58.6109940 108.3052796  50.1304263  59.3759025
 108.0940681  50.5577080  57.9389965 102.7298981  32.3147792  59.2131825
 102.7940307  33.1762623  58.8009222 102.6666101  31.7021793  58.4804183
 102.2051253  34.3870924  62.8604859 102.8323292  34.0048002  63.4742383
 101.3479172  34.1685126  63.2260551  98.9816796  36.1947353  48.7923214
  99.2770237  35.2858032  48.7390267  98.0804832  36.1735093  48.4704216
 102.5111043  34.2703350  54.7750762 101.7897629  34.8839318  54.6358236
 103.3004299  34.8061115  54.6967408 105.3137357  31.6057776  61.0491414
 105.8371759  31.8520073  61.8117723 105.0949690  32.4377811  60.6294551
 100.7104638  33.8761451  48.9162539 100.3817344  32.9958830  48.7337645
 101.0644008  33.8209120  49.8038928 103.8246461  34.1634421  49.2838016
 104.1642533  34.6920342  48.5616625 104.2718581  34.5014827  50.0596583
 106.5189902  32.5471472  58.7341085 106.1786722  31.7479285  59.1361764
 105.8128908  32.8473182  58.1617918 107.1706374  29.6320784  57.1868408
 107.9932443  29.1581262  57.0647298 107.4144437  30.4111268  57.6867094
 105.8114608  32.6609042  47.4831309 106.5322971  33.0390295  46.9795026
 105.1879912  33.3797919  47.5866287 104.6944952  36.3239905  54.9960386
 104.5489533  36.6380208  55.8884668 104.2170156  36.9424805  54.4431285
 106.5541335  33.3142453  55.0441276 106.5402904  32.4183546  54.7073574
 107.2713763  33.3213116  55.6779562  99.1690615  38.8645249  57.9348047
  98.6244083  39.6405057  58.0668322 100.0469964  39.2116053  57.7767169
 105.9578231  32.1956833  50.3128846 106.0794142  31.2673479  50.5119733
 105.6680274  32.2095519  49.4007161  99.9556636  37.9915145  60.8278204
  99.2138372  38.1397781  61.4142835  99.6349381  38.2523411  59.9644954
 100.4013250  45.8780574  52.8588599 101.2271270  45.5784346  52.4787242
 100.0507302  45.1088196  53.3078388 105.3694783  45.2307042  54.9286272
 104.7474793  44.5677747  54.6288500 106.0399650  45.2568174  54.2459920
  98.6021855  43.7966900  53.8177532  97.7653763  43.3689075  53.6361534
  98.5745501  43.9899344  54.7548324 105.4419311  33.7088830  64.5218778
 105.4907466  34.5850953  64.1396548 105.9841825  33.1666223  63.9490422
 104.9308290  43.7810966  48.4044733 105.0796411  44.4646430  47.7511406
 105.7374734  43.7616056  48.9194189 107.6718599  34.4620203  61.2765137
 106.8021909  34.7553769  61.0047726 107.9078080  35.0460648  61.9972401
 102.6860923  39.8076143  49.4105802 102.4406965  38.9038473  49.6086012
 102.8556838  39.8093294  48.4685280 101.9556571  35.5404501  46.9091963
 101.2625816  35.6148856  46.2531999 101.7108323  34.7764844  47.4313480
 106.9993411  35.5369885  43.1527418 106.0924867  35.2402998  43.2290132
 107.2769392  35.2399703  42.2861704  97.9171352  36.8576249  53.6026465
  97.5974136  36.0041557  53.3100839  97.3704780  37.0724827  54.3584432
 101.6951259  39.5738690  57.3195971 101.9137269  40.5055797  57.3384005
 102.1077033  39.2146664  58.1050775 106.5679125  35.1471895  66.7098720
 106.4675851  36.0966252  66.6410811 106.3500667  34.8190134  65.8374790
 105.7692196  32.3956820  43.2939397 106.6311360  32.7211719  43.5535215
 105.9542540  31.6088316  42.7812463  97.7859612  40.4779160  55.5719586
  97.0923083  40.0633113  55.0589541  98.5332603  40.5199697  54.9753005
 106.4310395  38.5769034  65.5263782 105.9477476  39.3769394  65.7327671
 106.5171334  38.5876979  64.5731226  99.6996354  40.4097414  53.4485601
  99.6767042  40.5085101  52.4967484 100.0096991  41.2562565  53.7702767
 102.3583732  42.4673569  57.5632215 103.3126986  42.4357511  57.4962147
 102.1596256  42.0064193  58.3782441 102.9483114  41.0374685  60.1303013
 103.7676003  41.5318764  60.1537850 103.2219922  40.1206653  60.1020581
 100.7133961  48.0093188  54.5802413 100.5788429  47.2493589  54.0140411
 100.2966023  48.7334088  54.1131202 103.8703087  48.9062505  54.7920856
 103.7535471  49.8507938  54.6899546 103.0495533  48.6036067  55.1806655
  98.2018028  35.3712819  60.8295210  98.8476892  34.8611773  61.3182435
  97.9935180  36.1081500  61.4038635 106.7221639  29.6352863  46.5819106
 106.7100309  30.5794703  46.7387377 107.6145061  29.4523009  46.2878568
 104.8957601  49.5590767  58.0076784 105.7984848  49.5914378  58.3243279
 104.6694971  48.6291218  58.0223120 106.6511203  48.3121754  54.6686863
 105.7006834  48.3123615  54.5551235 106.9543689  47.5654488  54.1522898
 102.5415519  32.5180436  64.9270224 103.4046981  32.1617241  65.1373549
 101.9680930  32.1794331  65.6145629 106.6133997  54.7174576  53.4451815
 107.3005037  54.4036306  52.8572830 106.4582126  55.6215940  53.1719067
 106.1901973  52.7975169  55.7169282 106.2286073  52.2638760  56.5106400
 105.6842266  52.2710374  55.0980259  92.2990634  13.5851101  41.4073810
  92.5387232  14.2169625  42.0852828  91.4559830  13.2339141  41.6939169
 104.2146665  17.6315402  38.3836348 103.6511530  17.5405339  37.6152635
 104.0999060  16.8115306  38.8638840 101.7611097  19.1266593  41.2220568
 102.5532389  18.7857418  40.8066867 102.0007747  19.2361568  42.1422721
 103.7201851  18.3875506  34.0937947 104.4932727  17.8404494  33.9550823
 104.0727250  19.2519756  34.3052408 105.5586894  19.7151889  47.3004846
 105.2676760  20.6197520  47.1851513 106.1943878  19.7568416  48.0148916
 106.4843100  17.0928737  43.8906206 107.0806673  16.8684760  43.1763169
 106.5418072  16.3513483  44.4931654 105.7764418  16.4496279  33.9280772
 105.6600676  15.7741182  34.5961856 105.8866677  15.9628652  33.1112925
 103.9689260  15.8527101  40.3291344 103.0439757  15.7203315  40.5369036
 104.2173673  16.6321320  40.8261287 101.3298071  15.4960375  41.1635133
 101.4590452  15.7494854  42.0774545 100.6495522  16.0888083  40.8439788
 105.4997558  26.1657625  37.2625608 105.4221588  27.1165450  37.3414088
 104.8959202  25.8203497  37.9200534 106.2461161  16.1470943  49.4804942
 106.9875845  16.6855987  49.2039765 105.5398146  16.7737232  49.6376493
 107.5973277  18.5875683  39.0979477 108.0611622  18.8663386  38.3084099
 107.3330075  17.6859127  38.9152568 104.4897358  18.1347164  42.0359240
 105.0598715  18.5634432  41.3976725 105.0805470  17.8529749  42.7343426
 108.0587910  19.8571670  46.1152167 108.1232342  20.3192077  46.9510339
 107.3498834  19.2269035  46.2434477  98.5605200  13.2212878  43.6401166
  98.8113238  14.1059888  43.9058742  99.0964748  13.0417480  42.8676258
 107.7735927  21.5239778  35.9831147 107.6381602  22.3691313  36.4115995
 108.3145740  21.7259055  35.2197081 101.2265325  19.0415216  36.5559072
 101.7389845  19.8358466  36.7064637 101.8788038  18.3441506  36.4892674
 103.0360209  22.1580972  38.6381826 103.2126838  23.0798937  38.4502809
 103.8317043  21.8439391  39.0676205 104.1591525  23.6759146  44.6392168
 104.7098950  23.5476209  43.8669162 103.3203001  23.9754035  44.2887061
  99.1914242  17.3703870  37.3318643 100.0289464  17.7800878  37.1152351
  99.3692509  16.4303312  37.3018837  99.2140413  14.7094585  38.0029376
  99.0164813  14.1163946  37.2780443  98.6587077  14.4046795  38.7205315
 107.2838074  23.2152508  39.8148613 107.2414253  23.4413355  38.8857145
 108.2000773  22.9815883  39.9634414 105.4003875  20.0915537  39.6110576
 106.1944473  19.5965858  39.4093151 104.6895567  19.5633401  39.2478281
 107.9775151  20.6644559  43.2908413 107.8386237  20.2963344  44.1634351
 107.1889747  21.1792199  43.1192371 103.5024610  15.4493792  46.2049832
 103.3644408  14.7174031  46.8061371 104.4129533  15.3602692  45.9234020
 103.1384388  28.9143019  41.4073810 103.3780986  29.5461543  42.0852828
 102.2953585  28.5631059  41.6939169  95.7740244  16.3944780  40.1697122
  96.4611284  16.0806510  39.5818137  95.6188372  17.2986145  39.8964373
 107.6512250  24.7222141  43.8115314 107.5782422  25.5277113  44.3234618
 107.2089643  24.9214107  42.9863335 107.4402030  23.9593911  37.3218135
 106.6569552  24.5015591  37.4156360 108.1394775  24.4767891  37.7212376
 105.1622847  22.3703419  46.7879043 105.8632307  23.0039901  46.9408437
 104.6917962  22.7118150  46.0274682 100.7590565  21.9039774  43.7210146
 101.3444002  21.1583461  43.8538050 100.5615404  22.2143730  44.6046810
 103.6129220  24.9391021  38.7372588 102.9439596  25.4237149  38.2536628
 103.4742090  25.1860241  39.6515967  95.3508220  14.4745374  42.4414589
  95.3892319  13.9408964  43.2351707  94.8448513  13.9480579  41.8225566
 107.7534489  26.9734764  45.3355247 108.3052797  27.1366386  46.1004332
 108.0940682  27.5639202  44.6635271  99.1690616  15.8707372  44.6593354
  98.6244084  16.6467180  44.7913628 100.0469966  16.2178176  44.5012475
  99.9556638  14.9977268  47.5523511  99.2138374  15.1459903  48.1388141
  99.6349382  15.2585533  46.6890260 100.4013251  22.8842697  39.5833905
 101.2271271  22.5846468  39.2032549 100.0507303  22.1150319  40.0323694
 105.3694784  22.2369165  41.6531579 104.7474794  21.5739870  41.3533807
 106.0399651  22.2630297  40.9705227  98.6021856  20.8029023  40.5422839
  97.7653765  20.3751197  40.3606840  98.5745502  20.9961466  41.4793630
 104.9308291  20.7873088  35.1290040 105.0796412  21.4708553  34.4756712
 105.7374735  20.7678178  35.6439495 102.6860924  16.8138266  36.1351109
 102.4406966  15.9100596  36.3331319 102.8556839  16.8155416  35.1930587
  97.9171353  13.8638371  40.3271771  97.5974137  13.0103679  40.0346145
  97.3704781  14.0786949  41.0829739 101.6951261  16.5800812  44.0441278
 101.9137270  17.5117920  44.0629311 102.1077034  16.2208787  44.8296082
  97.7859613  17.4841283  42.2964893  97.0923084  17.0695235  41.7834847
  98.5332604  17.5261819  41.6998312 106.4310396  15.5831157  52.2509088
 105.9477478  16.3831517  52.4572977 106.5171335  15.5939102  51.2976532
  99.6996355  17.4159536  40.1730908  99.6767044  17.5147224  39.2212791
 100.0096992  18.2624687  40.4948074 102.3583733  19.4735691  44.2877522
 103.3126987  19.4419634  44.2207454 102.1596257  19.0126315  45.1027748
 102.9483115  18.0436807  46.8548320 103.7676004  18.5380886  46.8783157
 103.2219923  17.1268776  46.8265887 100.7133962  25.0155311  41.3047720
 100.5788430  24.2555712  40.7385718 100.2966024  25.7396211  40.8376509
 103.8703088  25.9124628  41.5166163 103.7535472  26.8570060  41.4144853
 103.0495534  25.6098189  41.9051962 104.8957602  26.5652890  44.7322091
 105.7984849  26.5976500  45.0488586 104.6694972  25.6353341  44.7468427
 106.6511204  25.3183876  41.3932170 105.7006835  25.3185738  41.2796542
 106.9543690  24.5716611  40.8768204 106.6133998  31.7236698  40.1697122
 107.3005038  31.4098428  39.5818137 106.4582127  32.6278063  39.8964373
 106.1901974  29.8037291  42.4414589 106.2286074  29.2700882  43.2351707
 105.6842267  29.2772497  41.8225566  12.8188291  48.5911864  98.7960334
  12.1449990  48.8943561  99.4045292  13.2054113  49.3940945  98.4465791
  16.7245177  45.8762120  97.0687781  16.6458808  45.5421984  97.9623539
  17.5454843  46.3683888  97.0679253  14.2949128  43.1930115  96.6897759
  14.9984979  43.3980118  97.3055415  13.5711777  43.7606877  96.9546842
  17.4996623  55.9545200 104.7609811  16.9361488  55.8635137 103.9926099
  17.3849018  55.1345105 105.2412304  23.0796182  59.6216168 100.0724276
  22.4284161  60.2070248  99.6858290  23.8740544  60.1522363 100.1319314
  17.0051809  56.7105305 100.4711411  17.7782685  56.1634292 100.3324286
  17.3577208  57.5749554 100.6825872  19.3418087  52.8697971  98.1029861
  19.5943607  52.3479492  97.3413324  18.4042646  52.7064117  98.2056544
  24.3861369  51.8733750 105.9104604  25.1724459  51.4553173 105.5595021
  24.6500074  52.7779842 106.0786252  24.5571447  57.3106600 100.6093261
  23.9217280  57.3841226 101.3214165  24.2268853  57.9000199  99.9312340
  29.7869797  51.8108983 106.8137582  30.5194969  51.2408200 107.0475412
  29.0309152  51.4230583 107.2544088  19.0614375  54.7726077 100.3054236
  18.9450633  54.0970981 100.9735320  19.1716635  54.2858451  99.4886389
  21.4045916  54.2336224 104.0100925  21.0404124  53.7066845 104.7213846
  22.2613032  53.8434693 103.8367410  21.0451403  49.2626124  99.0062273
  21.2125806  50.1306360  99.3732744  20.8548572  49.4253406  98.0823563
  21.0240624  51.7183781  99.9908940  20.9040249  52.1640832 100.8294420
  20.3293213  52.0669099  99.4322478  18.7847516  64.4887423 103.6399071
  18.7071546  65.4395248 103.7187552  18.1809160  64.1433296 104.2973998
  26.7225690  52.1905255 100.8189274  27.6343546  52.4232641 100.6436972
  26.2135337  52.7742299 100.2564353  25.3295273  57.1731073 108.2102856
  24.7004135  57.3376787 107.5078923  24.9420935  57.5872683 108.9813820
  29.2084505  58.1085511 105.5647219  28.5235543  58.4884412 105.0144253
  29.2928354  58.7180838 106.2979167  20.8823234  56.9105481 105.4752941
  21.3461580  57.1893184 104.6857563  20.6180033  56.0088926 105.2926031
  19.8192121  53.0328634 102.2842506  20.5216164  53.4849677 102.7516432
  19.4872749  52.3912452 102.9122399  27.5781264  58.6317425 110.3364920
  28.3998708  58.2297613 110.0547602  27.5743667  58.5285660 111.2881036
  35.6687257  54.9756174 106.6849892  34.9150965  54.4063572 106.5293896
  35.8034798  54.9418838 107.6320526  21.0585885  59.8469576 102.3604611
  20.9231560  60.6921112 102.7889459  21.5995698  60.0488854 101.5970545
  14.5115283  57.3645014 102.9332536  15.0239803  58.1588264 103.0838101
  15.1637995  56.6671305 102.8666138  16.3210167  60.4810771 105.0155289
  16.4976796  61.4028735 104.8276273  17.1167001  60.1669190 105.4449669
  24.3728631  53.3608749  99.3975940  23.8575255  54.1313354  99.6364327
  24.1005940  52.6873885 100.0209001  29.3462906  56.1141104 101.3329113
  28.5692348  55.7752263 100.8884275  30.0254387  56.1193727 100.6584078
  24.1614935  51.2335841 101.2235721  23.8565070  51.5481990 102.0745864
  25.1145377  51.3117261 101.2663054  22.6061366  57.3926065 102.8728675
  22.0782728  56.6578824 102.5601912  22.1048869  58.1700741 102.6268643
  27.5854212  55.5875085 107.9895721  26.9277887  56.2774346 108.0775850
  28.3894612  55.9771517 108.3329707  26.3959671  53.9419458 106.0399663
  26.9091553  54.5749450 106.5421373  27.0460895  53.3420653 105.6743023
  17.6649681  50.0850192  99.2531172  16.8286993  50.4224878  99.5740446
  17.5254451  49.9499172  98.3158309  20.7513967  55.2106275  95.8763648
  19.8441028  54.9795528  96.0754797  21.2484999  54.4143894  96.0637629
  23.6582046  63.9203782  98.7960334  22.9843744  64.2235479  99.4045292
  24.0447868  64.7232862  98.4465791  23.6575550  52.8160329 103.4160684
  24.4047369  53.3281726 103.1067806  23.9267139  52.4944382 104.2765077
  21.9302200  55.3118870 100.3987638  21.0213419  55.0277903 100.4960108
  21.9597284  55.7317948  99.5390945  27.1621468  58.9225459 104.1678805
  26.7083795  58.0816369 104.2243996  26.5315434  59.5586858 104.5053586
  26.1054387  49.8517445 105.3979473  25.3677144  49.3394831 105.7289716
  26.3581161  49.4117827 104.5862750  25.6054407  60.7601956 105.1028624
  25.8977381  61.3207013 104.3840989  26.1153027  61.0530517 105.8581783
  21.6278288  56.8527613  97.7375717  21.1897718  56.1363472  97.2781354
  22.3688729  57.0803728  97.1760808  20.5688032  61.5382307 106.1922077
  20.5264211  61.7643153 105.2630609  21.4850731  61.3045682 106.3407878
  29.7451403  55.1284810 103.7952035  29.6069301  55.3186406 102.8673224
  29.3887621  55.8904193 104.2520086  29.7720782  57.1961337 108.8063307
  30.2057289  57.1036627 109.6546361  30.4852363  57.1718838 108.1683323
  18.6853833  58.4145336 105.9884040  19.4794431  57.9195656 105.7866615
  17.9745525  57.8863199 105.6251745  23.5048677  60.7963432 110.3396407
  23.5585699  61.3654368 111.1074123  22.6363459  60.9665317 109.9750444
  14.9936596  52.5588418 102.0643792  14.0634184  52.4972873 102.2813754
  15.0894068  52.0364371 101.2680433  21.8573261  64.0883454 101.0107413
  22.0325016  63.6171498 101.8253036  21.1706049  64.7149221 101.2388674
  22.8130324  58.3655961 107.0570714  22.4780156  58.3256731 107.9528364
  22.3134270  57.7000677 106.5841125  25.7489516  55.7111995  97.3307774
  25.1318686  54.9858823  97.2340827  25.2806004  56.4721355  96.9874848
  17.5388061  49.9297419  96.4529078  16.6617528  49.8086220  96.0891325
  18.0145814  49.1383498  96.2007967  20.7251987  62.2823710 103.6991599
  19.9419509  62.8245390 103.7929823  21.4244733  62.7997689 104.0985840
  31.8878395  53.7958705 107.9844096  31.8768271  54.6783420 107.6138029
  31.0195774  53.4430256 107.7898633  25.1178418  56.8490026 103.9164228
  24.1834697  56.9691489 103.7468932  25.2955087  55.9462493 103.6524237
  28.5050970  52.6907346 104.4514262  28.9711422  53.5235337 104.3774564
  28.9558470  52.2252327 105.1559520  26.5727201  59.0351167 101.4500414
  26.8487045  58.9207762 102.3594288  25.7031699  58.6368652 101.4112587
  23.2081265  63.2837518 105.0933227  23.3903659  62.4659174 105.5560980
  24.0314251  63.5005210 104.6558117  23.5423430  62.2105703 102.3548276
  24.0711197  61.6998158 101.7418438  23.8051650  61.8948233 103.2193809
  16.8979178  63.2620820 105.1146052  16.2289553  63.7466947 104.6310092
  16.7592048  63.5090040 106.0289430  24.1752834  63.2446539 108.6992392
  24.0503973  62.4436278 108.1903338  24.8331925  63.7392732 108.2106362
  26.2387742  61.0455559 110.3271942  25.2918078  60.9260910 110.2550269
  26.5870516  60.1578057 110.4098204  23.2434176  60.8408275 106.5276295
  23.0959138  59.9124982 106.7083865  24.0687669  60.8628366 106.0433370
  26.8468298  61.6636834 107.6141167  27.7714845  61.4579695 107.4765619
  26.6783601  61.4153235 108.5230509  19.0964567  47.9900964 100.5850080
  19.8172930  48.3682216 100.0813796  18.4729871  48.7089840 100.6885058
  23.2395690  48.6946113 101.5208412  23.4559304  49.5770750 101.2197240
  22.7589757  48.3032326 100.7914054  26.6363614  62.1822501 102.9703259
  26.8100491  61.6168924 102.2177111  27.1292505  62.9823396 102.7882749
  32.4903005  54.9458924 104.5893559  32.9334151  54.1966249 104.1912682
  31.6129515  54.9369060 104.2067291  27.6238786  61.4989266 100.0700157
  28.3189691  62.1195958 100.2887472  27.9661936  60.6484617 100.3452535
  29.5230209  58.9488971 101.5987488  30.0481533  59.2876244 100.8736808
  29.4352562  58.0135986 101.4150623  21.2070870  65.0160954 105.9582741
  20.7675860  64.5237333 106.6515598  21.9578987  64.4733922 105.7174816
  18.6544742  60.5598963 108.0305043  18.0324752  59.8969668 107.7307271
  19.3249609  60.5860095 107.3478691  18.2158249  59.1102887 101.5063503
  18.3646370  59.7938351 100.8530176  19.0224693  59.0907977 102.0212959
  32.0335870  56.4164162 106.9816006  32.8682761  56.8553966 107.1453567
  32.1694998  55.9402816 106.1624252  15.9710882  55.1368064 102.5124572
  15.7256924  54.2330394 102.7104782  16.1406797  55.1385215 101.5704050
  15.2406530  50.8696422 100.0110734  14.5475775  50.9440777  99.3550770
  14.9958282  50.1056766 100.5332251  21.7153655  61.6051017  98.9775251
  21.1427622  62.2241204  98.5245723  22.2886448  62.1550379  99.5115173
  24.9350914  61.8888167 100.1083833  25.8681588  61.8233729 100.3116709
  24.8474127  62.7244434  99.6498366  27.5638931  61.2054038  97.0687781
  27.4852563  60.8713901  97.9623539  28.3848598  61.6975806  97.0679253
  22.1000453  52.9411830  96.3191303  23.0459558  52.8118038  96.3879721
  21.7214698  52.2026492  96.7960731  36.0793672  55.1331784 109.4170136
  36.8097061  54.8717072 109.9777839  35.4700618  54.3960506 109.4572204
  34.1608969  53.2739646 110.0144587  33.4342133  53.1395611 109.4061079
  33.7456256  53.5816475 110.8201305  20.2843370  50.8661806  96.2546189
  19.3774826  50.5694919  96.3308902  20.5619351  50.5691624  95.3880475
  19.0542155  47.7248742  96.3958168  19.9161319  48.0503640  96.6553985
  19.2392499  46.9380237  95.8831233  27.2074791  46.5977268 103.5393391
  26.6273461  47.2562072 103.1571443  26.9410724  45.7754613 103.1280808
  25.9899669  48.7577358 102.5949739  25.1025525  49.0427009 102.3769934
  26.4053659  48.5971122 101.7477016  29.3414206  48.7823879 106.3104078
  30.1174596  49.2720332 106.5828695  28.6162340  49.2081934 106.7675948
  31.7786764  49.4951499 107.3678019  32.3731255  49.2547235 106.6571327
  31.8513348  48.7758629 107.9951555  25.1342883  58.5222033  96.6897759
  25.8378733  58.7272036  97.3055415  24.4105532  59.0898795  96.9546842
  25.9640693  54.2731894 102.8100029  25.9075895  54.7300446 101.9707662
  26.5169036  53.5122579 102.6322872  29.7745499  50.0621626 103.6350149
  29.5182433  49.6618262 104.4658356  29.1498367  50.7765420 103.5100288
  34.0857837  52.8017699 106.1421440  33.5257395  52.8710889 106.9153002
  33.4801340  52.6258684 105.4220936  27.0429580  58.9604562  98.7396219
  27.8775184  58.5285761  98.5573694  26.8813923  58.7886576  99.6673113
  26.6975473  55.4636676 100.1052558  26.6424276  55.2980947  99.1641002
  26.0721528  56.1712709 100.2614748  20.0071598  44.9644785  99.6837877
  19.9950268  45.9086625  99.8406148  20.8995020  44.7814930  99.3897338
  19.9361162  63.6413675 107.7705633  18.9856793  63.6415537 107.6570006
  20.2393648  62.8946410 107.2541668  35.6713855  69.4774213 108.8351396
  36.3092265  69.3580961 108.1314736  35.5534698  70.4255057 108.8939348
  32.4803562  69.4301642 108.7712920  32.1422073  69.3142706 107.8833455
  33.3493330  69.0292807 108.7513927  28.3390377  71.2837118 104.7609811
  27.7755243  71.1927055 103.9926099  28.2242772  70.4637022 105.2412304
  32.9623345  70.5836493 114.7299126  32.9511985  70.1889292 113.8579630
  33.1243984  69.8502566 115.3232897  25.8854809  72.7788310 107.5994032
  26.6776101  72.4379134 107.1840331  26.1251460  72.8883285 108.5196185
  33.9189936  74.9508086 100.0724276  33.2677916  75.5362166  99.6858290
  34.7134299  75.4814281 100.1319314  27.8445563  72.0397223 100.4711411
  28.6176439  71.4926210 100.3324286  28.1970962  72.9041472 100.6825872
  30.6086813  70.7450454 110.2679670  31.2050385  70.5206476 109.5536633
  30.6661784  70.0035199 110.8705117  30.1811841  68.1989889  98.1029861
  30.4337362  67.6771410  97.3413324  29.2436400  68.0356034  98.2056544
  35.2255124  67.2025667 105.9104604  36.0118213  66.7845090 105.5595021
  35.4893828  68.1071759 106.0786252  35.3965201  72.6398518 100.6093261
  34.7611034  72.7133144 101.3214165  35.0662608  73.2292116  99.9312340
  40.6263551  67.1400900 106.8137582  41.3588723  66.5700117 107.0475412
  39.8702907  66.7522501 107.2544088  29.9008130  70.1017995 100.3054236
  29.7844388  69.4262898 100.9735320  30.0110390  69.6150369  99.4886389
  32.2439671  69.5628142 104.0100925  31.8797878  69.0358763 104.7213846
  33.1006787  69.1726611 103.8367410  38.1488971  60.8522475 111.2732191
  37.8172296  61.7217886 111.0493406  37.5534585  60.5358759 111.9526221
  31.8845158  64.5918042  99.0062273  32.0519560  65.4598278  99.3732744
  31.6942327  64.7545323  98.0823563  34.6420491  73.0535021 110.6728104
  34.3421214  73.9560059 110.5643911  34.2971550  72.7867204 111.5249257
  28.0932972  69.5048817 106.7064808  27.1683469  69.3725032 106.9142500
  28.3417386  70.2843037 107.2034750  38.0417635  65.5717561 108.3525541
  37.1334512  65.5032969 108.0584302  37.9905231  66.0489506 109.1807366
  31.8634379  67.0475699  99.9908940  31.7434004  67.4932750 100.8294420
  31.1686967  67.3961017  99.4322478  25.4541783  69.1482091 107.5408597
  25.5834165  69.4016570 108.4548009  24.7739235  69.7409799 107.2213252
  29.6241271  79.8179341 103.6399071  29.5465300  80.7687166 103.7187552
  29.0202914  79.4725213 104.2973998  39.9079281  63.7733999 110.1303415
  39.2653661  64.0666532 109.4843209  39.4034210  63.6586919 110.9356612
  37.5619445  67.5197172 100.8189274  38.4737301  67.7524559 100.6436972
  37.0529092  68.1034217 100.2564353  35.8460212  71.9421800 114.4550567
  36.2543568  71.5004211 113.7105199  35.1237474  71.3674428 114.7084760
  32.1991283  66.8794407 111.8284124  33.0452478  67.3033820 111.9718773
  32.1389920  66.2228031 112.5222687  36.1689027  72.5022991 108.2102856
  35.5397890  72.6668705 107.5078923  35.7814689  72.9164600 108.9813820
  40.0478259  73.4377429 105.5647219  39.3629297  73.8176330 105.0144253
  40.1322108  74.0472755 106.2979167  35.3490728  64.5398775 113.4865297
  35.1051660  65.2940836 112.9499573  35.6250658  64.9184123 114.3212544
  37.3029191  71.0837388 112.1642563  37.5146086  71.7269148 111.4876944
  37.2558939  70.2499704 111.6964493  34.9055420  63.6955208 109.0679135
  34.0439899  63.9936462 109.3595873  34.9317854  63.9125607 108.1360168
  31.7216989  72.2397399 105.4752941  32.1855335  72.5185102 104.6857563
  31.4573787  71.3380843 105.2926031  28.6141070  71.7868880 108.4132704
  29.1842427  72.2156149 107.7750188  29.2049182  71.5051465 109.1116890
  30.6585875  68.3620551 102.2842506  31.3609918  68.8141595 102.7516432
  30.3266504  67.7204370 102.9122399  24.4011209  66.6204104 107.5859639
  23.6110263  66.8761632 107.1099750  24.8922456  67.4352442 107.6911680
  38.4175019  73.9609343 110.3364920  39.2392462  73.5589530 110.0547602
  38.4137421  73.8577577 111.2881036  26.3525954  66.9848683 104.5443116
  25.5557118  67.0967377 105.0626612  26.1251547  67.3235335 103.6784007
  46.5081012  70.3048092 106.6849892  45.7544720  69.7355490 106.5293896
  46.6428553  70.2710756 107.6320526  31.8979640  75.1761494 102.3604611
  31.7625314  76.0213030 102.7889459  32.4389452  75.3780772 101.5970545
  25.3509037  72.6936932 102.9332536  25.8633558  73.4880182 103.0838101
  26.0031750  71.9963222 102.8666138  27.1603922  75.8102688 105.0155289
  27.3370550  76.7320653 104.8276273  27.9560755  75.4961107 105.4449669
  35.6229354  76.0787860 114.5186354  35.6047829  76.8996741 114.0266624
  36.5449274  75.9541936 114.7436496  35.2472103  58.6992056 110.8903505
  34.9036373  59.5893697 110.8142615  35.6151066  58.5093713 110.0273090
  23.3157954  71.0225586 103.7092107  24.1533176  71.4322595 103.4925814
  23.4936222  70.0825028 103.6792301  35.2122386  68.6900667  99.3975940
  34.6969009  69.4605271  99.6364327  34.9399694  68.0165803 100.0209001
  32.7969497  63.5350368 104.4561178  31.9411093  63.1457218 104.2766817
  33.2096449  63.6142328 103.5960964  34.3268644  61.0696711 108.8552738
  33.8233439  61.0326846 108.0420543  34.6199250  61.9789454 108.9149394
  30.5711529  61.1535441 107.8618920  31.4364526  60.9578249 107.5024809
  30.6389038  60.9245792 108.7888276  40.1856660  71.4433021 101.3329113
  39.4086103  71.1044181 100.8884275  40.8648141  71.4485645 100.6584078
  35.0008689  66.5627759 101.2235721  34.6958825  66.8773908 102.0745864
  35.9539131  66.6409179 101.2663054  33.4455121  72.7217982 102.8728675
  32.9176483  71.9870742 102.5601912  32.9442624  73.4992659 102.6268643
  38.4247967  70.9167003 107.9895721  37.7671641  71.6066264 108.0775850
  39.2288366  71.3063435 108.3329707  28.1773849  63.3837649 105.2335286
  28.7517600  63.1612830 104.5008479  28.7644831  63.4526343 105.9863888
  37.2353426  69.2711375 106.0399663  37.7485308  69.9041367 106.5421373
  37.8854650  68.6712571 105.6743023  28.5043436  65.4142110  99.2531172
  27.6680748  65.7516796  99.5740446  28.3648205  65.2791089  98.3158309
  30.4796516  60.2578897 103.9610356  29.8260929  59.9427915 103.3366971
  30.4376990  59.6354638 104.6870179  31.5907721  70.5398193  95.8763648
  30.6834783  70.3087446  96.0754797  32.0878753  69.7435812  96.0637629
  34.4975800  79.2495700  98.7960334  33.8237499  79.5527396  99.4045292
  34.8841622  80.0524780  98.4465791  33.7134257  66.7460831 108.2858003
  32.7956818  66.9675778 108.1279691  34.1294400  66.8207141 107.4269711
  34.4969304  68.1452247 103.4160684  35.2441123  68.6573644 103.1067806
  34.7660894  67.8236299 104.2765077  32.7695955  70.6410787 100.3987638
  31.8607174  70.3569820 100.4960108  32.7991038  71.0609866  99.5390945
  38.0015222  74.2517377 104.1678805  37.5477549  73.4108287 104.2243996
  37.3709189  74.8878775 104.5053586  36.9448142  65.1809363 105.3979473
  36.2070898  64.6686749 105.7289716  37.1974915  64.7409745 104.5862750
  36.4448161  76.0893874 105.1028624  36.7371136  76.6498931 104.3840989
  36.9546782  76.3822435 105.8581783  37.0459769  57.9585615 105.9921242
  37.3518646  57.0982978 105.7047157  37.7712374  58.5503235 105.7920236
  23.3384125  68.3616302 104.3802840  23.1408525  67.7685662 103.6553907
  22.7830789  68.0568512 105.0978779  31.3180849  68.2539408 106.4997433
  31.3729458  67.3013244 106.4239910  30.5072051  68.4098847 106.9838732
  32.4672042  72.1819531  97.7375717  32.0291472  71.4655390  97.2781354
  33.2082483  72.4095646  97.1760808  29.2573209  66.8716468 104.2587812
  28.4441074  67.1710638 104.6653004  29.7532203  66.4772157 104.9762294
  31.4081786  76.8674225 106.1922077  31.3657965  77.0935071 105.2630609
  32.3244485  76.6337599 106.3407878  34.8547420  67.3358292 113.0902706
  35.2096808  67.5629765 113.9497172  35.5019551  67.6676669 112.4679961
  40.5845157  70.4576728 103.7952035  40.4463056  70.6478324 102.8673224
  40.2281376  71.2196111 104.2520086  28.7487283  64.4434823 109.8749047
  29.3886663  64.3023582 109.1772010  27.9164814  64.1569337 109.4987649
  40.6114537  72.5253255 108.8063307  41.0451043  72.4328544 109.6546361
  41.3246117  72.5010756 108.1683323  29.5247587  73.7437254 105.9884040
  30.3188186  73.2487574 105.7866615  28.8139280  73.2155117 105.6251745
  34.3442432  76.1255349 110.3396407  34.3979454  76.6946286 111.1074123
  33.4757213  76.2957234 109.9750444  25.8330351  67.8880335 102.0643792
  24.9027939  67.8264791 102.2813754  25.9287823  67.3656288 101.2680433
  25.7515900  64.4135148 104.6522034  26.0122717  65.3280482 104.5431194
  26.5733072  63.9459591 104.8018647  27.2240825  65.8272905 111.8220858
  27.8963878  65.6190268 111.1733507  26.3970612  65.6294991 111.3826091
  41.4730086  72.5676956 111.3396192  41.6665976  73.4722766 111.5855467
  41.3730704  72.1084375 112.1734777  33.1266397  62.4534846 113.8386519
  32.4794312  63.1524796 113.7450996  33.8967412  62.8870990 114.2062768
  33.3030531  70.2915611 111.8983339  34.2322591  70.4426771 111.7252306
  32.8821561  70.3799632 111.0431986  32.1018863  74.3166276 109.6681877
  31.9629949  73.9485060 110.5407815  31.3133459  74.8313915 109.4965834
  32.6967015  79.4175372 101.0107413  32.8718771  78.9463415 101.8253036
  32.0099803  80.0441138 101.2388674  33.6524078  73.6947878 107.0570714
  33.3173911  73.6548648 107.9528364  33.1528024  73.0292594 106.5841125
  36.5883270  71.0403913  97.3307774  35.9712441  70.3150741  97.2340827
  36.1199758  71.8013273  96.9874848  30.2550623  68.8135468 112.0706975
  30.9650242  68.1728660 112.0293594  30.2119931  69.0648363 112.9933156
  28.9679557  65.8000686 113.8902615  28.4316914  65.3491424 114.5424211
  28.3796265  65.9346594 113.1473079  28.3781816  65.2589337  96.4529078
  27.5011282  65.1378138  96.0891325  28.8539569  64.4675415  96.2007967
  38.2454809  73.7142405 113.2227534  37.3581588  73.3768327 113.3453933
  38.8153360  72.9825436 113.4596300  24.7018678  64.9356693 110.9755609
  24.6176867  64.3282363 110.2406019  23.8801385  65.4265712 110.9765106
  31.5645742  77.6115627 103.6991599  30.7813264  78.1537308 103.7929823
  32.2638487  78.1289607 104.0985840  34.8742392  63.4210257 106.3425804
  35.3711092  62.6680219 106.0226874  34.1029374  63.4574573 105.7769014
  42.7272149  69.1250622 107.9844096  42.7162026  70.0075338 107.6138029
  41.8589529  68.7722173 107.7898633  35.9572173  72.1781944 103.9164228
  35.0228451  72.2983407 103.7468932  36.1348841  71.2754411 103.6524237
  31.4577361  65.5627640 106.0697489  31.0875148  65.0098680 106.7578394
  31.9536453  64.9585773 105.5172489  39.3444724  68.0199263 104.4514262
  39.8105176  68.8527255 104.3774564  39.7952225  67.5544245 105.1559520
  37.4120955  74.3643085 101.4500414  37.6880799  74.2499679 102.3594288
  36.5425454  73.9660569 101.4112587  37.3161387  60.3879850 108.4905163
  36.4024467  60.6184077 108.6587370  37.7454488  60.4718294 109.3419195
  37.0867845  68.5769742 110.9905057  36.4339296  68.8245650 110.3357510
  37.4648225  67.7633880 110.6567534  34.0475019  78.6129435 105.0933227
  34.2297414  77.7951091 105.5560980  34.8708005  78.8297128 104.6558117
  34.3817185  77.5397621 102.3548276  34.9104951  77.0290075 101.7418438
  34.6445404  77.2240151 103.2193809  27.7372933  78.5912737 105.1146052
  27.0683308  79.0758865 104.6310092  27.5985802  78.8381958 106.0289430
  26.8542694  62.9731631 112.3150595  26.9184021  63.8346462 111.9027993
  26.7909815  62.3605632 111.5822953  23.1060510  66.8531192 101.8941984
  23.4013951  65.9441871 101.8409038  22.2048546  66.8318932 101.5722986
  35.0146589  78.5738456 108.6992392  34.8897728  77.7728196 108.1903338
  35.6725680  79.0684650 108.2106362  26.6354757  64.9287189 107.8769533
  25.9141343  65.5423157 107.7377006  27.4248013  65.4644954 107.7986179
  37.0781497  76.3747476 110.3271942  36.1311832  76.2552828 110.2550269
  37.4264270  75.4869974 110.4098204  29.4381070  62.2641615 114.1510184
  29.9615472  62.5103912 114.9136494  29.2193404  63.0961650 113.7313322
  24.8348351  64.5345290 102.0181309  24.5061057  63.6542669 101.8356415
  25.1887722  64.4792959 102.9057698  34.0827930  76.1700193 106.5276295
  33.9352893  75.2416900 106.7083865  34.9081424  76.1920283 106.0433370
  27.9490174  64.8218260 102.3856787  28.2886247  65.3504181 101.6635395
  28.3962295  65.1598666 103.1615353  37.6862052  76.9928751 107.6141167
  38.6108600  76.7871613 107.4765619  37.5177355  76.7445153 108.5230509
  30.6433615  63.2055310 111.8359855  30.3030436  62.4063123 112.2380535
  29.9372622  63.5057021 111.2636688  31.2950087  60.2904623 110.2887178
  32.1176156  59.8165101 110.1666068  31.5388151  61.0695107 110.7885864
  29.9358322  63.3192881 100.5850080  30.6566684  63.6974134 100.0813796
  29.3123626  64.0381758 100.6885058  34.0789445  64.0238030 101.5208412
  34.2953059  64.9062668 101.2197240  33.5983512  63.6324244 100.7914054
  28.8188666  66.9823744 108.0979157  28.6733247  67.2964047 108.9903438
  28.3413870  67.6008644 107.5450055  30.6785049  63.9726291 108.1460046
  30.6646618  63.0767385 107.8092344  31.3957477  63.9796955 108.7798332
  32.5311179  64.4063632 110.1913174  32.2728957  65.3280702 110.1897504
  31.9996220  64.0094066 110.8813638  37.4757368  77.5114419 102.9703259
  37.6494246  76.9460841 102.2177111  37.9686259  78.3115314 102.7882749
  30.0821945  62.8540672 103.4147616  30.2037856  61.9257318 103.6138504
  29.7923987  62.8679358 102.5025932  32.9513135  60.5395582 106.5514336
  32.9734832  60.6034915 105.5966316  33.3681194  59.7000091 106.7454842
  43.3296759  70.2750842 104.5893559  43.7727905  69.5258167 104.1912682
  42.4523270  70.2660978 104.2067291  38.4632541  76.8281183 100.0700157
  39.1583445  77.4487876 100.2887472  38.8055691  75.9776534 100.3452535
  40.3623964  74.2780889 101.5987488  40.8875288  74.6168162 100.8736808
  40.2746316  73.3427904 101.4150623  32.0464625  80.3452872 105.9582741
  31.6069615  79.8529251 106.6515598  32.7972742  79.8025840 105.7174816
  29.4938497  75.8890881 108.0305043  28.8718506  75.2261586 107.7307271
  30.1643364  75.9152013 107.3478691  40.1715745  71.7606259 114.2171414
  40.2213750  71.5956266 115.1586937  40.0629668  70.8933518 113.8269295
  29.0552004  74.4394804 101.5063503  29.2040124  75.1230269 100.8530176
  29.8618447  74.4199895 102.0212959  37.4619507  67.7437187 115.5330721
  38.3629370  67.6043652 115.2414719  37.5367482  67.9091642 116.4728899
  31.7962313  65.1204042 114.3783907  30.9265622  65.4137608 114.1066496
  32.0321793  65.7044487 115.0991171  42.8729624  71.7456080 106.9816006
  43.7076516  72.1845884 107.1453567  43.0088753  71.2694733 106.1624252
  39.9221130  69.3035815 112.9293494  40.3975252  69.4963461 112.1212345
  38.9986695  69.3595001 112.6836878  26.8104637  70.4659982 102.5124572
  26.5650679  69.5622312 102.7104782  26.9800551  70.4677133 101.5704050
  34.5001347  61.3383658 111.8949328  35.0183290  62.0744685 111.5695816
  34.1456479  61.6447652 112.7296087  26.0800284  66.1988340 100.0110734
  25.3869529  66.2732695  99.3550770  25.8352036  65.4348683 100.5332251
  34.7513941  57.7583941 107.4150224  35.0315694  57.0907130 108.0410651
  35.5364548  57.9513037 106.9024888  32.5547409  76.9342935  98.9775251
  31.9821376  77.5533122  98.5245723  33.1280203  77.4842297  99.5115173
  38.6222799  66.1801575 111.1621800  39.5740222  66.2799673 111.1834024
  38.4526249  65.3879844 111.6719884  36.6437179  63.2657158 111.3481201
  36.0487111  63.5462171 110.6527689  36.3586875  63.7551059 112.1197942
  35.7744669  77.2180085 100.1083833  36.7075342  77.1525647 100.3116709
  35.6867882  78.0536352  99.6498366  38.4032686  76.5345955  97.0687781
  38.3246317  76.2005819  97.9623539  39.2242352  77.0267723  97.0679253
  41.1010877  69.4007695 110.2764099  41.0687197  68.4623695 110.4623783
  41.7111500  69.4791731 109.5429924  32.9394208  68.2703748  96.3191303
  33.8853312  68.1409956  96.3879721  32.5608453  67.5318410  96.7960731
  41.2505365  66.1918738 110.3222382  40.7344414  65.4077195 110.1352311
  42.1345314  65.8637455 110.4868902  38.9116092  59.9359754 106.2818195
  38.7140913  59.6274842 107.1661527  39.5215798  60.6621393 106.4116125
  46.9187427  70.4623702 109.4170136  47.6490815  70.2008990 109.9777839
  46.3094372  69.7252423 109.4572204  45.0002724  68.6031564 110.0144587
  44.2735887  68.4687529 109.4061079  44.5850011  68.9108393 110.8201305
  31.1237125  66.1953724  96.2546189  30.2168580  65.8986837  96.3308902
  31.4013106  65.8983542  95.3880475  22.0415065  67.5160087 106.7045235
  21.7217850  66.6625396 106.4119609  21.4948493  67.7308666 107.4603202
  32.7399191  60.7390614 102.4090430  31.9299919  60.3937699 102.7845676
  33.4283608  60.4298157 102.9978041  34.6689739  59.8168661 104.0314726
  35.2220777  60.2364114 104.6904750  34.9059825  58.8904409 104.0737682
  29.8935909  63.0540659  96.3958168  30.7555073  63.3795558  96.6553985
  30.0786254  62.2672155  95.8831233  38.0468546  61.9269186 103.5393391
  37.4667215  62.5853990 103.1571443  37.7804479  61.1046530 103.1280808
  36.4972112  61.3274243 105.7414711  36.9971891  61.4390778 104.9329030
  37.1407720  61.0235296 106.3815519  23.8240068  71.0681253 106.5504371
  23.8010756  71.1668940 105.5986254  24.1340704  71.9146404 106.8721537
  36.8293424  64.0869276 102.5949739  35.9419279  64.3718927 102.3769934
  37.2447413  63.9263039 101.7477016  40.1807960  64.1115797 106.3104078
  40.9568350  64.6012250 106.5828695  39.4556094  64.5373851 106.7675948
  42.6180519  64.8243416 107.3678019  43.2125010  64.5839152 106.6571327
  42.6907102  64.1050547 107.9951555  35.9736637  73.8513951  96.6897759
  36.6772488  74.0563953  97.3055415  35.2499286  74.4190713  96.9546842
  36.8034448  69.6023812 102.8100029  36.7469649  70.0592363 101.9707662
  37.3562790  68.8414497 102.6322872  40.6139254  65.3913544 103.6350149
  40.3576188  64.9910180 104.4658356  39.9892122  66.1057338 103.5100288
  44.9251591  68.1309617 106.1421440  44.3651149  68.2002806 106.9153002
  44.3195095  67.9550602 105.4220936  37.8823335  74.2896480  98.7396219
  38.7168939  73.8577678  98.5573694  37.7207678  74.1178494  99.6673113
  37.5369227  70.7928593 100.1052558  37.4818031  70.6272865  99.1641002
  36.9115282  71.5004626 100.2614748  30.8465352  60.2936702  99.6837877
  30.8344022  61.2378542  99.8406148  31.7388774  60.1106848  99.3897338
  30.7754916  78.9705593 107.7705633  29.8250547  78.9707454 107.6570006
  31.0787403  78.2238327 107.2541668  34.6617472  56.8879479 103.9383813
  33.8949868  56.3337966 104.0840496  35.0728177  56.9601348 104.7997965
  39.1784132  86.6129036 104.7609811  38.6148997  86.5218973 103.9926099
  39.0636527  85.7928940 105.2412304  44.7583691  90.2800003 100.0724276
  44.1071670  90.8654084  99.6858290  45.5528053  90.8106198 100.1319314
  38.6839318  87.3689140 100.4711411  39.4570194  86.8218128 100.3324286
  39.0364717  88.2333390 100.6825872  41.0205596  83.5281807  98.1029861
  41.2731116  83.0063328  97.3413324  40.0830155  83.3647952  98.2056544
  46.0648878  82.5317585 105.9104604  46.8511968  82.1137008 105.5595021
  46.3287583  83.4363677 106.0786252  46.2358956  87.9690435 100.6093261
  45.6004789  88.0425062 101.3214165  45.9056362  88.5584034  99.9312340
  40.7401884  85.4309913 100.3054236  40.6238142  84.7554816 100.9735320
  40.8504144  84.9442286  99.4886389  43.0833425  84.8920060 104.0100925
  42.7191632  84.3650681 104.7213846  43.9400541  84.5018529 103.8367410
  42.7238912  79.9209959  99.0062273  42.8913315  80.7890196  99.3732744
  42.5336081  80.0837241  98.0823563  38.9326727  84.8340735 106.7064808
  38.0077223  84.7016949 106.9142500  39.1811140  85.6134954 107.2034750
  42.7028133  82.3767617  99.9908940  42.5827758  82.8224668 100.8294420
  42.0080722  82.7252935  99.4322478  36.2935538  84.4774009 107.5408597
  36.4227919  84.7308488 108.4548009  35.6132989  85.0701717 107.2213252
  48.4013199  82.8489090 100.8189274  49.3131055  83.0816477 100.6436972
  47.8922846  83.4326134 100.2564353  45.7449174  79.0247126 109.0679135
  44.8833653  79.3228380 109.3595873  45.7711609  79.2417525 108.1360168
  42.5610743  87.5689317 105.4752941  43.0249089  87.8477020 104.6857563
  42.2967542  86.6672761 105.2926031  41.4979630  83.6912469 102.2842506
  42.2003673  84.1433513 102.7516432  41.1660258  83.0496288 102.9122399
  35.2404963  81.9496022 107.5859639  34.4504017  82.2053550 107.1099750
  35.7316211  82.7644359 107.6911680  37.1919709  82.3140601 104.5443116
  36.3950872  82.4259295 105.0626612  36.9645301  82.6527253 103.6784007
  42.7373394  90.5053412 102.3604611  42.6019069  91.3504947 102.7889459
  43.2783207  90.7072689 101.5970545  36.1902792  88.0228850 102.9332536
  36.7027312  88.8172100 103.0838101  36.8425504  87.3255140 102.8666138
  37.9997676  91.1394606 105.0155289  38.1764305  92.0612571 104.8276273
  38.7954510  90.8253025 105.4449669  46.0865858  74.0283973 110.8903505
  45.7430127  74.9185615 110.8142615  46.4544820  73.8385631 110.0273090
  34.1551708  86.3517504 103.7092107  34.9926930  86.7614512 103.4925814
  34.3329976  85.4116946 103.6792301  46.0516140  84.0192585  99.3975940
  45.5362764  84.7897189  99.6364327  45.7793449  83.3457721 100.0209001
  43.6363251  78.8642285 104.4561178  42.7804848  78.4749136 104.2766817
  44.0490203  78.9434246 103.5960964  45.1662398  76.3988629 108.8552738
  44.6627194  76.3618764 108.0420543  45.4593005  77.3081371 108.9149394
  41.4105284  76.4827358 107.8618920  42.2758281  76.2870167 107.5024809
  41.4782793  76.2537710 108.7888276  51.0250415  86.7724939 101.3329113
  50.2479857  86.4336099 100.8884275  51.7041896  86.7777562 100.6584078
  45.8402444  81.8919677 101.2235721  45.5352579  82.2065826 102.0745864
  46.7932886  81.9701097 101.2663054  44.2848875  88.0509900 102.8728675
  43.7570237  87.3162660 102.5601912  43.7836378  88.8284576 102.6268643
  39.0167603  78.7129566 105.2335286  39.5911355  78.4904748 104.5008479
  39.6038586  78.7818261 105.9863888  39.3437190  80.7434027  99.2531172
  38.5074502  81.0808714  99.5740446  39.2041960  80.6083007  98.3158309
  41.3190271  75.5870815 103.9610356  40.6654683  75.2719832 103.3366971
  41.2770745  74.9646556 104.6870179  42.4301476  85.8690110  95.8763648
  41.5228537  85.6379364  96.0754797  42.9272508  85.0727729  96.0637629
  45.3369555  94.5787617  98.7960334  44.6631253  94.8819314  99.4045292
  45.7235376  95.3816698  98.4465791  44.5528011  82.0752749 108.2858003
  43.6350573  82.2967696 108.1279691  44.9688155  82.1499059 107.4269711
  45.3363059  83.4744164 103.4160684  46.0834878  83.9865562 103.1067806
  45.6054648  83.1528217 104.2765077  43.6089709  85.9702705 100.3987638
  42.7000928  85.6861738 100.4960108  43.6384793  86.3901784  99.5390945
  47.7841896  80.5101281 105.3979473  47.0464653  79.9978667 105.7289716
  48.0368670  80.0701662 104.5862750  47.8853523  73.2877533 105.9921242
  48.1912400  72.4274896 105.7047157  48.6106128  73.8795153 105.7920236
  34.1777879  83.6908219 104.3802840  33.9802279  83.0977580 103.6553907
  33.6224543  83.3860429 105.0978779  42.1574603  83.5831326 106.4997433
  42.2123213  82.6305162 106.4239910  41.3465805  83.7390765 106.9838732
  43.3065797  87.5111449  97.7375717  42.8685227  86.7947308  97.2781354
  44.0476238  87.7387564  97.1760808  40.0966963  82.2008385 104.2587812
  39.2834829  82.5002556 104.6653004  40.5925957  81.8064074 104.9762294
  39.5881038  79.7726741 109.8749047  40.2280417  79.6315500 109.1772010
  38.7558568  79.4861254 109.4987649  40.3641342  89.0729171 105.9884040
  41.1581940  88.5779492 105.7866615  39.6533034  88.5447034 105.6251745
  36.6724105  83.2172253 102.0643792  35.7421693  83.1556709 102.2813754
  36.7681577  82.6948206 101.2680433  36.5909654  79.7427066 104.6522034
  36.8516472  80.6572399 104.5431194  37.4126827  79.2751508 104.8018647
  47.4277024  86.3695830  97.3307774  46.8106195  85.6442659  97.2340827
  46.9593513  87.1305191  96.9874848  39.2175570  80.5881255  96.4529078
  38.3405037  80.4670055  96.0891325  39.6933323  79.7967333  96.2007967
  35.5412433  80.2648611 110.9755609  35.4570621  79.6574281 110.2406019
  34.7195139  80.7557629 110.9765106  45.7136147  78.7502175 106.3425804
  46.2104846  77.9972137 106.0226874  44.9423128  78.7866491 105.7769014
  46.7965927  87.5073862 103.9164228  45.8622206  87.6275324 103.7468932
  46.9742596  86.6046329 103.6524237  42.2971115  80.8919558 106.0697489
  41.9268903  80.3390598 106.7578394  42.7930208  80.2877691 105.5172489
  50.1838479  83.3491181 104.4514262  50.6498931  84.1819173 104.3774564
  50.6345979  82.8836163 105.1559520  48.2514710  89.6935002 101.4500414
  48.5274554  89.5791597 102.3594288  47.3819208  89.2952487 101.4112587
  48.1555141  75.7171768 108.4905163  47.2418221  75.9475995 108.6587370
  48.5848243  75.8010212 109.3419195  37.6936449  78.3023548 112.3150595
  37.7577775  79.1638379 111.9027993  37.6303569  77.6897550 111.5822953
  33.9454264  82.1823110 101.8941984  34.2407705  81.2733788 101.8409038
  33.0442300  82.1610849 101.5722986  37.4748511  80.2579106 107.8769533
  36.7535097  80.8715074 107.7377006  38.2641767  80.7936871 107.7986179
  35.6742106  79.8637208 102.0181309  35.3454812  78.9834587 101.8356415
  36.0281477  79.8084876 102.9057698  38.7883929  80.1510177 102.3856787
  39.1280001  80.6796099 101.6635395  39.2356049  80.4890584 103.1615353
  42.1343842  75.6196541 110.2887178  42.9569911  75.1457019 110.1666068
  42.3781905  76.3987024 110.7885864  40.7752076  78.6484799 100.5850080
  41.4960439  79.0266052 100.0813796  40.1517380  79.3673676 100.6885058
  44.9183199  79.3529948 101.5208412  45.1346813  80.2354586 101.2197240
  44.4377266  78.9616161 100.7914054  39.6582420  82.3115661 108.0979157
  39.5127001  82.6255964 108.9903438  39.1807624  82.9300562 107.5450055
  41.5178803  79.3018209 108.1460046  41.5040372  78.4059302 107.8092344
  42.2351231  79.3088873 108.7798332  40.9215699  78.1832589 103.4147616
  41.0431610  77.2549236 103.6138504  40.6317742  78.1971275 102.5025932
  43.7906890  75.8687500 106.5514336  43.8128586  75.9326833 105.5966316
  44.2074949  75.0292009 106.7454842  39.8945758  89.7686722 101.5063503
  40.0433879  90.4522187 100.8530176  40.7012202  89.7491812 102.0212959
  37.6498391  85.7951900 102.5124572  37.4044433  84.8914230 102.7104782
  37.8194306  85.7969050 101.5704050  36.9194039  81.5280257 100.0110734
  36.2263284  81.6024612  99.3550770  36.6745791  80.7640601 100.5332251
  45.5907695  73.0875859 107.4150224  45.8709449  72.4199048 108.0410651
  46.3758302  73.2804954 106.9024888  43.3941164  92.2634853  98.9775251
  42.8215131  92.8825040  98.5245723  43.9673957  92.8134214  99.5115173
  46.6138423  92.5472003 100.1083833  47.5469097  92.4817564 100.3116709
  46.5261636  93.3828270  99.6498366  49.2426440  91.8637873  97.0687781
  49.1640072  91.5297737  97.9623539  50.0636107  92.3559641  97.0679253
  43.7787962  83.5995665  96.3191303  44.7247067  83.4701873  96.3879721
  43.4002207  82.8610327  96.7960731  49.7509847  75.2651671 106.2818195
  49.5534668  74.9566760 107.1661527  50.3609552  75.9913310 106.4116125
  41.9630879  81.5245642  96.2546189  41.0562335  81.2278754  96.3308902
  42.2406860  81.2275460  95.3880475  32.8808820  82.8452005 106.7045235
  32.5611604  81.9917313 106.4119609  32.3342248  83.0600583 107.4603202
  43.5792945  76.0682531 102.4090430  42.7693673  75.7229616 102.7845676
  44.2677362  75.7590075 102.9978041  45.5083493  75.1460578 104.0314726
  46.0614532  75.5656032 104.6904750  45.7453580  74.2196326 104.0737682
  40.7329664  78.3832577  96.3958168  41.5948828  78.7087475  96.6553985
  40.9180008  77.5964073  95.8831233  48.8862300  77.2561103 103.5393391
  48.3060969  77.9145907 103.1571443  48.6198233  76.4338448 103.1280808
  47.3365867  76.6566161 105.7414711  47.8365645  76.7682696 104.9329030
  47.9801475  76.3527214 106.3815519  34.6633822  86.3973170 106.5504371
  34.6404510  86.4960858 105.5986254  34.9734459  87.2438321 106.8721537
  47.6687178  79.4161194 102.5949739  46.7813033  79.7010844 102.3769934
  48.0841168  79.2554957 101.7477016  51.0201715  79.4407715 106.3104078
  51.7962105  79.9304167 106.5828695  50.2949849  79.8665769 106.7675948
  46.8130392  89.1805868  96.6897759  47.5166242  89.3855871  97.3055415
  46.0893041  89.7482630  96.9546842  47.6428202  84.9315730 102.8100029
  47.5863404  85.3884281 101.9707662  48.1956545  84.1706414 102.6322872
  51.4533008  80.7205462 103.6350149  51.1969942  80.3202097 104.4658356
  50.8285876  81.4349256 103.5100288  48.7217089  89.6188398  98.7396219
  49.5562693  89.1869596  98.5573694  48.5601432  89.4470411  99.6673113
  48.3762982  86.1220511 100.1052558  48.3211785  85.9564782  99.1641002
  47.7509037  86.8296544 100.2614748  41.6859107  75.6228620  99.6837877
  41.6737777  76.5670460  99.8406148  42.5782529  75.4398765  99.3897338
  45.5011226  72.2171397 103.9383813  44.7343622  71.6629883 104.0840496
  45.9121931  72.2893265 104.7997965  50.0569325  95.9173172  96.4529078
  49.1798791  95.7961973  96.0891325  50.5327078  95.1259251  96.2007967
  52.8024634  96.8537559  96.2546189  51.8956089  96.5570672  96.3308902
  53.0800615  96.5567377  95.3880475  51.5723418  93.7124495  96.3958168
  52.4342582  94.0379393  96.6553985  51.7573763  92.9255991  95.8831233
  12.8188292  25.5973987  85.5205641  12.1449991  25.9005684  86.1290598
  13.2054114  26.4003067  85.1711098  16.7245178  22.8824243  83.7933087
  16.6458809  22.5484106  84.6868845  17.5454845  23.3746011  83.7924560
  14.2949130  20.1992238  83.4143066  14.9984980  20.4042241  84.0300721
  13.5711778  20.7669000  83.6792149  17.4996624  32.9607323  91.4855118
  16.9361489  32.8697260  90.7171406  17.3849019  32.1407227  91.9657611
  23.0796183  36.6278291  86.7969583  22.4284163  37.2132371  86.4103597
  23.8740546  37.1584485  86.8564620  17.0051810  33.7167428  87.1956717
  17.7782686  33.1696415  87.0569593  17.3577209  34.5811677  87.4071179
  19.3418088  29.8760094  84.8275167  19.5943609  29.3541615  84.0658630
  18.4042647  29.7126239  84.9301851  24.3861371  28.8795872  92.6349910
  25.1724460  28.4615295  92.2840327  24.6500075  29.7841964  92.8031559
  24.5571448  34.3168722  87.3338567  23.9217281  34.3903349  88.0459472
  24.2268854  34.9062321  86.6557646  29.7869798  28.8171105  93.5382889
  30.5194970  28.2470322  93.7720718  29.0309154  28.4292706  93.9789395
  19.0614377  31.7788200  87.0299542  18.9450635  31.1033103  87.6980626
  19.1716637  31.2920574  86.2131695  21.4045918  31.2398347  90.7346231
  21.0404125  30.7128968  91.4459153  22.2613033  30.8496816  90.5612717
  21.0451405  26.2688247  85.7307580  21.2125807  27.1368483  86.0978051
  20.8548574  26.4315528  84.8068869  21.0240625  28.7245904  86.7154247
  20.9040251  29.1702955  87.5539727  20.3293214  29.0731222  86.1567785
  18.7847518  41.4949546  90.3644378  18.7071547  42.4457371  90.4432859
  18.1809161  41.1495418  91.0219304  26.7225692  29.1967377  87.5434581
  27.6343548  29.4294764  87.3682278  26.2135339  29.7804421  86.9809659
  25.3295274  34.1793196  94.9348162  24.7004136  34.3438910  94.2324230
  24.9420936  34.5934805  95.7059126  29.2084506  35.1147634  92.2892526
  28.5235544  35.4946535  91.7389559  29.2928355  35.7242960  93.0224474
  20.8823236  33.9167604  92.1998247  21.3461581  34.1955307  91.4102870
  20.6180034  33.0151048  92.0171338  19.8192122  30.0390756  89.0087812
  20.5216165  30.4911800  89.4761739  19.4872750  29.3974575  89.6367706
  27.5781265  35.6379548  97.0610227  28.3998709  35.2359735  96.7792909
  27.5743668  35.5347782  98.0126343  35.6687258  31.9818296  93.4095198
  34.9150967  31.4125695  93.2539203  35.8034800  31.9480961  94.3565833
  21.0585886  36.8531699  89.0849918  20.9231561  37.6983235  89.5134766
  21.5995699  37.0550976  88.3215851  14.5115284  34.3707137  89.6577843
  15.0239804  35.1650387  89.8083407  15.1637997  33.6733427  89.5911444
  16.3210169  37.4872893  91.7400596  16.4976797  38.4090858  91.5521580
  17.1167002  37.1731312  92.1694976  24.3728633  30.3670872  86.1221246
  23.8575256  31.1375476  86.3609634  24.1005941  29.6936008  86.7454308
  29.3462907  33.1203226  88.0574420  28.5692350  32.7814386  87.6129582
  30.0254388  33.1255850  87.3829385  24.1614936  28.2397964  87.9481027
  23.8565071  28.5544113  88.7991171  25.1145378  28.3179384  87.9908360
  22.6061368  34.3988187  89.5973981  22.0782729  33.6640947  89.2847219
  22.1048870  35.1762864  89.3513950  27.5854214  32.5937208  94.7141028
  26.9277888  33.2836469  94.8021156  28.3894613  32.9833640  95.0575014
  26.3959673  30.9481580  92.7644969  26.9091554  31.5811572  93.2666679
  27.0460896  30.3482776  92.3988329  17.6649682  27.0912314  85.9776478
  16.8286995  27.4287001  86.2985753  17.5254452  26.9561294  85.0403615
  20.7513968  32.2168397  82.6008954  19.8441030  31.9857651  82.8000103
  21.2485000  31.4206017  82.7882936  23.6582047  40.9265905  85.5205641
  22.9843746  41.2297601  86.1290598  24.0447869  41.7294985  85.1711098
  23.6575551  29.8222452  90.1405990  24.4047370  30.3343849  89.8313112
  23.9267141  29.5006504  91.0010384  21.9302201  32.3180992  87.1232945
  21.0213421  32.0340025  87.2205414  21.9597285  32.7380071  86.2636251
  27.1621469  35.9287582  90.8924112  26.7083796  35.0878492  90.9489303
  26.5315435  36.5648980  91.2298892  26.1054388  26.8579568  92.1224780
  25.3677145  26.3456954  92.4535022  26.3581162  26.4179949  91.3108056
  25.6054408  37.7664079  91.8273930  25.8977382  38.3269136  91.1086296
  26.1153029  38.0592639  92.5827089  21.6278289  33.8589736  84.4621023
  21.1897719  33.1425595  84.0026660  22.3688730  34.0865851  83.9006115
  20.5688033  38.5444430  92.9167383  20.5264212  38.7705276  91.9875915
  21.4850732  38.3107804  93.0653185  29.7451404  32.1346933  90.5197342
  29.6069303  32.3248529  89.5918531  29.3887623  32.8966316  90.9765393
  29.7720784  34.2023460  95.5308613  30.2057290  34.1098749  96.3791667
  30.4852364  34.1780960  94.8928629  18.6853834  35.4207459  92.7129346
  19.4794432  34.9257779  92.5111921  17.9745526  34.8925322  92.3497052
  23.5048678  37.8025554  97.0641714  23.5585701  38.3716490  97.8319430
  22.6363460  37.9727439  96.6995751  14.9936597  29.5650540  88.7889099
  14.0634186  29.5034996  89.0059061  15.0894069  29.0426493  87.9925740
  21.8573262  41.0945577  87.7352720  22.0325018  40.6233620  88.5498342
  21.1706050  41.7211343  87.9633981  22.8130325  35.3718083  93.7816021
  22.4780158  35.3318853  94.6773671  22.3134271  34.7062799  93.3086431
  25.7489517  32.7174118  84.0553081  25.1318687  31.9920946  83.9586133
  25.2806005  33.4783478  83.7120155  16.4234347  44.2434940  94.5092580
  16.6630945  44.8753464  95.1871599  15.5803544  43.8922980  94.7957939
  17.5388063  26.9359542  83.1774385  16.6617529  26.8148343  82.8136632
  18.0145816  26.1445620  82.9253274  20.9362209  40.0514062  96.9134084
  20.8632381  40.8569034  97.4253389  20.4939602  40.2506028  96.0882105
  20.7251989  39.2885832  90.4236906  19.9419511  39.8307512  90.5175130
  21.4244734  39.8059812  90.8231147  31.8878396  30.8020827  94.7089402
  31.8768272  31.6845543  94.3383335  31.0195776  30.4492378  94.5143939
  23.3960893  39.9500896  99.0692243  24.1088865  40.5848361  98.9968144
  22.9050921  40.0464762  98.2532244  25.1178420  33.8552149  90.6409534
  24.1834698  33.9753611  90.4714239  25.2955088  32.9524616  90.3769544
  28.5050971  29.6969468  91.1759568  28.9711423  30.5297460  91.1019871
  28.9558471  29.2314450  91.8804827  26.5727202  36.0413290  88.1745720
  26.8487046  35.9269884  89.0839595  25.7031701  35.6430774  88.1357894
  23.2081266  40.2899640  91.8178534  23.3903661  39.4721296  92.2806286
  24.0314252  40.5067333  91.3803424  23.5423431  39.2167826  89.0793583
  24.0711198  38.7060280  88.4663745  23.8051651  38.9010356  89.9439116
  16.8979179  40.2682942  91.8391358  16.2289555  40.7529070  91.3555399
  16.7592049  40.5152163  92.7534737  21.0384448  42.3026686  98.4374017
  21.5902756  42.4658307  99.2023102  21.3790641  42.8931124  97.7654042
  24.1752835  40.2508661  95.4237699  24.0503975  39.4498401  94.9148645
  24.8331926  40.7454855  94.9351669  26.2387744  38.0517681  97.0517249
  25.2918079  37.9323033  96.9795576  26.5870517  37.1640179  97.1343511
  23.2434177  37.8470398  93.2521601  23.0959139  36.9187105  93.4329171
  24.0687670  37.8690488  92.7678677  26.8468299  38.6698956  94.3386474
  27.7714846  38.4641818  94.2010925  26.6783602  38.4215357  95.2475816
  19.0964568  24.9963086  87.3095386  19.8172931  25.3744339  86.8059103
  18.4729873  25.7151963  87.4130364  23.2395691  25.7008235  88.2453719
  23.4559306  26.5832873  87.9442547  22.7589758  25.3094449  87.5159361
  26.6363615  39.1884624  89.6948566  26.8100493  38.6231046  88.9422418
  27.1292506  39.9885519  89.5128056  32.4903006  31.9521047  91.3138865
  32.9334152  31.2028372  90.9157989  31.6129516  31.9431183  90.9312597
  27.6238788  38.5051388  86.7945464  28.3189692  39.1258081  87.0132778
  27.9661938  37.6546739  87.0697842  29.5230211  35.9551094  88.3232795
  30.0481535  36.2938366  87.5982115  29.4352563  35.0198109  88.1395929
  21.2070871  42.0223077  92.6828048  20.7675862  41.5299456  93.3760904
  21.9578988  41.4796045  92.4420123  13.6863210  38.2134618  92.6852676
  14.5121230  37.9138390  92.3051319  13.3357262  37.4442240  93.1342465
  18.6544744  37.5661086  94.7550349  18.0324753  36.9031791  94.4552577
  19.3249610  37.5922218  94.0723997  18.2158250  36.1165009  88.2308810
  18.3646371  36.8000474  87.5775483  19.0224694  36.0970099  88.7458266
  32.0335871  33.4226285  93.7061313  32.8682762  33.8616089  93.8698873
  32.1695000  32.9464938  92.8869559  15.9710883  32.1430187  89.2369879
  15.7256925  31.2392517  89.4350089  16.1406798  32.1447337  88.2949357
  15.2406531  27.8758545  86.7356040  14.5475776  27.9502900  86.0796076
  14.9958283  27.1118888  87.2577557  21.7153656  38.6113140  85.7020557
  21.1427623  39.2303327  85.2491029  22.2886450  39.1612502  86.2360479
  24.9350916  38.8950290  86.8329140  25.8681589  38.8295852  87.0362015
  24.8474129  39.7306557  86.3743672  27.5638932  38.2116160  83.7933087
  27.4852564  37.8776024  84.6868845  28.3848599  38.7037928  83.7924560
  22.1000454  29.9473953  83.0436610  23.0459559  29.8180161  83.1125028
  21.7214699  29.2088614  83.5206038  36.0793673  32.1393906  96.1415443
  36.8097062  31.8779195  96.7023146  35.4700619  31.4022628  96.1817511
  34.1608971  30.2801769  96.7389894  33.4342134  30.1457734  96.1306385
  33.7456257  30.5878598  97.5446612  20.2843372  27.8723929  82.9791495
  19.3774827  27.5757042  83.0554209  20.5619353  27.5753747  82.1125781
  19.0542156  24.7310864  83.1203474  19.9161320  25.0565762  83.3799292
  19.2392500  23.9442360  82.6076540  27.2074793  23.6039391  90.2638697
  26.6273462  24.2624195  89.8816750  26.9410725  22.7816735  89.8526115
  25.9899671  25.7639481  89.3195046  25.1025526  26.0489132  89.1015240
  26.4053660  25.6033244  88.4722323  29.3414207  25.7886002  93.0349385
  30.1174597  26.2782454  93.3074002  28.6162341  26.2144056  93.4921254
  31.7786765  26.5013621  94.0923325  32.3731256  26.2609357  93.3816634
  31.8513349  25.7820752  94.7196862  13.9983921  40.3447232  94.4066490
  13.8638389  39.5847633  93.8404488  13.5815983  41.0688132  93.9395279
  25.1342884  35.5284156  83.4143066  25.8378734  35.7334158  84.0300721
  24.4105533  36.0960918  83.6792149  25.9640694  31.2794017  89.5345336
  25.9075896  31.7362568  88.6952968  26.5169037  30.5184702  89.3568179
  29.7745500  27.0683749  90.3595455  29.5182435  26.6680384  91.1903663
  29.1498368  27.7827543  90.2345594  34.0857838  29.8079822  92.8666747
  33.5257396  29.8773011  93.6398309  33.4801342  29.6320807  92.1466243
  17.1553047  41.2416549  94.6184933  17.0385431  42.1861982  94.5163623
  16.3345493  40.9390111  95.0070732  27.0429582  35.9666685  85.4641526
  27.8775186  35.5347883  85.2819000  26.8813925  35.7948699  86.3918420
  26.6975474  32.4698798  86.8297865  26.6424278  32.3043070  85.8886309
  26.0721529  33.1774831  86.9860055  20.0071599  21.9706907  86.4083183
  19.9950269  22.9148747  86.5651454  20.8995021  21.7877053  86.1142645
  18.1807561  41.8944811  97.8340861  19.0834808  41.9268421  98.1507356
  17.9544931  40.9645262  97.8487197  19.9361163  40.6475798  94.4950940
  18.9856794  40.6477659  94.3815312  20.2393649  39.9008532  93.9786975
  35.6713857  46.4836336  95.5596702  36.3092267  46.3643083  94.8560042
  35.5534700  47.4317180  95.6184655  32.4803563  46.4363764  95.4958227
  32.1422075  46.3204829  94.6078762  33.3493331  46.0354929  95.4759233
  28.3390379  48.2899241  91.4855118  27.7755244  48.1989177  90.7171406
  28.2242774  47.4699145  91.9657611  32.9623346  47.5898616 101.4544433
  32.9511987  47.1951414 100.5824936  33.1243985  46.8564688 102.0478204
  25.8854811  49.7850432  94.3239338  26.6776103  49.4441257  93.9085638
  26.1251461  49.8945407  95.2441492  33.9189937  51.9570208  86.7969583
  33.2677917  52.5424289  86.4103597  34.7134300  52.4876403  86.8564620
  27.8445565  49.0459345  87.1956717  28.6176441  48.4988332  87.0569593
  28.1970963  49.9103595  87.4071179  29.6830607  50.3735728 100.4023617
  29.3920473  51.2781358 100.2870283  30.3187591  50.4152255 101.1167686
  30.6086814  47.7512576  96.9924976  31.2050386  47.5268599  96.2781939
  30.6661785  47.0097322  97.5950424  30.1811842  45.2052011  84.8275167
  30.4337363  44.6833533  84.0658630  29.2436401  45.0418157  84.9301851
  35.2255125  44.2087790  92.6349910  36.0118214  43.7907213  92.2840327
  35.4893830  45.1133882  92.8031559  35.3965203  49.6460640  87.3338567
  34.7611036  49.7195267  88.0459472  35.0662609  50.2354239  86.6557646
  40.6263552  44.1463023  93.5382889  41.3588724  43.5762240  93.7720718
  39.8702908  43.7584624  93.9789395  29.9008131  47.1080117  87.0299542
  29.7844389  46.4325021  87.6980626  30.0110391  46.6212491  86.2131695
  32.2439672  46.5690265  90.7346231  31.8797879  46.0420886  91.4459153
  33.1006788  46.1788734  90.5612717  38.1488973  37.8584597  97.9977498
  37.8172297  38.7280008  97.7738713  37.5534586  37.5420881  98.6771528
  31.8845159  41.5980164  85.7307580  32.0519561  42.4660401  86.0978051
  31.6942328  41.7607446  84.8068869  34.6420492  50.0597143  97.3973410
  34.3421215  50.9622182  97.2889218  34.2971552  49.7929326  98.2494563
  28.0932974  46.5110940  93.4310115  27.1683470  46.3787154  93.6387806
  28.3417387  47.2905159  93.9280057  38.0417636  42.5779683  95.0770848
  37.1334513  42.5095092  94.7829609  37.9905232  43.0551628  95.9052673
  31.8634380  44.0537822  86.7154247  31.7434005  44.4994873  87.5539727
  31.1686968  44.4023139  86.1567785  25.4541785  46.1544214  94.2653904
  25.5834166  46.4078692  95.1793315  24.7739236  46.7471922  93.9458559
  29.6241272  56.8241464  90.3644378  29.5465302  57.7749289  90.4432859
  29.0202916  56.4787336  91.0219304  32.1158502  43.9969329 103.0205745
  31.3391836  44.5563249 103.0108610  32.7549065  44.4826112 103.5420615
  39.9079282  40.7796122  96.8548722  39.2653663  41.0728655  96.2088516
  39.4034211  40.6649042  97.6601918  37.5619446  44.5259295  87.5434581
  38.4737302  44.7586682  87.3682278  37.0529093  45.1096339  86.9809659
  30.3704874  46.8054782 102.5823712  31.1119558  47.3439826 102.3058535
  29.6641860  47.4321071 102.7395264  35.8460214  48.9483923 101.1795873
  36.2543570  48.5066333 100.4350506  35.1237475  48.3736550 101.4330066
  32.1991284  43.8856530  98.5529430  33.0452479  44.3095943  98.6964079
  32.1389921  43.2290154  99.2467993  36.1689028  49.5085113  94.9348162
  35.5397891  49.6730828  94.2324230  35.7814690  49.9226723  95.7059126
  40.0478260  50.4439551  92.2892526  39.3629298  50.8238453  91.7389559
  40.1322110  51.0534878  93.0224474  35.3490729  41.5460898 100.2110604
  35.1051661  42.3002958  99.6744880  35.6250660  41.9246245 101.0457851
  37.3029192  48.0899510  98.8887870  37.5146087  48.7331270  98.2122251
  37.2558940  47.2561827  98.4209800  34.9055421  40.7017331  95.7924442
  34.0439900  40.9998584  96.0841179  34.9317855  40.9187730  94.8605474
  31.7216990  49.2459521  92.1998247  32.1855336  49.5247224  91.4102870
  31.4573788  48.3442966  92.0171338  28.6141071  48.7931003  95.1378011
  29.1842428  49.2218271  94.4995495  29.2049183  48.5113588  95.8362196
  30.6585876  45.3682674  89.0087812  31.3609920  45.8203718  89.4761739
  30.3266505  44.7266493  89.6367706  29.1066238  43.9594430 103.3839022
  28.4764898  44.6410711 103.6174419  29.0002326  43.8477512 102.4392160
  24.4011210  43.6266226  94.3104946  23.6110264  43.8823755  93.8345057
  24.8922458  44.4414564  94.4156987  38.4175020  50.9671466  97.0610227
  39.2392464  50.5651653  96.7792909  38.4137423  50.8639700  98.0126343
  26.3525956  43.9910806  91.2688423  25.5557119  44.1029500  91.7871918
  26.1251548  44.3297458  90.4029313  32.1831623  50.5155509  99.2170937
  32.2476056  50.9775916 100.0529109  31.4742547  49.8852874  99.3453247
  22.6848913  43.8796717  96.7419937  22.9356952  44.7643727  97.0077513
  23.2208462  43.7001318  95.9695029  46.5081013  47.3110214  93.4095198
  45.7544721  46.7417612  93.2539203  46.6428554  47.2772879  94.3565833
  31.8979641  52.1823616  89.0849918  31.7625316  53.0275152  89.5134766
  32.4389453  52.3842894  88.3215851  25.3509038  49.6999054  89.6577843
  25.8633559  50.4942305  89.8083407  26.0031751  49.0025345  89.5911444
  27.1603923  52.8164811  91.7400596  27.3370551  53.7382775  91.5521580
  27.9560757  52.5023230  92.1694976  26.4456280  44.8629443 101.6162759
  26.3309795  43.9614700 101.9169858  25.5900797  45.1093139 101.2647576
  33.5248117  52.8047183 103.2150260  33.0811971  52.0183562 102.8971164
  34.1865331  52.9926333 102.5494151  28.2835238  54.3342985  97.7410938
  28.8342664  54.2060048  96.9687932  27.4446714  54.6337874  97.3905831
  35.6229355  53.0849983 101.2431661  35.6047831  53.9058864 100.7511930
  36.5449275  52.9604058 101.4681802  32.0802410  50.5994112 102.0855169
  32.6130746  49.8382401 101.8554477  31.5516491  50.3067764 102.8279324
  35.2472104  35.7054178  97.6148811  34.9036374  36.5955820  97.5387922
  35.6151067  35.5155836  96.7518396  23.3157955  48.0287709  90.4337413
  24.1533177  48.4384717  90.2171121  23.4936223  47.0887151  90.4037607
  35.2122387  45.6962789  86.1221246  34.6969011  46.4667394  86.3609634
  34.9399696  45.0227926  86.7454308  32.7969498  40.5412490  91.1806485
  31.9411095  40.1519341  91.0012123  33.2096450  40.6204451  90.3206270
  34.3268645  38.0758833  95.5798044  33.8233440  38.0388969  94.7665850
  34.6199252  38.9851576  95.6394701  30.5711531  38.1597563  94.5864226
  31.4364528  37.9640372  94.2270116  30.6389040  37.9307915  95.5133583
  40.1856661  48.4495144  88.0574420  39.4086104  48.1106304  87.6129582
  40.8648142  48.4547767  87.3829385  35.0008690  43.5689882  87.9481027
  34.6958826  43.8836031  88.7991171  35.9539132  43.6471301  87.9908360
  33.4455122  49.7280105  89.5973981  32.9176484  48.9932864  89.2847219
  32.9442625  50.5054781  89.3513950  38.4247968  47.9229125  94.7141028
  37.7671643  48.6128387  94.8021156  39.2288367  48.3125557  95.0575014
  28.1773850  40.3899771  91.9580593  28.7517602  40.1674953  91.2253786
  28.7644832  40.4588466  92.7109194  37.2353427  46.2773498  92.7644969
  37.7485309  46.9103490  93.2666679  37.8854651  45.6774694  92.3988329
  28.5043437  42.4204232  85.9776478  27.6680749  42.7578919  86.2985753
  28.3648207  42.2853212  85.0403615  30.4796518  37.2641020  90.6855662
  29.8260930  36.9490037  90.0612277  30.4376992  36.6416761  91.4115485
  31.5907722  47.5460315  82.6008954  30.6834784  47.3149569  82.8000103
  32.0878754  46.7497934  82.7882936  34.4975801  56.2557822  85.5205641
  33.8237500  56.5589519  86.1290598  34.8841623  57.0586903  85.1711098
  33.7134258  43.7522954  95.0103310  32.7956819  43.9737901  94.8524998
  34.1294402  43.8269264  94.1515017  34.4969306  45.1514369  90.1405990
  35.2441125  45.6635766  89.8313112  34.7660895  44.8298422  91.0010384
  32.7695956  47.6472910  87.1232945  31.8607175  47.3631943  87.2205414
  32.7991040  48.0671989  86.2636251  38.0015223  51.2579499  90.8924112
  37.5477550  50.4170409  90.9489303  37.3709190  51.8940898  91.2298892
  36.9448143  42.1871486  92.1224780  36.2070900  41.6748872  92.4535022
  37.1974916  41.7471867  91.3108056  36.4448162  53.0955996  91.8273930
  36.7371137  53.6561053  91.1086296  36.9546783  53.3884557  92.5827089
  37.0459770  34.9647738  92.7166549  37.3518647  34.1045101  92.4292464
  37.7712375  35.5565358  92.5165543  23.3384126  45.3678424  91.1048147
  23.1408526  44.7747785  90.3799213  22.7830790  45.0630634  91.8224086
  31.3180850  45.2601531  93.2242740  31.3729460  44.3075367  93.1485216
  30.5072052  45.4160970  93.7084038  32.4672044  49.1881654  84.4621023
  32.0291474  48.4717513  84.0026660  33.2082485  49.4157768  83.9006115
  29.2573210  43.8778590  90.9833119  28.4441075  44.1772761  91.3898311
  29.7532204  43.4834279  91.7007601  31.4081788  53.8736347  92.9167383
  31.3657966  54.0997194  91.9875915  32.3244487  53.6399722  93.0653185
  34.8547421  44.3420415  99.8148013  35.2096809  44.5691888 100.6742478
  35.5019553  44.6738792  99.1925268  40.5845158  47.4638851  90.5197342
  40.4463057  47.6540447  89.5918531  40.2281377  48.2258234  90.9765393
  28.7487285  41.4496946  96.5994354  29.3886664  41.3085705  95.9017317
  27.9164815  41.1631459  96.2232956  40.6114538  49.5315378  95.5308613
  41.0451045  49.4390667  96.3791667  41.3246119  49.5072878  94.8928629
  29.5247588  50.7499376  92.7129346  30.3188187  50.2549696  92.5111921
  28.8139281  50.2217239  92.3497052  34.3442433  53.1317472  97.0641714
  34.3979455  53.7008408  97.8319430  33.4757214  53.3019357  96.6995751
  25.8330352  44.8942458  88.7889099  24.9027940  44.8326914  89.0059061
  25.9287824  44.3718411  87.9925740  25.7515901  41.4197271  91.3767341
  26.0122718  42.3342604  91.2676501  26.5733073  40.9521713  91.5263953
  27.2240826  42.8335028  98.5466165  27.8963880  42.6252390  97.8978814
  26.3970613  42.6357114  98.1071397  41.4730088  49.5739078  98.0641499
  41.6665978  50.4784889  98.3100774  41.3730706  49.1146497  98.8980084
  33.1266398  39.4596969 100.5631826  32.4794313  40.1586919 100.4696302
  33.8967414  39.8933113 100.9308074  36.5345196  49.7245821 103.6382379
  36.3830703  49.4956373 102.7212463  36.5249876  50.6816423 103.6513724
  33.3030533  47.2977734  98.6228646  34.2322593  47.4488893  98.4497613
  32.8821563  47.3861755  97.7677292  32.1018864  51.3228398  96.3927183
  31.9629950  50.9547183  97.2653121  31.3133461  51.8376038  96.2211141
  32.6967016  56.4237495  87.7352720  32.8718772  55.9525538  88.5498342
  32.0099804  57.0503261  87.9633981  33.6524080  50.7010001  93.7816021
  33.3173912  50.6610771  94.6773671  33.1528025  50.0354717  93.3086431
  27.6268324  46.1077631  99.3068602  27.4888122  45.3757870  99.9080141
  28.5373247  46.0186531  99.0252790  30.2550624  45.8197590  98.7952282
  30.9650243  45.1790783  98.7538900  30.2119932  46.0710485  99.7178463
  38.2437403  52.7564944 101.7158861  38.1849949  52.0724164 101.0489444
  38.6456921  53.4983934 101.2639487  28.9679558  42.8062808 100.6147921
  28.4316915  42.3553547 101.2669518  28.3796267  42.9408717  99.8718386
  27.2628102  59.5726858  94.5092580  27.5024700  60.2045382  95.1871599
  26.4197298  59.2214898  94.7957939  28.3781817  42.2651460  83.1774385
  27.5011283  42.1440260  82.8136632  28.8539570  41.4737538  82.9253274
  38.2454810  50.7204528  99.9472841  37.3581589  50.3830449 100.0699240
  38.8153361  49.9887559 100.1841606  19.8983957  47.0528619  93.2715892
  20.5854997  46.7390349  92.6836907  19.7432086  47.9569984  92.9983144
  24.7018679  41.9418816  97.7000916  24.6176868  41.3344485  96.9651326
  23.8801386  42.4327834  97.7010412  31.7755964  55.3805980  96.9134084
  31.7026135  56.1860951  97.4253389  31.3333357  55.5797946  96.0882105
  31.5645743  54.6177750  90.4236906  30.7813265  55.1599430  90.5175130
  32.2638488  55.1351730  90.8231147  34.8742393  40.4272379  93.0671111
  35.3711093  39.6742342  92.7472181  34.1029375  40.4636696  92.5014320
  42.7272151  46.1312745  94.7089402  42.7162027  47.0137460  94.3383335
  41.8589530  45.7784296  94.5143939  34.2354647  55.2792814  99.0692243
  34.9482619  55.9140279  98.9968144  33.7444676  55.3756680  98.2532244
  35.9572174  49.1844067  90.6409534  35.0228453  49.3045529  90.4714239
  36.1348842  48.2816533  90.3769544  31.4577362  42.5689762  92.7942795
  31.0875150  42.0160803  93.4823701  31.9536455  41.9647896  92.2417796
  39.3444725  45.0261386  91.1759568  39.8105178  45.8589378  91.1019871
  39.7952226  44.5606368  91.8804827  29.2866561  53.0287257  99.8897813
  29.9876020  53.6623740 100.0427208  28.8161676  53.3701989  99.1293453
  37.4120956  51.3705207  88.1745720  37.6880800  51.2561802  89.0839595
  36.5425455  50.9722692  88.1357894  37.3161388  37.3941973  95.2150470
  36.4024468  37.6246200  95.3832677  37.7454490  37.4780417  96.0664502
  37.0867847  45.5831865  97.7150364  36.4339297  45.8307772  97.0602817
  37.4648226  44.7696003  97.3812841  34.0475020  55.6191558  91.8178534
  34.2297415  54.8013214  92.2806286  34.8708006  55.8359250  91.3803424
  34.3817186  54.5459743  89.0793583  34.9104952  54.0352198  88.4663745
  34.6445406  54.2302273  89.9439116  33.1355420  46.3251676 104.2016401
  32.4596057  46.2245805 104.8718776  33.9583054  46.1690890 104.6652398
  24.8834279  52.5623612  96.8228916  25.4687716  51.8167300  96.9556820
  24.6859117  52.8727569  97.7065580  27.7372934  55.5974860  91.8391358
  27.0683309  56.0820988  91.3555399  27.5985804  55.8444080  92.7534737
  19.4751933  45.1329213  95.5433359  19.5136033  44.5992803  96.3370477
  18.9692226  44.6064418  94.9244336  31.8778203  57.6318603  98.4374017
  32.4296511  57.7950225  99.2023102  32.2184396  58.2223041  97.7654042
  26.8542696  39.9793753  99.0395902  26.9184022  40.8408584  98.6273299
  26.7909816  39.3667755  98.3068260  36.7289077  52.4579861 104.2922671
  37.2728981  53.0709819 103.7977626  36.1475922  53.0159439 104.8089684
  23.1060511  43.8593315  88.6187291  23.4013952  42.9503993  88.5654344
  22.2048547  43.8381054  88.2968293  35.0146590  55.5800579  95.4237699
  34.8897729  54.7790319  94.9148645  35.6725681  56.0746772  94.9351669
  26.6354758  41.9349311  94.6014839  25.9141344  42.5485279  94.4622313
  27.4248014  42.4707076  94.5231485  37.0781498  53.3809599  97.0517249
  36.1311834  53.2614950  96.9795576  37.4264271  52.4932097  97.1343511
  29.4381072  39.2703738 100.8755491  29.9615473  39.5166034 101.6381800
  29.2193405  40.1023773 100.4558628  24.8348353  41.5407413  88.7426616
  24.5061059  40.6604791  88.5601722  25.1887723  41.4855081  89.6303005
  34.0827931  53.1762315  93.2521601  33.9352894  52.2479023  93.4329171
  34.9081425  53.1982406  92.7678677  27.9490176  41.8280382  89.1102093
  28.2886248  42.3566304  88.3880702  28.3962296  42.1660788  89.8860660
  37.6862053  53.9990874  94.3386474  38.6108601  53.7933735  94.2010925
  37.5177357  53.7507275  95.2475816  30.6433617  40.2117433  98.5605162
  30.3030437  39.4125246  98.9625841  29.9372623  40.5119144  97.9881995
  31.2950088  37.2966745  97.0132485  32.1176158  36.8227224  96.8911375
  31.5388152  38.0757229  97.5131171  29.9358323  40.3255004  87.3095386
  30.6566685  40.7036257  86.8059103  29.3123627  41.0443881  87.4130364
  34.0789446  41.0300153  88.2453719  34.2953060  41.9124791  87.9442547
  33.5983513  40.6386366  87.5159361  28.8188667  43.9885866  94.8224463
  28.6733248  44.3026169  95.7148745  28.3413871  44.6070766  94.2695362
  30.6785050  40.9788414  94.8705353  30.6646619  40.0829507  94.5337651
  31.3957478  40.9859078  95.5043639  32.5311181  41.4125754  96.9158480
  32.2728959  42.3342825  96.9142811  31.9996221  41.0156189  97.6058944
  37.4757370  54.5176541  89.6948566  37.6494247  53.9522964  88.9422418
  37.9686261  55.3177436  89.5128056  23.2934329  46.5291210  97.7612124
  22.7487797  47.3051018  97.8932399  24.1713679  46.8762015  97.6031246
  30.0821946  39.8602794  90.1392923  30.2037857  38.9319441  90.3383810
  29.7923988  39.8741480  89.2271238  32.9513136  37.5457705  93.2759643
  32.9734833  37.6097038  92.3211622  33.3681195  36.7062213  93.4700149
  43.3296761  47.2812964  91.3138865  43.7727907  46.5320290  90.9157989
  42.4523271  47.2723101  90.9312597  24.0800351  45.6561107 100.6542281
  23.3382087  45.8043742 101.2406912  23.7593095  45.9169372  99.7909031
  40.3623965  51.2843011  88.3232795  40.8875289  51.6230284  87.5982115
  40.2746318  50.3490027  88.1395929  32.0244014  55.1977085 100.4522671
  32.3331140  54.9526232 101.3245371  32.8219496  55.4023723  99.9641541
  32.0464626  57.3514995  92.6828048  31.6069616  56.8591373  93.3760904
  32.7972743  56.8087962  92.4420123  24.5256965  53.5426535  92.6852676
  25.3514985  53.2430307  92.3051319  24.1751017  52.7734158  93.1342465
  29.4938498  52.8953004  94.7550349  28.8718507  52.2323709  94.4552577
  30.1643365  52.9214136  94.0723997  22.7265570  51.4612862  93.6441609
  21.8897478  51.0335036  93.4625611  22.6989215  51.6545305  94.5812401
  40.0517871  51.9175915 103.6283993  39.2613415  51.9000054 103.0888492
  39.8151226  52.4564209 104.3833029  40.1715746  48.7668381 100.9416721
  40.2213751  48.6018389 101.8832244  40.0629670  47.8995640 100.5514602
  29.0552005  51.4456927  88.2308810  29.2040125  52.1292391  87.5775483
  29.8618448  51.4262017  88.7458266  37.4619509  44.7499309 102.2576028
  38.3629371  44.6105774 101.9660026  37.5367483  44.9153764 103.1974205
  31.7962314  42.1266164 101.1029214  30.9265623  42.4199730 100.8311803
  32.0321794  42.7106609 101.8236478  41.6733943  51.1865323 101.1858743
  41.3818751  51.5495303 102.0222204  41.0606074  50.4732331 101.0072075
  42.8729625  48.7518203  93.7061313  43.7076517  49.1908007  93.8698873
  43.0088754  48.2756856  92.8869559  39.9221131  46.3097937  99.6538801
  40.3975253  46.5025584  98.8457652  38.9986697  46.3657123  99.4082184
  26.8104638  47.4722105  89.2369879  26.5650680  46.5684435  89.4350089
  26.9800552  47.4739255  88.2949357  34.5001348  38.3445781  98.6194635
  35.0183292  39.0806808  98.2941123  34.1456481  38.6509774  99.4541394
  26.0800285  43.2050462  86.7356040  25.3869530  43.2794817  86.0796076
  25.8352037  42.4410806  87.2577557  34.7513942  34.7646064  94.1395531
  35.0315696  34.0969253  94.7655958  35.5364549  34.9575159  93.6270195
  32.5547410  53.9405057  85.7020557  31.9821378  54.5595245  85.2491029
  33.1280204  54.4904419  86.2360479  38.6222800  43.1863698  97.8867106
  39.5740223  43.2861795  97.9079330  38.4526251  42.3941966  98.3965191
  36.6437180  40.2719281  98.0726507  36.0487112  40.5524294  97.3772996
  36.3586876  40.7613182  98.8443248  35.7744670  54.2242208  86.8329140
  36.7075343  54.1587769  87.0362015  35.6867883  55.0598474  86.3743672
  41.1010878  46.4069817  97.0009406  41.0687198  45.4685818  97.1869090
  41.7111502  46.4853854  96.2675231  32.9394209  45.2765870  83.0436610
  33.8853314  45.1472078  83.1125028  32.5608454  44.5380532  83.5206038
  41.2505367  43.1980861  97.0467689  40.7344415  42.4139317  96.8597618
  42.1345315  42.8699577  97.2114209  38.9116093  36.9421876  93.0063502
  38.7140915  36.6336964  93.8906834  39.5215799  37.6683515  93.1361432
  46.9187428  47.4685824  96.1415443  47.6490816  47.2071112  96.7023146
  46.3094373  46.7314546  96.1817511  45.0002725  45.6093687  96.7389894
  44.2735889  45.4749652  96.1306385  44.5850012  45.9170515  97.5446612
  32.8232901  49.3283616 104.5037267  33.7435911  49.5062215 104.6977313
  32.7882485  48.3839662 104.3516966  31.1237126  43.2015847  82.9791495
  30.2168581  42.9048959  83.0554209  31.4013107  42.9045665  82.1125781
  22.0415066  44.5222210  93.4290542  21.7217851  43.6687518  93.1364916
  21.4948495  44.7370788  94.1848509  25.8194974  47.2384651  97.1460048
  26.0380984  48.1701759  97.1648082  26.2320748  46.8792625  97.9314852
  32.7399192  37.7452736  89.1335736  31.9299920  37.3999821  89.5090983
  33.4283609  37.4360280  89.7223348  34.6689740  36.8230783  90.7560033
  35.2220779  37.2426237  91.4150056  34.9059826  35.8966531  90.7982989
  29.8935911  40.0602782  83.1203474  30.7555075  40.3857680  83.3799292
  30.0786255  39.2734278  82.6076540  21.9103326  48.1425122  95.3983663
  21.2166798  47.7279074  94.8853618  22.6576317  48.1845658  94.8017082
  38.0468547  38.9331308  90.2638697  37.4667216  39.5916112  89.8816750
  37.7804480  38.1108653  89.8526115  36.4972114  38.3336366  92.4660018
  36.9971892  38.4452901  91.6574337  37.1407721  38.0297419  93.1060826
  30.5554109  46.2414996 105.3527859  30.0721191  47.0415356 105.5591748
  30.6415048  46.2522941 104.3995303  23.8240069  48.0743375  93.2749678
  23.8010757  48.1731063  92.3231561  24.1340706  48.9208526  93.5966844
  26.4827447  50.1319530  97.3896292  27.4370700  50.1003473  97.3226224
  26.2839970  49.6710154  98.2046518  27.0726829  48.7020646  99.9567090
  27.8919718  49.1964725  99.9801927  27.3463637  47.7852615  99.9284658
  36.8293425  41.0931399  89.3195046  35.9419280  41.3781049  89.1015240
  37.2447414  40.9325162  88.4722323  40.1807961  41.1177920  93.0349385
  40.9568351  41.6074372  93.3074002  39.4556096  41.5435974  93.4921254
  42.6180520  41.8305539  94.0923325  43.2125011  41.5901275  93.3816634
  42.6907104  41.1112669  94.7196862  24.8377676  55.6739150  94.4066490
  24.7032144  54.9139551  93.8404488  24.4209738  56.3980050  93.9395279
  36.8034449  46.6085935  89.5345336  36.7469650  47.0654486  88.6952968
  37.3562791  45.8476619  89.3568179  40.6139255  42.3975666  90.3595455
  40.3576189  41.9972302  91.1903663  39.9892123  43.1119460  90.2345594
  44.9251593  45.1371740  92.8666747  44.3651151  45.2064929  93.6398309
  44.3195096  44.9612724  92.1466243  27.9946802  56.5708467  94.6184933
  27.8779186  57.5153899  94.5163623  27.1739248  56.2682028  95.0070732
  37.5369228  47.7990716  86.8297865  37.4818032  47.6334987  85.8886309
  36.9115284  48.5066749  86.9860055  34.8515135  50.1039628 106.1551428
  35.7206295  50.2780280 105.7938063  34.3721887  50.9234045 106.0327157
  30.8465354  37.2998825  86.4083183  30.8344024  38.2440665  86.5651454
  31.7388776  37.1168970  86.1142645  29.0201316  57.2236729  97.8340861
  29.9228562  57.2560339  98.1507356  28.7938686  56.2937180  97.8487197
  30.7754918  55.9767715  94.4950940  29.8250549  55.9769577  94.3815312
  31.0787404  55.2300450  93.9786975  34.6617473  33.8941602  90.6629120
  33.8949869  33.3400088  90.8085802  35.0728178  33.9663470  91.5243272
  46.5107611  61.8128254  95.5596702  47.1486021  61.6935001  94.8560042
  46.3928454  62.7609098  95.6184655  43.3197317  61.7655682  95.4958227
  42.9815829  61.6496746  94.6078762  44.1887086  61.3646847  95.4759233
  39.1784133  63.6191158  91.4855118  38.6148998  63.5281095  90.7171406
  39.0636528  62.7991063  91.9657611  43.8017100  62.9190534 101.4544433
  43.7905741  62.5243332 100.5824936  43.9637740  62.1856606 102.0478204
  36.7248565  65.1142350  94.3239338  37.5169857  64.7733174  93.9085638
  36.9645215  65.2237325  95.2441492  44.7583692  67.2862126  86.7969583
  44.1071672  67.8716206  86.4103597  45.5528055  67.8168321  86.8564620
  38.6839319  64.3751263  87.1956717  39.4570195  63.8280250  87.0569593
  39.0364718  65.2395512  87.4071179  40.5224362  65.7027645 100.4023617
  40.2314228  66.6073276 100.2870283  41.1581346  65.7444173 101.1167686
  41.4480568  63.0804494  96.9924976  42.0444141  62.8560516  96.2781939
  41.5055540  62.3389239  97.5950424  41.0205597  60.5343929  84.8275167
  41.2731118  60.0125450  84.0658630  40.0830156  60.3710075  84.9301851
  46.0648880  59.5379708  92.6349910  46.8511969  59.1199131  92.2840327
  46.3287584  60.4425800  92.8031559  46.2358957  64.9752558  87.3338567
  45.6004790  65.0487184  88.0459472  45.9056363  65.5646157  86.6557646
  51.4657307  59.4754941  93.5382889  52.1982479  58.9054158  93.7720718
  50.7096663  59.0876541  93.9789395  43.0833427  61.8982182  90.7346231
  42.7191634  61.3712803  91.4459153  43.9400542  61.5080651  90.5612717
  48.9882727  53.1876515  97.9977498  48.6566052  54.0571926  97.7738713
  48.3928341  52.8712799  98.6771528  42.7238914  56.9272082  85.7307580
  42.8913316  57.7952318  86.0978051  42.5336083  57.0899364  84.8068869
  45.4814247  65.3889061  97.3973410  45.1814970  66.2914100  97.2889218
  45.1365306  65.1221244  98.2494563  38.9326728  61.8402858  93.4310115
  38.0077225  61.7079072  93.6387806  39.1811141  62.6197077  93.9280057
  48.8811390  57.9071601  95.0770848  47.9728268  57.8387009  94.7829609
  48.8298986  58.3843546  95.9052673  42.7028134  59.3829739  86.7154247
  42.5827760  59.8286790  87.5539727  42.0080723  59.7315057  86.1567785
  36.2935539  61.4836131  94.2653904  36.4227920  61.7370610  95.1793315
  35.6132991  62.0763839  93.9458559  40.4635026  72.1533381  90.3644378
  40.3859056  73.1041206  90.4432859  39.8596670  71.8079254  91.0219304
  42.9552256  59.3261247 103.0205745  42.1785590  59.8855167 103.0108610
  43.5942819  59.8118030 103.5420615  50.7473037  56.1088039  96.8548722
  50.1047417  56.4020573  96.2088516  50.2427965  55.9940960  97.6601918
  48.4013201  59.8551213  87.5434581  49.3131057  60.0878599  87.3682278
  47.8922848  60.4388257  86.9809659  41.2098629  62.1346700 102.5823712
  41.9513313  62.6731744 102.3058535  40.5035614  62.7612989 102.7395264
  46.6853968  64.2775840 101.1795873  47.0937324  63.8358251 100.4350506
  45.9631230  63.7028468 101.4330066  43.0385038  59.2148447  98.5529430
  43.8846233  59.6387861  98.6964079  42.9783676  58.5582072  99.2467993
  47.0082783  64.8377031  94.9348162  46.3791645  65.0022745  94.2324230
  46.6208445  65.2518641  95.7059126  50.8872015  65.7731469  92.2892526
  50.2023053  66.1530370  91.7389559  50.9715864  66.3826796  93.0224474
  46.1884484  56.8752816 100.2110604  45.9445415  57.6294876  99.6744880
  46.4644414  57.2538163 101.0457851  48.1422946  63.4191428  98.8887870
  48.3539842  64.0623188  98.2122251  48.0952695  62.5853744  98.4209800
  45.7449175  56.0309249  95.7924442  44.8833654  56.3290502  96.0841179
  45.7711610  56.2479647  94.8605474  42.5610745  64.5751439  92.1998247
  43.0249090  64.8539142  91.4102870  42.2967543  63.6734884  92.0171338
  39.4534826  64.1222921  95.1378011  40.0236183  64.5510189  94.4995495
  40.0442938  63.8405505  95.8362196  41.4979631  60.6974592  89.0087812
  42.2003674  61.1495635  89.4761739  41.1660259  60.0558410  89.6367706
  39.9459992  59.2886348 103.3839022  39.3158653  59.9702629 103.6174419
  39.8396080  59.1769430 102.4392160  35.2404965  58.9558144  94.3104946
  34.4504019  59.2115673  93.8345057  35.7316212  59.7706482  94.4156987
  49.2568774  66.2963383  97.0610227  50.0786218  65.8943571  96.7792909
  49.2531177  66.1931618  98.0126343  37.1919710  59.3202723  91.2688423
  36.3950873  59.4321418  91.7871918  36.9645302  59.6589376  90.4029313
  43.0225378  65.8447427  99.2170937  43.0869810  66.3067834 100.0529109
  42.3136302  65.2144792  99.3453247  33.5242668  59.2088635  96.7419937
  33.7750706  60.0935645  97.0077513  34.0602216  59.0293236  95.9695029
  57.3474767  62.6402132  93.4095198  56.5938476  62.0709530  93.2539203
  57.4822309  62.6064796  94.3565833  42.7373395  67.5115534  89.0849918
  42.6019070  68.3567070  89.5134766  43.2783208  67.7134812  88.3215851
  39.2240735  53.5907114 105.7464273  38.8307681  53.0373313 106.4211917
  40.0406875  53.9017692 106.1370790  36.1902793  65.0290972  89.6577843
  36.7027313  65.8234222  89.8083407  36.8425506  64.3317263  89.5911444
  37.9997677  68.1456728  91.7400596  38.1764306  69.0674693  91.5521580
  38.7954511  67.8315148  92.1694976  42.1408696  55.0064993 103.3384529
  42.8818409  55.6072146 103.2588992  42.3726619  54.2642631 102.7802572
  37.2850034  60.1921360 101.6162759  37.1703549  59.2906618 101.9169858
  36.4294552  60.4385057 101.2647576  44.3641872  68.1339101 103.2150260
  43.9205726  67.3475479 102.8971164  45.0259085  68.3218251 102.5494151
  39.1228993  69.6634902  97.7410938  39.6736418  69.5351966  96.9687932
  38.2840469  69.9629791  97.3905831  46.4623110  68.4141901 101.2431661
  46.4441585  69.2350782 100.7511930  47.3843030  68.2895976 101.4681802
  42.9196164  65.9286030 102.0855169  43.4524501  65.1674318 101.8554477
  42.3910245  65.6359682 102.8279324  46.0865859  51.0346096  97.6148811
  45.7430128  51.9247738  97.5387922  46.4544822  50.8447754  96.7518396
  34.1551710  63.3579626  90.4337413  34.9926932  63.7676635  90.2171121
  34.3329977  62.4179069  90.4037607  46.0516142  61.0254707  86.1221246
  45.5362765  61.7959312  86.3609634  45.7793450  60.3519843  86.7454308
  43.6363253  55.8704408  91.1806485  42.7804849  55.4811258  91.0012123
  44.0490204  55.9496369  90.3206270  45.1662399  53.4050751  95.5798044
  44.6627195  53.3680886  94.7665850  45.4593006  54.3143494  95.6394701
  41.4105285  53.4889481  94.5864226  42.2758282  53.2932290  94.2270116
  41.4782794  53.2599833  95.5133583  51.0250416  63.7787062  88.0574420
  50.2479859  63.4398221  87.6129582  51.7041897  63.7839685  87.3829385
  45.8402445  58.8981799  87.9481027  45.5352580  59.2127948  88.7991171
  46.7932887  58.9763219  87.9908360  44.2848877  65.0572023  89.5973981
  43.7570238  64.3224782  89.2847219  43.7836379  65.8346699  89.3513950
  49.2641723  63.2521043  94.7141028  48.6065397  63.9420304  94.8021156
  50.0682122  63.6417475  95.0575014  39.0167604  55.7191689  91.9580593
  39.5911356  55.4966870  91.2253786  39.6038587  55.7880383  92.7109194
  48.0747182  61.6065416  92.7644969  48.5879063  62.2395408  93.2666679
  48.7248405  61.0066611  92.3988329  39.3437191  57.7496150  85.9776478
  38.5074504  58.0870836  86.2985753  39.2041961  57.6145130  85.0403615
  41.3190272  52.5932938  90.6855662  40.6654684  52.2781955  90.0612277
  41.2770746  51.9708678  91.4115485  45.3369556  71.5849740  85.5205641
  44.6631255  71.8881437  86.1290598  45.7235378  72.3878820  85.1711098
  44.5528012  59.0814871  95.0103310  43.6350574  59.3029818  94.8524998
  44.9688156  59.1561182  94.1515017  45.3363060  60.4806287  90.1405990
  46.0834879  60.9927684  89.8313112  45.6054650  60.1590340  91.0010384
  43.6089710  62.9764828  87.1232945  42.7000930  62.6923860  87.2205414
  43.6384794  63.3963906  86.2636251  48.8408978  66.5871417  90.8924112
  48.3871305  65.7462327  90.9489303  48.2102944  67.2232816  91.2298892
  47.7841897  57.5163403  92.1224780  47.0464654  57.0040789  92.4535022
  48.0368671  57.0763785  91.3108056  47.2841917  68.4247914  91.8273930
  47.5764891  68.9852971  91.1086296  47.7940538  68.7176475  92.5827089
  47.8853525  50.2939655  92.7166549  48.1912401  49.4337019  92.4292464
  48.6106129  50.8857275  92.5165543  34.1777881  60.6970342  91.1048147
  33.9802281  60.1039702  90.3799213  33.6224545  60.3922552  91.8224086
  42.1574604  60.5893448  93.2242740  42.2123214  59.6367285  93.1485216
  41.3465806  60.7452887  93.7084038  40.0966964  59.2070508  90.9833119
  39.2834830  59.5064679  91.3898311  40.5925958  58.8126197  91.7007601
  42.2475542  69.2028265  92.9167383  42.2051721  69.4289111  91.9875915
  43.1638241  68.9691640  93.0653185  45.6941176  59.6712332  99.8148013
  46.0490564  59.8983806 100.6742478  46.3413307  60.0030709  99.1925268
  51.4238913  62.7930768  90.5197342  51.2856812  62.9832364  89.5918531
  51.0675132  63.5550151  90.9765393  39.5881039  56.7788864  96.5994354
  40.2280418  56.6377623  95.9017317  38.7558570  56.4923377  96.2232956
  51.4508293  64.8607295  95.5308613  51.8844799  64.7682584  96.3791667
  52.1639873  64.8364796  94.8928629  40.3641343  66.0791294  92.7129346
  41.1581941  65.5841614  92.5111921  39.6533035  65.5509157  92.3497052
  45.1836187  68.4609389  97.0641714  45.2373210  69.0300326  97.8319430
  44.3150969  68.6311275  96.6995751  36.6724106  60.2234376  88.7889099
  35.7421695  60.1618831  89.0059061  36.7681578  59.7010328  87.9925740
  36.5909655  56.7489189  91.3767341  36.8516473  57.6634522  91.2676501
  37.4126828  56.2813631  91.5263953  38.0634581  58.1626946  98.5466165
  38.7357634  57.9544308  97.8978814  37.2364367  57.9649032  98.1071397
  52.3123842  64.9030996  98.0641499  52.5059732  65.8076807  98.3100774
  52.2124460  64.4438415  98.8980084  43.9660153  54.7888887 100.5631826
  43.3188068  55.4878836 100.4696302  44.7361168  55.2225031 100.9308074
  47.3738951  65.0537739 103.6382379  47.2224457  64.8248290 102.7212463
  47.3643630  66.0108340 103.6513724  44.1424287  62.6269652  98.6228646
  45.0716347  62.7780811  98.4497613  43.7215317  62.7153672  97.7677292
  42.9412619  66.6520316  96.3927183  42.8023705  66.2839100  97.2653121
  42.1527215  67.1667955  96.2211141  43.5360771  71.7529412  87.7352720
  43.7112527  71.2817456  88.5498342  42.8493559  72.3795179  87.9633981
  44.4917834  66.0301919  93.7816021  44.1567667  65.9902689  94.6773671
  43.9921780  65.3646635  93.3086431  38.4662078  61.4369549  99.3068602
  38.3281876  60.7049787  99.9080141  39.3767002  61.3478449  99.0252790
  47.4277026  63.3757953  84.0553081  46.8106196  62.6504781  83.9586133
  46.9593514  64.1367313  83.7120155  41.0944379  61.1489508  98.7952282
  41.8043997  60.5082700  98.7538900  41.0513687  61.4002403  99.7178463
  49.0831157  68.0856861 101.7158861  49.0243704  67.4016081 101.0489444
  49.4850676  68.8275851 101.2639487  39.8073313  58.1354726 100.6147921
  39.2710670  57.6845464 101.2669518  39.2190021  58.2700635  99.8718386
  38.1021856  74.9018775  94.5092580  38.3418454  75.5337299  95.1871599
  37.2591053  74.5506815  94.7957939  39.2175572  57.5943377  83.1774385
  38.3405038  57.4732178  82.8136632  39.6933325  56.8029456  82.9253274
  49.0848565  66.0496445  99.9472841  48.1975343  65.7122367 100.0699240
  49.6547116  65.3179476 100.1841606  30.7377712  62.3820537  93.2715892
  31.4248752  62.0682267  92.6836907  30.5825840  63.2861902  92.9983144
  35.5412434  57.2710734  97.7000916  35.4570623  56.6636403  96.9651326
  34.7195140  57.7619752  97.7010412  42.6149718  70.7097898  96.9134084
  42.5419890  71.5152869  97.4253389  42.1727111  70.9089863  96.0882105
  42.4039498  69.9469668  90.4236906  41.6207020  70.4891348  90.5175130
  43.1032243  70.4643647  90.8231147  45.7136148  55.7564297  93.0671111
  46.2104847  55.0034259  92.7472181  44.9423129  55.7928614  92.5014320
  53.5665905  61.4604663  94.7089402  53.5555781  62.3429378  94.3383335
  52.6983285  61.1076213  94.5143939  45.0748402  70.6084732  99.0692243
  45.7876374  71.2432196  98.9968144  44.5838430  70.7048598  98.2532244
  46.7965928  64.5135984  90.6409534  45.8622207  64.6337447  90.4714239
  46.9742597  63.6108451  90.3769544  42.2971117  57.8981680  92.7942795
  41.9268904  57.3452720  93.4823701  42.7930209  57.2939814  92.2417796
  50.1838480  60.3553304  91.1759568  50.6498932  61.1881295  91.1019871
  50.6345980  59.8898285  91.8804827  40.1260315  68.3579175  99.8897813
  40.8269775  68.9915658 100.0427208  39.6555430  68.6993907  99.1293453
  48.2514711  66.6997125  88.1745720  48.5274555  66.5853719  89.0839595
  47.3819210  66.3014610  88.1357894  48.1555143  52.7233891  95.2150470
  47.2418222  52.9538117  95.3832677  48.5848244  52.8072335  96.0664502
  47.9261601  60.9123783  97.7150364  47.2733051  61.1599690  97.0602817
  48.3041981  60.0987921  97.3812841  44.8868775  70.9483476  91.8178534
  45.0691169  70.1305132  92.2806286  45.7101761  71.1651168  91.3803424
  45.2210940  69.8751661  89.0793583  45.7498707  69.3644115  88.4663745
  45.4839160  69.5594191  89.9439116  43.9749174  61.6543594 104.2016401
  43.2989811  61.5537723 104.8718776  44.7976808  61.4982807 104.6652398
  35.7228033  67.8915530  96.8228916  36.3081470  67.1459218  96.9556820
  35.5252872  68.2019487  97.7065580  38.5766688  70.9266778  91.8391358
  37.9077064  71.4112905  91.3555399  38.4379558  71.1735998  92.7534737
  30.3145688  60.4621130  95.5433359  30.3529787  59.9284721  96.3370477
  29.8085981  59.9356336  94.9244336  42.7171957  72.9610521  98.4374017
  43.2690265  73.1242143  99.2023102  43.0578150  73.5514959  97.7654042
  37.6936450  55.3085671  99.0395902  37.7577777  56.1700502  98.6273299
  37.6303570  54.6959673  98.3068260  37.1688723  57.3808803 102.6868936
  37.7960762  56.9985881 103.3006460  36.3116642  57.1623005 103.0524628
  47.5682831  67.7871779 104.2922671  48.1122735  68.4001737 103.7977626
  46.9869676  68.3451357 104.8089684  33.9454266  59.1885233  88.6187291
  34.2407707  58.2795911  88.5654344  33.0442301  59.1672972  88.2968293
  45.8540344  70.9092497  95.4237699  45.7291484  70.1082236  94.9148645
  46.5119435  71.4038690  94.9351669  37.4748513  57.2641229  94.6014839
  36.7535098  57.8777197  94.4622313  38.2641768  57.7998994  94.5231485
  47.9175253  68.7101517  97.0517249  46.9705588  68.5906868  96.9795576
  48.2658026  67.8224015  97.1343511  40.2774826  54.5995656 100.8755491
  40.8009228  54.8457952 101.6381800  40.0587159  55.4315690 100.4558628
  35.6742107  56.8699330  88.7426616  35.3454813  55.9896709  88.5601722
  36.0281478  56.8146999  89.6303005  44.9221686  68.5054233  93.2521601
  44.7746648  67.5770940  93.4329171  45.7475179  68.5274324  92.7678677
  38.7883930  57.1572300  89.1102093  39.1280003  57.6858221  88.3880702
  39.2356051  57.4952706  89.8860660  48.5255808  69.3282792  94.3386474
  49.4502355  69.1225653  94.2010925  48.3571111  69.0799193  95.2475816
  41.4827371  55.5409351  98.5605162  41.1424191  54.7417164  98.9625841
  40.7766377  55.8411062  97.9881995  42.1343843  52.6258663  97.0132485
  42.9569912  52.1519141  96.8911375  42.3781906  53.4049147  97.5131171
  40.7752077  55.6546922  87.3095386  41.4960440  56.0328174  86.8059103
  40.1517382  56.3735798  87.4130364  44.9183200  56.3592071  88.2453719
  45.1346815  57.2416708  87.9442547  44.4377267  55.9678284  87.5159361
  39.6582422  59.3177784  94.8224463  39.5127002  59.6318087  95.7148745
  39.1807625  59.9362684  94.2695362  41.5178805  56.3080332  94.8705353
  41.5040373  55.4121425  94.5337651  42.2351233  56.3150995  95.5043639
  43.3704935  56.7417672  96.9158480  43.1122713  57.6634743  96.9142811
  42.8389976  56.3448106  97.6058944  48.3151124  69.8468459  89.6948566
  48.4888002  69.2814882  88.9422418  48.8080015  70.6469354  89.5128056
  34.1328084  61.8583128  97.7612124  33.5881552  62.6342936  97.8932399
  35.0107434  62.2053933  97.6031246  40.9215700  55.1894712  90.1392923
  41.0431612  54.2611358  90.3383810  40.6317743  55.2033398  89.2271238
  43.7906891  52.8749622  93.2759643  43.8128588  52.9388956  92.3211622
  44.2074950  52.0354131  93.4700149  54.1690515  62.6104882  91.3138865
  54.6121661  61.8612207  90.9157989  53.2917025  62.6015018  90.9312597
  49.3026296  69.1635223  86.7945464  49.9977201  69.7841916  87.0132778
  49.6449447  68.3130575  87.0697842  34.9194106  60.9853024 100.6542281
  34.1775842  61.1335660 101.2406912  34.5986850  61.2461290  99.7909031
  51.2017720  66.6134929  88.3232795  51.7269044  66.9522202  87.5982115
  51.1140072  65.6781944  88.1395929  42.8637768  70.5269003 100.4522671
  43.1724895  70.2818149 101.3245371  43.6613250  70.7315641  99.9641541
  42.8858380  72.6806912  92.6828048  42.4463371  72.1883291  93.3760904
  43.6366497  72.1379880  92.4420123  35.3650719  68.8718453  92.6852676
  36.1908739  68.5722225  92.3051319  35.0144771  68.1026076  93.1342465
  40.3332253  68.2244921  94.7550349  39.7112262  67.5615626  94.4552577
  41.0037119  68.2506053  94.0723997  33.5659324  66.7904780  93.6441609
  32.7291233  66.3626954  93.4625611  33.5382970  66.9837223  94.5812401
  40.4056780  56.7026709 104.3482855  40.4544935  57.5788832 103.9660625
  40.9479294  56.1604102 103.7754499  50.8911626  67.2467833 103.6283993
  50.1007169  67.2291972 103.0888492  50.6544980  67.7856126 104.3833029
  51.0109501  64.0960299 100.9416721  51.0607506  63.9310306 101.8832244
  50.9023424  63.2287558 100.5514602  39.8945759  66.7748845  88.2308810
  40.0433880  67.4584309  87.5775483  40.7012203  66.7553935  88.7458266
  48.3013263  60.0791227 102.2576028  49.2023126  59.9397692 101.9660026
  48.3761238  60.2445682 103.1974205  42.6356068  57.4558082 101.1029214
  41.7659378  57.7491648 100.8311803  42.8715549  58.0398527 101.8236478
  52.5127698  66.5157241 101.1858743  52.2212506  66.8787221 102.0222204
  51.8999829  65.8024249 101.0072075  53.7123380  64.0810120  93.7061313
  54.5470271  64.5199924  93.8698873  53.8482509  63.6048774  92.8869559
  50.7614886  61.6389855  99.6538801  51.2369007  61.8317501  98.8457652
  49.8380451  61.6949041  99.4082184  37.6498392  62.8014022  89.2369879
  37.4044434  61.8976352  89.4350089  37.8194307  62.8031173  88.2949357
  45.3395102  53.6737699  98.6194635  45.8577046  54.4098726  98.2941123
  44.9850235  53.9801692  99.4541394  36.9194040  58.5342380  86.7356040
  36.2263285  58.6086735  86.0796076  36.6745792  57.7702724  87.2577557
  45.5907696  50.0937981  94.1395531  45.8709450  49.4261170  94.7655958
  46.3758303  50.2867077  93.6270195  43.3941165  69.2696975  85.7020557
  42.8215132  69.8887162  85.2491029  43.9673959  69.8196337  86.2360479
  49.4616555  58.5155615  97.8867106  50.4133978  58.6153713  97.9079330
  49.2920005  57.7233884  98.3965191  47.4830934  55.6011198  98.0726507
  46.8880866  55.8816211  97.3772996  47.1980631  56.0905099  98.8443248
  46.6138425  69.5534125  86.8329140  47.5469098  69.4879687  87.0362015
  46.5261638  70.3890392  86.3743672  49.2426441  68.8699996  83.7933087
  49.1640073  68.5359859  84.6868845  50.0636108  69.3621764  83.7924560
  51.9404633  61.7361735  97.0009406  51.9080953  60.7977736  97.1869090
  52.5505256  61.8145772  96.2675231  43.7787963  60.6057788  83.0436610
  44.7247068  60.4763996  83.1125028  43.4002208  59.8672450  83.5206038
  52.0899121  58.5272778  97.0467689  51.5738170  57.7431235  96.8597618
  52.9739070  58.1991495  97.2114209  49.7509848  52.2713794  93.0063502
  49.5534669  51.9628882  93.8906834  50.3609554  52.9975433  93.1361432
  57.7581182  62.7977742  96.1415443  58.4884571  62.5363030  96.7023146
  57.1488128  62.0606464  96.1817511  55.8396480  60.9385604  96.7389894
  55.1129643  60.8041569  96.1306385  55.4243766  61.2462433  97.5446612
  43.6626656  64.6575534 104.5037267  44.5829665  64.8354133 104.6977313
  43.6276239  63.7131579 104.3516966  41.9630881  58.5307764  82.9791495
  41.0562336  58.2340877  83.0554209  42.2406862  58.2337582  82.1125781
  32.8808821  59.8514128  93.4290542  32.5611605  58.9979436  93.1364916
  32.3342249  60.0662706  94.1848509  36.6588729  62.5676569  97.1460048
  36.8774738  63.4993677  97.1648082  37.0714502  62.2084543  97.9314852
  43.5792946  53.0744654  89.1335736  42.7693675  52.7291739  89.5090983
  44.2677363  52.7652198  89.7223348  45.5083495  52.1522701  90.7560033
  46.0614533  52.5718154  91.4150056  45.7453581  51.2258449  90.7982989
  41.5316594  58.1409774 106.5362797  41.4313321  59.0904131 106.4674888
  41.3138136  57.8128013 105.6638867  32.7497081  63.4717039  95.3983663
  32.0560552  63.0570992  94.8853618  33.4970072  63.5137576  94.8017082
  48.8862302  54.2623226  90.2638697  48.3060971  54.9208030  89.8816750
  48.6198234  53.4400571  89.8526115  47.3365868  53.6628284  92.4660018
  47.8365646  53.7744818  91.6574337  47.9801476  53.3589337  93.1060826
  41.3947864  61.5706913 105.3527859  40.9114946  62.3707273 105.5591748
  41.4808803  61.5814858 104.3995303  34.6633824  63.4035293  93.2749678
  34.6404512  63.5022980  92.3231561  34.9734460  64.2500444  93.5966844
  37.3221201  65.4611448  97.3896292  38.2764455  65.4295390  97.3226224
  37.1233725  65.0002072  98.2046518  37.9120584  64.0312564  99.9567090
  38.7313473  64.5256643  99.9801927  38.1857391  63.1144532  99.9284658
  47.6687180  56.4223316  89.3195046  46.7813035  56.7072967  89.1015240
  48.0841169  56.2617080  88.4722323  51.0201716  56.4469837  93.0349385
  51.7962106  56.9366290  93.3074002  50.2949850  56.8727892  93.4921254
  53.4574274  57.1597457  94.0923325  54.0518765  56.9193193  93.3816634
  53.5300858  56.4404587  94.7196862  35.6771430  71.0031068  94.4066490
  35.5425898  70.2431468  93.8404488  35.2603492  71.7271967  93.9395279
  46.8130393  66.1867991  83.4143066  47.5166243  66.3917994  84.0300721
  46.0893042  66.7544753  83.6792149  47.6428203  61.9377852  89.5345336
  47.5863405  62.3946404  88.6952968  48.1956546  61.1768537  89.3568179
  51.4533009  57.7267584  90.3595455  51.1969944  57.3264220  91.1903663
  50.8285877  58.4411378  90.2345594  55.7645347  60.4663657  92.8666747
  55.2044905  60.5356847  93.6398309  55.1588851  60.2904642  92.1466243
  38.8340556  71.9000385  94.6184933  38.7172940  72.8445817  94.5163623
  38.0133002  71.5973946  95.0070732  48.7217091  66.6250520  85.4641526
  49.5562695  66.1931719  85.2819000  48.5601434  66.4532534  86.3918420
  48.3762983  63.1282634  86.8297865  48.3211787  62.9626905  85.8886309
  47.7509038  63.8358666  86.9860055  33.1655498  58.3650698 100.6559287
  33.8114361  57.8549652 101.1446512  32.9572649  59.1019380 101.2302712
  45.6908890  65.4331545 106.1551428  46.5600050  65.6072198 105.7938063
  45.2115641  66.2525962 106.0327157  39.8595070  72.5528646  97.8340861
  40.7622317  72.5852257  98.1507356  39.6332440  71.6229097  97.8487197
  41.6148672  71.3059633  94.4950940  40.6644303  71.3061495  94.3815312
  41.9181158  70.5592368  93.9786975  45.5011228  49.2233519  90.6629120
  44.7343623  48.6692006  90.8085802  45.9121933  49.2955388  91.5243272
  37.5052989  55.5118315 104.7534301  38.3684450  55.1555120 104.9637626
  36.9318399  55.1732210 105.4409706  57.3501366  77.1420171  95.5596702
  57.9879776  77.0226919  94.8560042  57.2322209  78.0901015  95.6184655
  54.1591072  77.0947599  95.4958227  53.8209583  76.9788664  94.6078762
  55.0280840  76.6938765  95.4759233  50.0177888  78.9483076  91.4855118
  49.4542753  78.8573013  90.7171406  49.9030283  78.1282980  91.9657611
  54.6410855  78.2482451 101.4544433  54.6299496  77.8535249 100.5824936
  54.8031494  77.5148524 102.0478204  47.5642320  80.4434267  94.3239338
  48.3563612  80.1025092  93.9085638  47.8038970  80.5529243  95.2441492
  55.5977446  82.6154044  86.7969583  54.9465426  83.2008124  86.4103597
  56.3921809  83.1460238  86.8564620  49.5233074  79.7043181  87.1956717
  50.2963950  79.1572168  87.0569593  49.8758472  80.5687430  87.4071179
  51.3618116  81.0319563 100.4023617  51.0707982  81.9365194 100.2870283
  51.9975100  81.0736091 101.1167686  52.2874323  78.4096412  96.9924976
  52.8837895  78.1852434  96.2781939  52.3449294  77.6681157  97.5950424
  51.8599351  75.8635847  84.8275167  52.1124872  75.3417368  84.0658630
  50.9223910  75.7001992  84.9301851  56.9042634  74.8671625  92.6349910
  57.6905723  74.4491048  92.2840327  57.1681338  75.7717717  92.8031559
  57.0752712  80.3044476  87.3338567  56.4398544  80.3779102  88.0459472
  56.7450118  80.8938074  86.6557646  62.3051061  74.8046858  93.5382889
  63.0376233  74.2346075  93.7720718  61.5490417  74.4168459  93.9789395
  51.5795640  77.7663953  87.0299542  51.4631898  77.0908856  87.6980626
  51.6897900  77.2796327  86.2131695  53.9227181  77.2274100  90.7346231
  53.5585388  76.7004721  91.4459153  54.7794297  76.8372569  90.5612717
  59.8276482  68.5168433  97.9977498  59.4959806  69.3863843  97.7738713
  59.2322095  68.2004717  98.6771528  53.5632668  72.2564000  85.7307580
  53.7307070  73.1244236  86.0978051  53.3729837  72.4191281  84.8068869
  56.3208001  80.7180979  97.3973410  56.0208724  81.6206017  97.2889218
  55.9759061  80.4513162  98.2494563  49.7720483  77.1694775  93.4310115
  48.8470979  77.0370989  93.6387806  50.0204896  77.9488995  93.9280057
  59.7205145  73.2363519  95.0770848  58.8122022  73.1678927  94.7829609
  59.6692741  73.7135464  95.9052673  53.5421889  74.7121657  86.7154247
  53.4221514  75.1578708  87.5539727  52.8474477  75.0606975  86.1567785
  47.1329294  76.8128049  94.2653904  47.2621675  77.0662528  95.1793315
  46.4526745  77.4055757  93.9458559  51.3028781  87.4825299  90.3644378
  51.2252811  88.4333124  90.4432859  50.6990425  87.1371171  91.0219304
  53.7946011  74.6553164 103.0205745  53.0179345  75.2147084 103.0108610
  54.4336574  75.1409947 103.5420615  61.5866791  71.4379957  96.8548722
  60.9441172  71.7312490  96.2088516  61.0821720  71.3232877  97.6601918
  59.2406955  75.1843130  87.5434581  60.1524811  75.4170517  87.3682278
  58.7316602  75.7680174  86.9809659  52.0492383  77.4638618 102.5823712
  52.7907067  78.0023662 102.3058535  51.3429369  78.0904906 102.7395264
  57.5247723  79.6067758 101.1795873  57.9331079  79.1650169 100.4350506
  56.8024984  79.0320386 101.4330066  53.8778793  74.5440365  98.5529430
  54.7239988  74.9679778  98.6964079  53.8177430  73.8873989  99.2467993
  57.8476537  80.1668949  94.9348162  57.2185400  80.3314663  94.2324230
  57.4602199  80.5810558  95.7059126  61.7265769  81.1023387  92.2892526
  61.0416807  81.4822288  91.7389559  61.8109619  81.7118713  93.0224474
  57.0278238  72.2044733 100.2110604  56.7839170  72.9586794  99.6744880
  57.3038169  72.5830081 101.0457851  58.9816701  78.7483346  98.8887870
  59.1933596  79.3915105  98.2122251  58.9346449  77.9145662  98.4209800
  56.5842930  71.3601166  95.7924442  55.7227409  71.6582420  96.0841179
  56.6105364  71.5771565  94.8605474  53.4004499  79.9043357  92.1998247
  53.8642845  80.1831060  91.4102870  53.1361297  79.0026801  92.0171338
  50.2928580  79.4514838  95.1378011  50.8629937  79.8802107  94.4995495
  50.8836692  79.1697423  95.8362196  52.3373385  76.0266509  89.0087812
  53.0397429  76.4787553  89.4761739  52.0054014  75.3850328  89.6367706
  50.7853747  74.6178266 103.3839022  50.1552407  75.2994547 103.6174419
  50.6789835  74.5061347 102.4392160  46.0798719  74.2850062  94.3104946
  45.2897773  74.5407590  93.8345057  46.5709967  75.0998400  94.4156987
  60.0962529  81.6255301  97.0610227  60.9179973  81.2235488  96.7792909
  60.0924932  81.5223535  98.0126343  48.0313465  74.6494641  91.2688423
  47.2344628  74.7613335  91.7871918  47.8039057  74.9881293  90.4029313
  53.8619132  81.1739344  99.2170937  53.9263565  81.6359752 100.0529109
  53.1530056  80.5436709  99.3453247  44.3636422  74.5380552  96.7419937
  44.6144461  75.4227562  97.0077513  44.8995971  74.3585154  95.9695029
  68.1868522  77.9694050  93.4095198  67.4332230  77.4001448  93.2539203
  68.3216063  77.9356714  94.3565833  53.5767150  82.8407452  89.0849918
  53.4412825  83.6858988  89.5134766  54.1176962  83.0426729  88.3215851
  50.0634490  68.9199032 105.7464273  49.6701435  68.3665230 106.4211917
  50.8800630  69.2309610 106.1370790  47.0296547  80.3582890  89.6577843
  47.5421068  81.1526140  89.8083407  47.6819260  79.6609180  89.5911444
  48.8391432  83.4748646  91.7400596  49.0158060  84.3966611  91.5521580
  49.6348266  83.1607065  92.1694976  52.9802451  70.3356911 103.3384529
  53.7212164  70.9364064 103.2588992  53.2120373  69.5934549 102.7802572
  48.1243789  75.5213278 101.6162759  48.0097304  74.6198535 101.9169858
  47.2688306  75.7676975 101.2647576  55.2035626  83.4631018 103.2150260
  54.7599480  82.6767397 102.8971164  55.8652840  83.6510169 102.5494151
  49.9622747  84.9926820  97.7410938  50.5130173  84.8643883  96.9687932
  49.1234223  85.2921709  97.3905831  57.3016864  83.7433818 101.2431661
  57.2835340  84.5642699 100.7511930  58.2236784  83.6187893 101.4681802
  53.7589919  81.2577948 102.0855169  54.2918255  80.4966236 101.8554477
  53.2304000  80.9651600 102.8279324  56.9259613  66.3638014  97.6148811
  56.5823883  67.2539655  97.5387922  57.2938576  66.1739671  96.7518396
  44.9945464  78.6871544  90.4337413  45.8320686  79.0968553  90.2171121
  45.1723732  77.7470986  90.4037607  56.8909896  76.3546625  86.1221246
  56.3756520  77.1251229  86.3609634  56.6187205  75.6811761  86.7454308
  54.4757007  71.1996326  91.1806485  53.6198604  70.8103176  91.0012123
  54.8883959  71.2788286  90.3206270  56.0056154  68.7342669  95.5798044
  55.5020949  68.6972804  94.7665850  56.2986761  69.6435412  95.6394701
  52.2499040  68.8181399  94.5864226  53.1152037  68.6224207  94.2270116
  52.3176549  68.5891750  95.5133583  61.8644170  79.1078979  88.0574420
  61.0873613  78.7690139  87.6129582  62.5435651  79.1131603  87.3829385
  56.6796199  74.2273717  87.9481027  56.3746335  74.5419866  88.7991171
  57.6326641  74.3055137  87.9908360  55.1242631  80.3863940  89.5973981
  54.5963993  79.6516700  89.2847219  54.6230134  81.1638617  89.3513950
  60.1035477  78.5812961  94.7141028  59.4459152  79.2712222  94.8021156
  60.9075876  78.9709393  95.0575014  49.8561359  71.0483606  91.9580593
  50.4305111  70.8258788  91.2253786  50.4432341  71.1172301  92.7109194
  58.9140936  76.9357333  92.7644969  59.4272818  77.5687325  93.2666679
  59.5642160  76.3358529  92.3988329  50.1830946  73.0788068  85.9776478
  49.3468258  73.4162754  86.2985753  50.0435716  72.9437047  85.0403615
  52.1584027  67.9224855  90.6855662  51.5048439  67.6073873  90.0612277
  52.1164501  67.3000596  91.4115485  53.2695231  78.2044150  82.6008954
  52.3622293  77.9733404  82.8000103  53.7666263  77.4081770  82.7882936
  56.1763310  86.9141658  85.5205641  55.5025009  87.2173354  86.1290598
  56.5629132  87.7170738  85.1711098  55.3921767  74.4106789  95.0103310
  54.4744328  74.6321736  94.8524998  55.8081911  74.4853099  94.1515017
  56.1756815  75.8098205  90.1405990  56.9228634  76.3219602  89.8313112
  56.4448404  75.4882257  91.0010384  54.4483465  78.3056745  87.1232945
  53.5394684  78.0215778  87.2205414  54.4778549  78.7255824  86.2636251
  59.6802732  81.9163335  90.8924112  59.2265059  81.0754245  90.9489303
  59.0496699  82.5524733  91.2298892  58.6235652  72.8455321  92.1224780
  57.8858409  72.3332707  92.4535022  58.8762425  72.4055702  91.3108056
  58.1235671  83.7539832  91.8273930  58.4158646  84.3144889  91.1086296
  58.6334292  84.0468393  92.5827089  58.7247279  65.6231573  92.7166549
  59.0306156  64.7628936  92.4292464  59.4499884  66.2149193  92.5165543
  45.0171635  76.0262259  91.1048147  44.8196035  75.4331620  90.3799213
  44.4618299  75.7214470  91.8224086  52.9968359  75.9185366  93.2242740
  53.0516969  74.9659202  93.1485216  52.1859561  76.0744805  93.7084038
  54.1459553  79.8465489  84.4621023  53.7078983  79.1301348  84.0026660
  54.8869993  80.0741604  83.9006115  50.9360719  74.5362426  90.9833119
  50.1228584  74.8356596  91.3898311  51.4319713  74.1418114  91.7007601
  53.0869297  84.5320183  92.9167383  53.0445475  84.7581029  91.9875915
  54.0031996  84.2983557  93.0653185  56.5334930  75.0004250  99.8148013
  56.8884318  75.2275723 100.6742478  57.1807062  75.3322627  99.1925268
  62.2632667  78.1222686  90.5197342  62.1250566  78.3124282  89.5918531
  61.9068886  78.8842069  90.9765393  50.4274794  72.1080781  96.5994354
  51.0674173  71.9669540  95.9017317  49.5952324  71.8215295  96.2232956
  62.2902047  80.1899213  95.5308613  62.7238554  80.0974502  96.3791667
  63.0033628  80.1656714  94.8928629  51.2035097  81.4083212  92.7129346
  51.9975696  80.9133532  92.5111921  50.4926790  80.8801075  92.3497052
  56.0229942  83.7901307  97.0641714  56.0766964  84.3592243  97.8319430
  55.1544723  83.9603192  96.6995751  47.5117861  75.5526293  88.7889099
  46.5815449  75.4910749  89.0059061  47.6075333  75.0302246  87.9925740
  47.4303410  72.0781106  91.3767341  47.6910227  72.9926439  91.2676501
  48.2520582  71.6105549  91.5263953  48.9028335  73.4918863  98.5466165
  49.5751389  73.2836226  97.8978814  48.0758122  73.2940949  98.1071397
  63.1517597  80.2322914  98.0641499  63.3453487  81.1368724  98.3100774
  63.0518215  79.7730333  98.8980084  54.8053907  70.1180804 100.5631826
  54.1581822  70.8170754 100.4696302  55.5754923  70.5516948 100.9308074
  54.9818042  77.9561569  98.6228646  55.9110102  78.1072729  98.4497613
  54.5609072  78.0445590  97.7677292  53.7806373  81.9812234  96.3927183
  53.6417459  81.6131018  97.2653121  52.9920970  82.4959873  96.2211141
  54.3754525  87.0821330  87.7352720  54.5506281  86.6109373  88.5498342
  53.6887313  87.7087096  87.9633981  55.3311589  81.3593836  93.7816021
  54.9961421  81.3194606  94.6773671  54.8315534  80.6938552  93.3086431
  49.3055833  76.7661466  99.3068602  49.1675630  76.0341705  99.9080141
  50.2160756  76.6770366  99.0252790  58.2670780  78.7049871  84.0553081
  57.6499951  77.9796699  83.9586133  57.7987269  79.4659231  83.7120155
  51.9338133  76.4781426  98.7952282  52.6437752  75.8374618  98.7538900
  51.8907441  76.7294321  99.7178463  50.6467067  73.4646644 100.6147921
  50.1104424  73.0137382 101.2669518  50.0583776  73.5992552  99.8718386
  48.9415611  90.2310693  94.5092580  49.1812209  90.8629217  95.1871599
  48.0984807  89.8798733  94.7957939  50.0569326  72.9235295  83.1774385
  49.1798792  72.8024096  82.8136632  50.5327079  72.1321373  82.9253274
  59.9242319  81.3788363  99.9472841  59.0369098  81.0414285 100.0699240
  60.4940870  80.6471394 100.1841606  41.5771466  77.7112455  93.2715892
  42.2642506  77.3974185  92.6836907  41.4219595  78.6153819  92.9983144
  46.3806188  72.6002651  97.7000916  46.2964377  71.9928321  96.9651326
  45.5588895  73.0911670  97.7010412  53.4543473  86.0389815  96.9134084
  53.3813644  86.8444787  97.4253389  53.0120866  86.2381781  96.0882105
  53.2433252  85.2761585  90.4236906  52.4600774  85.8183266  90.5175130
  53.9425997  85.7935565  90.8231147  56.5529902  71.0856215  93.0671111
  57.0498602  70.3326177  92.7472181  55.7816884  71.1220531  92.5014320
  64.4059660  76.7896580  94.7089402  64.3949536  77.6721296  94.3383335
  63.5377039  76.4368131  94.5143939  55.9142156  85.9376649  99.0692243
  56.6270128  86.5724114  98.9968144  55.4232185  86.0340515  98.2532244
  57.6359683  79.8427902  90.6409534  56.7015962  79.9629364  90.4714239
  57.8136351  78.9400369  90.3769544  53.1364871  73.2273598  92.7942795
  52.7662659  72.6744638  93.4823701  53.6323964  72.6231731  92.2417796
  61.0232234  75.6845221  91.1759568  61.4892687  76.5173213  91.1019871
  61.4739735  75.2190203  91.8804827  50.9654070  83.6871093  99.8897813
  51.6663529  84.3207576 100.0427208  50.4949185  84.0285824  99.1293453
  59.0908465  82.0289043  88.1745720  59.3668309  81.9145637  89.0839595
  58.2212964  81.6306527  88.1357894  58.9948897  68.0525808  95.2150470
  58.0811977  68.2830035  95.3832677  59.4241999  68.1364252  96.0664502
  58.7655356  76.2415700  97.7150364  58.1126806  76.4891608  97.0602817
  59.1435735  75.4279838  97.3812841  55.7262529  86.2775393  91.8178534
  55.9084924  85.4597049  92.2806286  56.5495515  86.4943086  91.3803424
  56.0604695  85.2043579  89.0793583  56.5892461  84.6936033  88.4663745
  56.3232915  84.8886109  89.9439116  54.8142929  76.9835511 104.2016401
  54.1383566  76.8829641 104.8718776  55.6370562  76.8274725 104.6652398
  46.5621788  83.2207448  96.8228916  47.1475224  82.4751136  96.9556820
  46.3646626  83.5311405  97.7065580  49.4160443  86.2558695  91.8391358
  48.7470818  86.7404823  91.3555399  49.2773313  86.5027916  92.7534737
  41.1539442  75.7913048  95.5433359  41.1923542  75.2576639  96.3370477
  40.6479735  75.2648254  94.9244336  53.5565711  88.2902439  98.4374017
  54.1084020  88.4534060  99.2023102  53.8971905  88.8806877  97.7654042
  48.5330205  70.6377589  99.0395902  48.5971531  71.4992419  98.6273299
  48.4697325  70.0251590  98.3068260  48.0082477  72.7100721 102.6868936
  48.6354516  72.3277798 103.3006460  47.1510396  72.4914923 103.0524628
  44.7848020  74.5177150  88.6187291  45.0801461  73.6087829  88.5654344
  43.8836056  74.4964890  88.2968293  56.6934099  86.2384414  95.4237699
  56.5685238  85.4374154  94.9148645  57.3513190  86.7330608  94.9351669
  48.3142267  72.5933147  94.6014839  47.5928853  73.2069114  94.4622313
  49.1035523  73.1290912  94.5231485  58.7569007  84.0393434  97.0517249
  57.8099343  83.9198786  96.9795576  59.1051780  83.1515932  97.1343511
  51.1168581  69.9287573 100.8755491  51.6402982  70.1749870 101.6381800
  50.8980914  70.7607608 100.4558628  46.5135862  72.1991248  88.7426616
  46.1848568  71.3188627  88.5601722  46.8675232  72.1438917  89.6303005
  55.7615440  83.8346151  93.2521601  55.6140403  82.9062858  93.4329171
  56.5868934  83.8566241  92.7678677  49.6277685  72.4864218  89.1102093
  49.9673757  73.0150139  88.3880702  50.0749805  72.8244624  89.8860660
  59.3649562  84.6574709  94.3386474  60.2896110  84.4517571  94.2010925
  59.1964866  84.4091110  95.2475816  52.3221126  70.8701268  98.5605162
  51.9817946  70.0709081  98.9625841  51.6160132  71.1702979  97.9881995
  52.9737597  67.9550581  97.0132485  53.7963667  67.4811059  96.8911375
  53.2175661  68.7341065  97.5131171  51.6145832  70.9838839  87.3095386
  52.3354194  71.3620092  86.8059103  50.9911136  71.7027716  87.4130364
  55.7576955  71.6883988  88.2453719  55.9740569  72.5708626  87.9442547
  55.2771022  71.2970202  87.5159361  50.4976176  74.6469701  94.8224463
  50.3520757  74.9610005  95.7148745  50.0201380  75.2654602  94.2695362
  52.3572559  71.6372249  94.8705353  52.3434128  70.7413343  94.5337651
  53.0744987  71.6442913  95.5043639  54.2098690  72.0709590  96.9158480
  53.9516468  72.9926660  96.9142811  53.6783730  71.6740024  97.6058944
  59.1544879  85.1760377  89.6948566  59.3281756  84.6106799  88.9422418
  59.6473770  85.9761272  89.5128056  44.9721838  77.1875046  97.7612124
  44.4275306  77.9634854  97.8932399  45.8501188  77.5345850  97.6031246
  51.7609455  70.5186630  90.1392923  51.8825366  69.5903276  90.3383810
  51.4711497  70.5325316  89.2271238  54.6300645  68.2041540  93.2759643
  54.6522342  68.2680873  92.3211622  55.0468704  67.3646049  93.4700149
  65.0084270  77.9396800  91.3138865  65.4515416  77.1904125  90.9157989
  64.1310780  77.9306936  90.9312597  60.1420051  84.4927141  86.7945464
  60.8370956  85.1133834  87.0132778  60.4843201  83.6422492  87.0697842
  45.7587860  76.3144942 100.6542281  45.0169596  76.4627577 101.2406912
  45.4380604  76.5753208  99.7909031  62.0411474  81.9426847  88.3232795
  62.5662798  82.2814119  87.5982115  61.9533827  81.0073862  88.1395929
  53.7031523  85.8560920 100.4522671  54.0118649  85.6110067 101.3245371
  54.5007005  86.0607559  99.9641541  53.7252135  88.0098830  92.6828048
  53.2857125  87.5175209  93.3760904  54.4760252  87.4671798  92.4420123
  46.2044474  84.2010371  92.6852676  47.0302494  83.9014143  92.3051319
  45.8538526  83.4317993  93.1342465  51.1726007  83.5536839  94.7550349
  50.5506016  82.8907544  94.4552577  51.8430874  83.5797971  94.0723997
  44.4053079  82.1196697  93.6441609  43.5684987  81.6918872  93.4625611
  44.3776724  82.3129141  94.5812401  51.2450534  72.0318627 104.3482855
  51.2938690  72.9080750 103.9660625  51.7873049  71.4896020 103.7754499
  61.8503255  79.4252217 100.9416721  61.9001260  79.2602224 101.8832244
  61.7417179  78.5579476 100.5514602  50.7339514  82.1040762  88.2308810
  50.8827634  82.7876227  87.5775483  51.5405957  82.0845852  88.7458266
  59.1407018  75.4083145 102.2576028  60.0416880  75.2689610 101.9660026
  59.2154992  75.5737600 103.1974205  53.4749823  72.7849999 101.1029214
  52.6053132  73.0783566 100.8311803  53.7109303  73.3690444 101.8236478
  64.5517134  79.4102038  93.7061313  65.3864026  79.8491842  93.8698873
  64.6876263  78.9340691  92.8869559  61.6008640  76.9681773  99.6538801
  62.0762762  77.1609419  98.8457652  60.6774206  77.0240959  99.4082184
  48.4892147  78.1305940  89.2369879  48.2438189  77.2268270  89.4350089
  48.6588061  78.1323090  88.2949357  56.1788857  69.0029616  98.6194635
  56.6970801  69.7390643  98.2941123  55.8243990  69.3093610  99.4541394
  47.7587794  73.8634298  86.7356040  47.0657039  73.9378653  86.0796076
  47.5139546  73.0994641  87.2577557  56.4301451  65.4229899  94.1395531
  56.7103205  64.7553088  94.7655958  57.2152058  65.6158995  93.6270195
  54.2334919  84.5988893  85.7020557  53.6608887  85.2179080  85.2491029
  54.8067713  85.1488255  86.2360479  60.3010309  73.8447533  97.8867106
  61.2527732  73.9445631  97.9079330  60.1313760  73.0525801  98.3965191
  58.3224689  70.9303116  98.0726507  57.7274621  71.2108129  97.3772996
  58.0374385  71.4197017  98.8443248  57.4532179  84.8826043  86.8329140
  58.3862852  84.8171605  87.0362015  57.3655392  85.7182310  86.3743672
  60.0820196  84.1991913  83.7933087  60.0033827  83.8651777  84.6868845
  60.9029863  84.6913681  83.7924560  62.7798387  77.0653653  97.0009406
  62.7474707  76.1269653  97.1869090  63.3899011  77.1437689  96.2675231
  54.6181718  75.9349706  83.0436610  55.5640823  75.8055914  83.1125028
  54.2395963  75.1964368  83.5206038  62.9292876  73.8564696  97.0467689
  62.4131924  73.0723153  96.8597618  63.8132824  73.5283413  97.2114209
  60.5903602  67.6005712  93.0063502  60.3928424  67.2920800  93.8906834
  61.2003308  68.3267351  93.1361432  68.5974937  78.1269659  96.1415443
  69.3278325  77.8654948  96.7023146  67.9881882  77.3898381  96.1817511
  66.6790234  76.2677522  96.7389894  65.9523398  76.1333487  96.1306385
  66.2637521  76.5754351  97.5446612  54.5020410  79.9867452 104.5037267
  55.4223420  80.1646051 104.6977313  54.4669994  79.0423497 104.3516966
  52.8024635  73.8599682  82.9791495  51.8956090  73.5632795  83.0554209
  53.0800616  73.5629500  82.1125781  43.7202575  75.1806045  93.4290542
  43.4005360  74.3271354  93.1364916  43.1736004  75.3954624  94.1848509
  47.4982483  77.8968486  97.1460048  47.7168493  78.8285594  97.1648082
  47.9108257  77.5376461  97.9314852  54.4186701  68.4036572  89.1335736
  53.6087429  68.0583657  89.5090983  55.1071118  68.0944115  89.7223348
  56.3477249  67.4814619  90.7560033  56.9008288  67.9010072  91.4150056
  56.5847335  66.5550367  90.7982989  52.3710348  73.4701692 106.5362797
  52.2707075  74.4196049 106.4674888  52.1531890  73.1419931 105.6638867
  51.5723420  70.7186617  83.1203474  52.4342584  71.0441516  83.3799292
  51.7573764  69.9318113  82.6076540  43.5890835  78.8008957  95.3983663
  42.8954307  78.3862910  94.8853618  44.3363826  78.8429493  94.8017082
  59.7256056  69.5915144  90.2638697  59.1454725  70.2499948  89.8816750
  59.4591989  68.7692488  89.8526115  58.1759623  68.9920201  92.4660018
  58.6759401  69.1036736  91.6574337  58.8195230  68.6881254  93.1060826
  52.2341618  76.8998831 105.3527859  51.7508700  77.6999191 105.5591748
  52.3202557  76.9106776 104.3995303  45.5027578  78.7327211  93.2749678
  45.4798266  78.8314898  92.3231561  45.8128214  79.5792361  93.5966844
  48.1614956  80.7903366  97.3896292  49.1158209  80.7587308  97.3226224
  47.9627479  80.3293989  98.2046518  48.7514338  79.3604482  99.9567090
  49.5707227  79.8548560  99.9801927  49.0251146  78.4436450  99.9284658
  58.5080934  71.7515234  89.3195046  57.6206789  72.0364885  89.1015240
  58.9234923  71.5908997  88.4722323  61.8595470  71.7761755  93.0349385
  62.6355860  72.2658207  93.3074002  61.1343605  72.2019809  93.4921254
  64.2968029  72.4889374  94.0923325  64.8912520  72.2485110  93.3816634
  64.3694613  71.7696505  94.7196862  46.5165185  86.3322985  94.4066490
  46.3819653  85.5723386  93.8404488  46.0997247  87.0563885  93.9395279
  57.6524148  81.5159909  83.4143066  58.3559998  81.7209911  84.0300721
  56.9286796  82.0836671  83.6792149  58.4821958  77.2669770  89.5345336
  58.4257159  77.7238321  88.6952968  59.0350300  76.5060455  89.3568179
  62.2926764  73.0559502  90.3595455  62.0363698  72.6556138  91.1903663
  61.6679632  73.7703296  90.2345594  66.6039102  75.7955575  92.8666747
  66.0438660  75.8648764  93.6398309  65.9982605  75.6196560  92.1466243
  49.6734311  87.2292302  94.6184933  49.5566695  88.1737735  94.5163623
  48.8526757  86.9265864  95.0070732  59.5610845  81.9542438  85.4641526
  60.3956449  81.5223636  85.2819000  59.3995188  81.7824452  86.3918420
  59.2156737  78.4574551  86.8297865  59.1605541  78.2918823  85.8886309
  58.5902793  79.1650584  86.9860055  44.0049252  73.6942616 100.6559287
  44.6508116  73.1841570 101.1446512  43.7966403  74.4311297 101.2302712
  52.5252863  67.9582660  86.4083183  52.5131533  68.9024500  86.5651454
  53.4176285  67.7752806  86.1142645  50.6988825  87.8820564  97.8340861
  51.6016071  87.9144174  98.1507356  50.4726195  86.9521015  97.8487197
  52.4542427  86.6351551  94.4950940  51.5038058  86.6353412  94.3815312
  52.7574913  85.8884285  93.9786975  56.3404982  64.5525437  90.6629120
  55.5737378  63.9983924  90.8085802  56.7515687  64.6247306  91.5243272
  48.3446743  70.8410233 104.7534301  49.2078205  70.4847038 104.9637626
  47.7712154  70.5024128 105.4409706  60.8571642  94.2774994  91.4855118
  60.2936507  94.1864930  90.7171406  60.7424037  93.4574898  91.9657611
  66.4371201  97.9445961  86.7969583  65.7859181  98.5300042  86.4103597
  67.2315564  98.4752156  86.8564620  60.3626828  95.0335098  87.1956717
  61.1357704  94.4864085  87.0569593  60.7152227  95.8979348  87.4071179
  62.6993106  91.1927765  84.8275167  62.9518627  90.6709286  84.0658630
  61.7617665  91.0293910  84.9301851  67.7436389  90.1963543  92.6349910
  68.5299478  89.7782966  92.2840327  68.0075093  91.1009635  92.8031559
  67.9146466  95.6336393  87.3338567  67.2792299  95.7071020  88.0459472
  67.5843872  96.2229992  86.6557646  62.4189395  93.0955870  87.0299542
  62.3025653  92.4200774  87.6980626  62.5291654  92.6088244  86.2131695
  64.7620936  92.5566018  90.7346231  64.3979143  92.0296639  91.4459153
  65.6188051  92.1664487  90.5612717  64.4026422  87.5855917  85.7307580
  64.5700825  88.4536154  86.0978051  64.2123592  87.7483199  84.8068869
  60.6114237  92.4986693  93.4310115  59.6864734  92.3662907  93.6387806
  60.8598650  93.2780912  93.9280057  64.3815643  90.0413575  86.7154247
  64.2615269  90.4870626  87.5539727  63.6868232  90.3898892  86.1567785
  57.9723048  92.1419967  94.2653904  58.1015429  92.3954446  95.1793315
  57.2920499  92.7347675  93.9458559  70.0800710  90.5135048  87.5434581
  70.9918566  90.7462435  87.3682278  69.5710357  91.0972092  86.9809659
  67.4236684  86.6893084  95.7924442  66.5621163  86.9874337  96.0841179
  67.4499119  86.9063483  94.8605474  64.2398254  95.2335274  92.1998247
  64.7036599  95.5122977  91.4102870  63.9755052  94.3318719  92.0171338
  63.1767140  91.3558427  89.0087812  63.8791183  91.8079471  89.4761739
  62.8447768  90.7142246  89.6367706  56.9192474  89.6141980  94.3104946
  56.1291528  89.8699508  93.8345057  57.4103721  90.4290317  94.4156987
  58.8707219  89.9786559  91.2688423  58.0738382  90.0905253  91.7871918
  58.6432811  90.3173211  90.4029313  55.2030177  89.8672470  96.7419937
  55.4538215  90.7519480  97.0077513  55.7389725  89.6877072  95.9695029
  64.4160904  98.1699369  89.0849918  64.2806579  99.0150905  89.5134766
  64.9570717  98.3718647  88.3215851  57.8690302  95.6874808  89.6577843
  58.3814822  96.4818058  89.8083407  58.5213015  94.9901098  89.5911444
  59.6785186  98.8040564  91.7400596  59.8551815  99.7258529  91.5521580
  60.4742020  98.4898983  92.1694976  67.7653368  81.6929931  97.6148811
  67.4217637  82.5831573  97.5387922  68.1332331  81.5031589  96.7518396
  55.8339219  94.0163462  90.4337413  56.6714441  94.4260470  90.2171121
  56.0117486  93.0762904  90.4037607  67.7303651  91.6838542  86.1221246
  67.2150274  92.4543147  86.3609634  67.4580959  91.0103679  86.7454308
  65.3150762  86.5288243  91.1806485  64.4592358  86.1395094  91.0012123
  65.7277713  86.6080204  90.3206270  66.8449908  84.0634587  95.5798044
  66.3414704  84.0264722  94.7665850  67.1380515  84.9727329  95.6394701
  63.0892794  84.1473316  94.5864226  63.9545791  83.9516125  94.2270116
  63.1570303  83.9183668  95.5133583  72.7037925  94.4370897  88.0574420
  71.9267368  94.0982057  87.6129582  73.3829406  94.4423520  87.3829385
  67.5189954  89.5565635  87.9481027  67.2140089  89.8711784  88.7991171
  68.4720396  89.6347054  87.9908360  65.9636386  95.7155858  89.5973981
  65.4357747  94.9808617  89.2847219  65.4623888  96.4930534  89.3513950
  60.6955113  86.3775524  91.9580593  61.2698865  86.1550706  91.2253786
  61.2826096  86.4464219  92.7109194  61.0224700  88.4079985  85.9776478
  60.1862013  88.7454672  86.2985753  60.8829470  88.2728965  85.0403615
  62.9977781  83.2516773  90.6855662  62.3442193  82.9365790  90.0612277
  62.9558255  82.6292514  91.4115485  64.1088986  93.5336068  82.6008954
  63.2016048  93.3025322  82.8000103  64.6060018  92.7373687  82.7882936
  67.0157065 102.2433575  85.5205641  66.3418764 102.5465272  86.1290598
  67.4022887 103.0462656  85.1711098  66.2315521  89.7398707  95.0103310
  65.3138083  89.9613654  94.8524998  66.6475665  89.8145017  94.1515017
  67.0150569  91.1390122  90.1405990  67.7622388  91.6511520  89.8313112
  67.2842159  90.8174175  91.0010384  65.2877219  93.6348663  87.1232945
  64.3788439  93.3507696  87.2205414  65.3172303  94.0547742  86.2636251
  69.4629406  88.1747239  92.1224780  68.7252163  87.6624625  92.4535022
  69.7156180  87.7347620  91.3108056  69.5641034  80.9523491  92.7166549
  69.8699910  80.0920854  92.4292464  70.2893638  81.5441111  92.5165543
  55.8565390  91.3554177  91.1048147  55.6589790  90.7623538  90.3799213
  55.3012054  91.0506387  91.8224086  63.8362113  91.2477284  93.2242740
  63.8910723  90.2951120  93.1485216  63.0253315  91.4036723  93.7084038
  64.9853307  95.1757407  84.4621023  64.5472737  94.4593266  84.0026660
  65.7263748  95.4033522  83.9006115  61.7754473  89.8654343  90.9833119
  60.9622339  90.1648514  91.3898311  62.2713467  89.4710032  91.7007601
  61.2668548  87.4372699  96.5994354  61.9067927  87.2961458  95.9017317
  60.4346079  87.1507212  96.2232956  62.0428852  96.7375129  92.7129346
  62.8369450  96.2425449  92.5111921  61.3320544  96.2092992  92.3497052
  58.3511615  90.8818211  88.7889099  57.4209203  90.8202667  89.0059061
  58.4469087  90.3594164  87.9925740  58.2697164  87.4073024  91.3767341
  58.5303982  88.3218357  91.2676501  59.0914337  86.9397466  91.5263953
  69.1064535  94.0341788  84.0553081  68.4893705  93.3088616  83.9586133
  68.6381023  94.7951149  83.7120155  60.8963081  88.2527213  83.1774385
  60.0192547  88.1316013  82.8136632  61.3720834  87.4613291  82.9253274
  52.4165221  93.0404372  93.2715892  53.1036261  92.7266102  92.6836907
  52.2613349  93.9445737  92.9983144  57.2199943  87.9294569  97.7000916
  57.1358132  87.3220238  96.9651326  56.3982649  88.4203587  97.7010412
  67.3923657  86.4148132  93.0671111  67.8892356  85.6618095  92.7472181
  66.6210638  86.4512449  92.5014320  68.4753437  95.1719820  90.6409534
  67.5409716  95.2921282  90.4714239  68.6530106  94.2692286  90.3769544
  63.9758626  88.5565515  92.7942795  63.6056413  88.0036556  93.4823701
  64.4717718  87.9523649  92.2417796  71.8625989  91.0137139  91.1759568
  72.3286441  91.8465131  91.1019871  72.3133489  90.5482121  91.8804827
  69.9302220  97.3580960  88.1745720  70.2062064  97.2437555  89.0839595
  69.0606719  96.9598445  88.1357894  69.8342652  83.3817726  95.2150470
  68.9205731  83.6121953  95.3832677  70.2635753  83.4656170  96.0664502
  51.9933197  91.1204966  95.5433359  52.0317296  90.5868556  96.3370477
  51.4873490  90.5940171  94.9244336  59.3723959  85.9669506  99.0395902
  59.4365286  86.8284337  98.6273299  59.3091079  85.3543508  98.3068260
  55.6241774  89.8469068  88.6187291  55.9195216  88.9379746  88.5654344
  54.7229810  89.8256807  88.2968293  59.1536021  87.9225064  94.6014839
  58.4322607  88.5361032  94.4622313  59.9429277  88.4582829  94.5231485
  57.3529616  87.5283166  88.7426616  57.0242322  86.6480544  88.5601722
  57.7068987  87.4730834  89.6303005  60.4671439  87.8156135  89.1102093
  60.8067512  88.3442057  88.3880702  60.9143560  88.1536541  89.8860660
  63.8131352  83.2842498  97.0132485  64.6357421  82.8102977  96.8911375
  64.0569415  84.0632982  97.5131171  62.4539586  86.3130757  87.3095386
  63.1747949  86.6912010  86.8059103  61.8304890  87.0319634  87.4130364
  66.5970709  87.0175906  88.2453719  66.8134324  87.9000544  87.9442547
  66.1164776  86.6262119  87.5159361  61.3369931  89.9761619  94.8224463
  61.1914511  90.2901922  95.7148745  60.8595134  90.5946519  94.2695362
  63.1966314  86.9664167  94.8705353  63.1827882  86.0705260  94.5337651
  63.9138742  86.9734831  95.5043639  62.6003209  85.8478547  90.1392923
  62.7219121  84.9195194  90.3383810  62.3105252  85.8617233  89.2271238
  65.4694400  83.5333458  93.2759643  65.4916097  83.5972791  92.3211622
  65.8862459  82.6937966  93.4700149  57.0438228  99.5302289  92.6852676
  57.8696248  99.2306060  92.3051319  56.6932280  98.7609911  93.1342465
  55.2446833  97.4488615  93.6441609  54.4078742  97.0210789  93.4625611
  55.2170479  97.6421058  94.5812401  61.5733268  97.4332680  88.2308810
  61.7221389  98.1168144  87.5775483  62.3799712  97.4137770  88.7458266
  59.3285901  93.4597858  89.2369879  59.0831943  92.5560188  89.4350089
  59.4981816  93.4615008  88.2949357  58.5981549  89.1926215  86.7356040
  57.9050794  89.2670570  86.0796076  58.3533301  88.4286559  87.2577557
  67.2695205  80.7521817  94.1395531  67.5496959  80.0845006  94.7655958
  68.0545812  80.9450912  93.6270195  65.0728674  99.9280811  85.7020557
  64.5002641 100.5470998  85.2491029  65.6461468 100.4780172  86.2360479
  68.2925934 100.2117961  86.8329140  69.2256607 100.1463522  87.0362015
  68.2049147 101.0474228  86.3743672  70.9213950  99.5283831  83.7933087
  70.8427582  99.1943695  84.6868845  71.7423617 100.0205599  83.7924560
  65.4575472  91.2641623  83.0436610  66.4034577  91.1347831  83.1125028
  65.0789717  90.5256285  83.5206038  71.4297357  82.9297629  93.0063502
  71.2322178  82.6212717  93.8906834  72.0397063  83.6559268  93.1361432
  63.6418390  89.1891600  82.9791495  62.7349845  88.8924712  83.0554209
  63.9194371  88.8921418  82.1125781  54.5596330  90.5097963  93.4290542
  54.2399114  89.6563271  93.1364916  54.0129758  90.7246541  94.1848509
  65.2580455  83.7328489  89.1335736  64.4481184  83.3875574  89.5090983
  65.9464872  83.4236033  89.7223348  67.1871004  82.8106536  90.7560033
  67.7402042  83.2301990  91.4150056  67.4241090  81.8842284  90.7982989
  62.4117174  86.0478535  83.1203474  63.2736338  86.3733433  83.3799292
  62.5967518  85.2610031  82.6076540  54.4284590  94.1300875  95.3983663
  53.7348061  93.7154827  94.8853618  55.1757581  94.1721411  94.8017082
  70.5649811  84.9207061  90.2638697  69.9848480  85.5791865  89.8816750
  70.2985743  84.0984406  89.8526115  69.0153377  84.3212119  92.4660018
  69.5153155  84.4328654  91.6574337  69.6588985  84.0173172  93.1060826
  56.3421332  94.0619128  93.2749678  56.3192021  94.1606816  92.3231561
  56.6521969  94.9084279  93.5966844  69.3474689  87.0807152  89.3195046
  68.4600544  87.3656802  89.1015240  69.7628678  86.9200915  88.4722323
  72.6989225  87.1053673  93.0349385  73.4749615  87.5950125  93.3074002
  71.9737359  87.5311727  93.4921254  68.4917902  96.8451826  83.4143066
  69.1953752  97.0501829  84.0300721  67.7680551  97.4128588  83.6792149
  69.3215712  92.5961688  89.5345336  69.2650914  93.0530239  88.6952968
  69.8744055  91.8352372  89.3568179  73.1320518  88.3851420  90.3595455
  72.8757453  87.9848055  91.1903663  72.5073386  89.0995213  90.2345594
  70.4004600  97.2834356  85.4641526  71.2350203  96.8515554  85.2819000
  70.2388942  97.1116369  86.3918420  70.0550492  93.7866469  86.8297865
  69.9999296  93.6210740  85.8886309  69.4296547  94.4942502  86.9860055
  63.3646617  83.2874578  86.4083183  63.3525287  84.2316418  86.5651454
  64.2570039  83.1044723  86.1142645  67.1798737  79.8817355  90.6629120
  66.4131132  79.3275841  90.8085802  67.5909442  79.9539223  91.5243272
  71.7356835 103.5819130  83.1774385  70.8586301 103.4607931  82.8136632
  72.2114588 102.7905209  82.9253274  74.4812144 104.5183517  82.9791495
  73.5743599 104.2216630  83.0554209  74.7588125 104.2213335  82.1125781
  73.2510929 101.3770453  83.1203474  74.1130093 101.7025351  83.3799292
  73.4361273 100.5901948  82.6076540  17.4996625   9.9669445  78.2100425
  16.9361491   9.8759382  77.4416712  17.3849020   9.1469350  78.6902917
  23.0796184  13.6340413  73.5214890  22.4284164  14.2194494  73.1348903
  23.8740547  14.1646608  73.5809927  17.0051811  10.7229550  73.9202024
  17.7782687  10.1758537  73.7814900  17.3577210  11.5873800  74.1316485
  19.3418089   6.8822216  71.5520474  19.5943610   6.3603738  70.7903937
  18.4042648   6.7188362  71.6547157  24.3861372   5.8857995  79.3595217
  25.1724461   5.4677418  79.0085634  24.6500076   6.7904087  79.5276865
  24.5571449  11.3230845  74.0583874  23.9217282  11.3965472  74.7704779
  24.2268856  11.9124444  73.3802953  29.7869799   5.8233228  80.2628196
  30.5194971   5.2532445  80.4966025  29.0309155   5.4354828  80.7034701
  19.0614378   8.7850322  73.7544849  18.9450636   8.1095226  74.4225933
  19.1716638   8.2982696  72.9377002  21.4045919   8.2460469  77.4591538
  21.0404126   7.7191090  78.1704459  22.2613035   7.8558939  77.2858023
  21.0451406   3.2750369  72.4552887  21.2125808   4.1430606  72.8223358
  20.8548575   3.4377651  71.5314176  21.0240627   5.7308027  73.4399553
  20.9040252   6.1765077  74.2785034  20.3293215   6.0793344  72.8813092
  18.7847519  18.5011668  77.0889685  18.7071548  19.4519494  77.1678165
  18.1809162  18.1557541  77.7464611  26.7225693   6.2029500  74.2679887
  27.6343549   6.4356887  74.0927585  26.2135340   6.7866544  73.7054966
  25.3295275  11.1855318  81.6593469  24.7004138  11.3501032  80.9569537
  24.9420937  11.5996928  82.4304433  29.2084507  12.1209756  79.0137833
  28.5235545  12.5008658  78.4634866  29.2928356  12.7305083  79.7469780
  20.8823237  10.9229726  78.9243554  21.3461583  11.2017429  78.1348176
  20.6180035  10.0213171  78.7416645  19.8192123   7.0452879  75.7333119
  20.5216166   7.4973922  76.2007045  19.4872752   6.4036698  76.3613012
  27.5781267  12.6441671  83.7855534  28.3998710  12.2421858  83.5038215
  27.5743669  12.5409905  84.7371649  35.6687260   8.9880419  80.1340505
  34.9150968   8.4187817  79.9784509  35.8034801   8.9543084  81.0811140
  21.0585888  13.8593821  75.8095224  20.9231562  14.7045357  76.2380072
  21.5995700  14.0613099  75.0461158  14.5115285  11.3769259  76.3823149
  15.0239806  12.1712510  76.5328714  15.1637998  10.6795550  76.3156751
  16.3210170  14.4935016  78.4645903  16.4976798  15.4152980  78.2766886
  17.1167003  14.1793435  78.8940282  24.3728634   7.3732994  72.8466553
  23.8575257   8.1437599  73.0854940  24.1005942   6.6998131  73.4699614
  29.3462908  10.1265349  74.7819726  28.5692351   9.7876509  74.3374888
  30.0254389  10.1317972  74.1074691  24.1614937   5.2460086  74.6726334
  23.8565073   5.5606236  75.5236477  25.1145379   5.3241506  74.7153667
  22.6061369  11.4050310  76.3219288  22.0782731  10.6703069  76.0092526
  22.1048872  12.1824986  76.0759256  27.5854215   9.5999330  81.4386334
  26.9277889  10.2898592  81.5266463  28.3894614   9.9895762  81.7820321
  26.3959674   7.9543703  79.4890276  26.9091556   8.5873695  79.9911986
  27.0460898   7.3544898  79.1233636  20.7513969   9.2230520  69.3254261
  19.8441031   8.9919773  69.5245410  21.2485001   8.4268139  69.5128243
  23.6582048  17.9328027  72.2450947  22.9843747  18.2359724  72.8535905
  24.0447870  18.7357108  71.8956404  23.6575552   6.8284574  76.8651297
  24.4047371   7.3405971  76.5558419  23.9267142   6.5068627  77.7255690
  21.9302203   9.3243115  73.8478251  21.0213422   9.0402148  73.9450721
  21.9597286   9.7442193  72.9881558  27.1621470  12.9349704  77.6169419
  26.7083797  12.0940614  77.6734609  26.5315437  13.5711103  77.9544199
  26.1054390   3.8641690  78.8470086  25.3677146   3.3519077  79.1780329
  26.3581163   3.4242072  78.0353363  25.6054409  14.7726201  78.5519237
  25.8977384  15.3331258  77.8331603  26.1153030  15.0654762  79.3072396
  21.6278290  10.8651859  71.1866330  21.1897720  10.1487718  70.7271967
  22.3688731  11.0927973  70.6251421  20.5688034  15.5506552  79.6412690
  20.5264213  15.7767398  78.7121222  21.4850733  15.3169927  79.7898491
  29.7451405   9.1409056  77.2442648  29.6069304   9.3310652  76.3163838
  29.3887624   9.9028438  77.7010699  29.7720785  11.2085583  82.2553920
  30.2057291  11.1160872  83.1036974  30.4852365  11.1843083  81.6173936
  18.6853835  12.4269581  79.4374653  19.4794434  11.9319901  79.2357228
  17.9745528  11.8987444  79.0742358  23.5048680  14.8087677  83.7887020
  23.5585702  15.3778613  84.5564736  22.6363461  14.9789562  83.4241058
  21.8573263  18.1007700  74.4598026  22.0325019  17.6295743  75.2743649
  21.1706051  18.7273466  74.6879287  22.8130326  12.3780206  80.5061328
  22.4780159  12.3380976  81.4018978  22.3134272  11.7124922  80.0331738
  25.7489518   9.7236240  70.7798387  25.1318689   8.9983068  70.6831440
  25.2806006  10.4845600  70.4365462  16.4234348  21.2497062  81.2337887
  16.6630947  21.8815587  81.9116905  15.5803545  20.8985102  81.5203246
  20.9362210  17.0576185  83.6379391  20.8632382  17.8631156  84.1498695
  20.4939603  17.2568151  82.8127412  20.7251990  16.2947955  77.1482212
  19.9419512  16.8369635  77.2420437  21.4244735  16.8121935  77.5476453
  31.8878397   7.8082950  81.4334709  31.8768274   8.6907665  81.0628642
  31.0195777   7.4554501  81.2389246  23.3960894  16.9563019  85.7937549
  24.1088866  17.5910484  85.7213451  22.9050923  17.0526885  84.9777551
  25.1178421  10.8614272  77.3654841  24.1834700  10.9815734  77.1959545
  25.2955089   9.9586738  77.1014851  28.5050972   6.7031591  77.9004875
  28.9711424   7.5359582  77.8265178  28.9558473   6.2376572  78.6050134
  26.5727203  13.0475412  74.8991027  26.8487047  12.9332007  75.8084901
  25.7031702  12.6492897  74.8603200  23.2081267  17.2961763  78.5423841
  23.3903662  16.4783419  79.0051593  24.0314253  17.5129455  78.1048731
  23.5423433  16.2229948  75.8038889  24.0711199  15.7122403  75.1909051
  23.8051652  15.9072478  76.6684422  16.8979181  17.2745065  78.5636665
  16.2289556  17.7591192  78.0800705  16.7592050  17.5214285  79.4780044
  21.0384449  19.3088808  85.1619324  21.5902757  19.4720430  85.9268409
  21.3790643  19.8993246  84.4899348  24.1752837  17.2570784  82.1483006
  24.0503976  16.4560524  81.6393951  24.8331928  17.7516977  81.6596976
  26.2387745  15.0579804  83.7762556  25.2918080  14.9385155  83.7040882
  26.5870518  14.1702302  83.8588817  23.2434178  14.8532520  79.9766908
  23.0959141  13.9249228  80.1574478  24.0687672  14.8752611  79.4923983
  26.8468300  15.6761079  81.0631781  27.7714848  15.4703940  80.9256232
  26.6783603  15.4277480  81.9721122  23.2395693   2.7070358  74.9699025
  23.4559307   3.5894996  74.6687853  22.7589760   2.3156571  74.2404667
  26.6363616  16.1946746  76.4193872  26.8100494  15.6293169  75.6667725
  27.1292508  16.9947641  76.2373362  32.4903007   8.9583169  78.0384172
  32.9334153   8.2090494  77.6403295  31.6129518   8.9493306  77.6557904
  27.6238789  15.5113511  73.5190770  28.3189693  16.1320203  73.7378085
  27.9661939  14.6608862  73.7943148  29.5230212  12.9613216  75.0478101
  30.0481536  13.3000489  74.3227421  29.4352564  12.0260232  74.8641236
  21.2070873  19.0285200  79.4073354  20.7675863  18.5361578  80.1006211
  21.9578990  18.4858167  79.1665430  13.6863212  15.2196740  79.4097982
  14.5121232  14.9200512  79.0296626  13.3357264  14.4504363  79.8587771
  18.6544745  14.5723209  81.4795656  18.0324754  13.9093914  81.1797884
  19.3249612  14.5984341  80.7969304  18.2158252  13.1227132  74.9554117
  18.3646372  13.8062596  74.3020789  19.0224695  13.1032222  75.4703572
  32.0335872  10.4288408  80.4306620  32.8682764  10.8678212  80.5944180
  32.1695001   9.9527061  79.6114865  15.9710885   9.1492310  75.9615186
  15.7256927   8.2454640  76.1595396  16.1406799   9.1509460  75.0194664
  21.7153657  15.6175262  72.4265864  21.1427624  16.2365450  71.9736336
  22.2886451  16.1674624  72.9605786  24.9350917  15.9012413  73.5574446
  25.8681590  15.8357974  73.7607322  24.8474130  16.7368679  73.0988979
  27.5638934  15.2178283  70.5178394  27.4852565  14.8838146  71.4114152
  28.3848600  15.7100051  70.5169866  22.1000456   6.9536075  69.7681917
  23.0459560   6.8242283  69.8370335  21.7214701   6.2150737  70.2451345
  36.0793675   9.1456029  82.8660749  36.8097063   8.8841317  83.4268453
  35.4700620   8.4084751  82.9062817  34.1608972   7.2863892  83.4635201
  33.4342135   7.1519857  82.8551692  33.7456259   7.5940720  84.2691919
  20.2843373   4.8786052  69.7036802  19.3774828   4.5819164  69.7799515
  20.5619354   4.5815870  68.8371088  27.2074794   0.6101513  76.9884004
  26.6273463   1.2686317  76.6062056  26.9410727  -0.2121142  76.5771421
  25.9899672   2.7701604  76.0440352  25.1025527   3.0551254  75.8260547
  26.4053661   2.6095367  75.1967629  29.3414208   2.7948125  79.7594691
  30.1174598   3.2844577  80.0319308  28.6162342   3.2206179  80.2166561
  31.7786767   3.5075744  80.8168632  32.3731258   3.2671480  80.1061940
  31.8513350   2.7882874  81.4442168  13.9983922  17.3509355  81.1311797
  13.8638390  16.5909756  80.5649795  13.5815985  18.0750255  80.6640586
  25.1342885  12.5346278  70.1388372  25.8378736  12.7396281  70.7546028
  24.4105534  13.1023040  70.4037456  25.9640696   8.2856140  76.2590642
  25.9075897   8.7424691  75.4198275  26.5169038   7.5246824  76.0813485
  29.7745502   4.0745871  77.0840762  29.5182436   3.6742507  77.9148970
  29.1498370   4.7889665  76.9590901  34.0857840   6.8141945  79.5912053
  33.5257397   6.8835134  80.3643615  33.4801343   6.6382929  78.8711550
  17.1553048  18.2478672  81.3430240  17.0385432  19.1924104  81.2408930
  16.3345495  17.9452233  81.7316039  27.0429583  12.9728807  72.1886832
  27.8775187  12.5410006  72.0064307  26.8813926  12.8010821  73.1163727
  26.6975475   9.4760921  73.5543172  26.6424279   9.3105192  72.6131616
  26.0721530  10.1836954  73.7105361  18.1807562  18.9006934  84.5586168
  19.0834809  18.9330544  84.8752663  17.9544933  17.9707385  84.5732504
  19.9361164  17.6537920  81.2196247  18.9856795  17.6539782  81.1060619
  20.2393651  16.9070655  80.7032281  35.6713858  23.4898459  82.2842009
  36.3092268  23.3705206  81.5805349  35.5534701  24.4379303  82.3429961
  32.4803564  23.4425887  82.2203534  32.1422076  23.3266951  81.3324069
  33.3493332  23.0417052  82.2004540  28.3390380  25.2961363  78.2100425
  27.7755245  25.2051300  77.4416712  28.2242775  24.4761268  78.6902917
  32.9623347  24.5960738  88.1789739  32.9511988  24.2013537  87.3070243
  33.1243987  23.8626811  88.7723511  25.8854812  26.7912555  81.0484645
  26.6776104  26.4503379  80.6330944  26.1251462  26.9007530  81.9686798
  33.9189939  28.9632331  73.5214890  33.2677918  29.5486411  73.1348903
  34.7134301  29.4938526  73.5809927  27.8445566  26.0521468  73.9202024
  28.6176442  25.5050455  73.7814900  28.1970965  26.9165717  74.1316485
  29.6830608  27.3797850  87.1268923  29.3920474  28.2843481  87.0115590
  30.3187593  27.4214378  87.8412993  30.6086815  24.7574699  83.7170283
  31.2050387  24.5330721  83.0027246  30.6661787  24.0159444  84.3195731
  30.1811844  22.2114134  71.5520474  30.4337364  21.6895655  70.7903937
  29.2436403  22.0480280  71.6547157  35.2255126  21.2149912  79.3595217
  36.0118216  20.7969336  79.0085634  35.4893831  22.1196005  79.5276865
  35.3965204  26.6522763  74.0583874  34.7611037  26.7257389  74.7704779
  35.0662610  27.2416362  73.3802953  40.6263554  21.1525146  80.2628196
  41.3588726  20.5824362  80.4966025  39.8702909  20.7646746  80.7034701
  29.9008132  24.1142240  73.7544849  29.7844390  23.4387143  74.4225933
  30.0110392  23.6274614  72.9377002  32.2439673  23.5752387  77.4591538
  31.8797881  23.0483008  78.1704459  33.1006789  23.1850856  77.2858023
  38.1488974  14.8646720  84.7222804  37.8172299  15.7342131  84.4984019
  37.5534587  14.5483004  85.4016835  31.8845160  18.6042287  72.4552887
  32.0519563  19.4722523  72.8223358  31.6942329  18.7669569  71.5314176
  34.6420493  27.0659266  84.1218717  34.3421217  27.9684305  84.0134524
  34.2971553  26.7991449  84.9739870  28.0932975  23.5173063  80.1555421
  27.1683471  23.3849277  80.3633113  28.3417388  24.2967282  80.6525364
  38.0417637  19.5841806  81.8016154  37.1334515  19.5157214  81.5074915
  37.9905233  20.0613751  82.6297980  31.8634381  21.0599944  73.4399553
  31.7434006  21.5056995  74.2785034  31.1686970  21.4085262  72.8813092
  25.4541786  23.1606336  80.9899210  25.5834167  23.4140815  81.9038622
  24.7739237  23.7534044  80.6703865  29.6241273  33.8303586  77.0889685
  29.5465303  34.7811411  77.1678165  29.0202917  33.4849459  77.7464611
  32.1158503  21.0031452  89.7451052  31.3391837  21.5625372  89.7353916
  32.7549066  21.4888235  90.2665922  39.9079284  17.7858244  83.5794028
  39.2653664  18.0790777  82.9333823  39.4034212  17.6711165  84.3847225
  37.5619447  21.5321418  74.2679887  38.4737303  21.7648804  74.0927585
  37.0529094  22.1158462  73.7054966  30.3704875  23.8116905  89.3069019
  31.1119560  24.3501949  89.0303842  29.6641861  24.4383194  89.4640570
  35.8460215  25.9546045  87.9041180  36.2543571  25.5128456  87.1595812
  35.1237476  25.3798673  88.1575373  32.1991285  20.8918652  85.2774737
  33.0452480  21.3158066  85.4209386  32.1389923  20.2352276  85.9713300
  36.1689030  26.5147236  81.6593469  35.5397892  26.6792950  80.9569537
  35.7814692  26.9288846  82.4304433  40.0478262  27.4501674  79.0137833
  39.3629300  27.8300575  78.4634866  40.1322111  28.0597000  79.7469780
  35.3490730  18.5523020  86.9355911  35.1051662  19.3065081  86.3990186
  35.6250661  18.9308368  87.7703158  37.3029193  25.0961633  85.6133176
  37.5146088  25.7393393  84.9367557  37.2558941  24.2623949  85.1455106
  34.9055422  17.7079453  82.5169748  34.0439901  18.0060707  82.8086486
  34.9317857  17.9249852  81.5850781  31.7216991  26.2521644  78.9243554
  32.1855337  26.5309347  78.1348176  31.4573790  25.3505089  78.7416645
  28.6141073  25.7993126  81.8623317  29.1842430  26.2280394  81.2240802
  29.2049184  25.5175710  82.5607503  30.6585878  22.3744796  75.7333119
  31.3609921  22.8265840  76.2007045  30.3266506  21.7328615  76.3613012
  29.1066239  20.9656553  90.1084329  28.4764900  21.6472834  90.3419725
  29.0002327  20.8539635  89.1637467  24.4011212  20.6328349  81.0350253
  23.6110265  20.8885878  80.5590363  24.8922459  21.4476687  81.1402293
  38.4175021  27.9733588  83.7855534  39.2392465  27.5713776  83.5038215
  38.4137424  27.8701822  84.7371649  26.3525957  20.9972928  77.9933729
  25.5557120  21.1091623  78.5117225  26.1251549  21.3359581  77.1274620
  32.1831625  27.5217632  85.9416244  32.2476057  27.9838039  86.7774416
  31.4742548  26.8914996  86.0698554  22.6848914  20.8858840  83.4665243
  22.9356953  21.7705849  83.7322819  23.2208463  20.7063441  82.6940335
  46.5081014  24.3172337  80.1340505  45.7544723  23.7479735  79.9784509
  46.6428555  24.2835001  81.0811140  31.8979642  29.1885739  75.8095224
  31.7625317  30.0337275  76.2380072  32.4389455  29.3905017  75.0461158
  25.3509040  26.7061177  76.3823149  25.8633560  27.5004427  76.5328714
  26.0031752  26.0087468  76.3156751  27.1603924  29.8226933  78.4645903
  27.3370553  30.7444898  78.2766886  27.9560758  29.5085353  78.8940282
  26.4456281  21.8691565  88.3408066  26.3309796  20.9676822  88.6415165
  25.5900799  22.1155262  87.9892882  33.5248119  29.8109306  89.9395566
  33.0811973  29.0245684  89.6216471  34.1865332  29.9988456  89.2739457
  28.2835240  31.3405107  84.4656245  28.8342665  31.2122171  83.6933239
  27.4446716  31.6399996  84.1151138  35.6229357  30.0912105  87.9676968
  35.6047832  30.9120987  87.4757237  36.5449277  29.9666181  88.1927109
  32.0802411  27.6056235  88.8100476  32.6130748  26.8444523  88.5799784
  31.5516492  27.3129887  89.5524631  35.2472106  12.7116301  84.3394118
  34.9036375  13.6017943  84.2633228  35.6151068  12.5217959  83.4763703
  23.3157956  25.0349831  77.1582720  24.1533178  25.4446840  76.9416428
  23.4936224  24.0949274  77.1282914  35.2122388  22.7024912  72.8466553
  34.6969012  23.4729517  73.0854940  34.9399697  22.0290048  73.4699614
  32.7969499  17.5474613  77.9051791  31.9411096  17.1581463  77.7257430
  33.2096451  17.6266574  77.0451577  34.3268646  15.0820956  82.3043351
  33.8233442  15.0451091  81.4911156  34.6199253  15.9913699  82.3640008
  30.5711532  15.1659686  81.3109533  31.4364529  14.9702494  80.9515422
  30.6389041  14.9370038  82.2378890  40.1856663  25.4557267  74.7819726
  39.4086105  25.1168426  74.3374888  40.8648144  25.4609890  74.1074691
  35.0008692  20.5752004  74.6726334  34.6958827  20.8898153  75.5236477
  35.9539134  20.6533424  74.7153667  33.4455123  26.7342227  76.3219288
  32.9176485  25.9994987  76.0092526  32.9442626  27.5116904  76.0759256
  38.4247969  24.9291248  81.4386334  37.7671644  25.6190509  81.5266463
  39.2288369  25.3187680  81.7820321  28.1773851  17.3961894  78.6825900
  28.7517603  17.1737075  77.9499093  28.7644834  17.4650588  79.4354501
  37.2353428  23.2835621  79.4890276  37.7485310  23.9165612  79.9911986
  37.8854652  22.6836816  79.1233636  28.5043438  19.4266355  72.7021785
  27.6680750  19.7641041  73.0231060  28.3648208  19.2915335  71.7648922
  30.4796519  14.2703143  77.4100969  29.8260931  13.9552160  76.7857584
  30.4376993  13.6478883  78.1360792  31.5907724  24.5522438  69.3254261
  30.6834785  24.3211691  69.5245410  32.0878756  23.7560057  69.5128243
  34.4975803  33.2619945  72.2450947  33.8237501  33.5651642  72.8535905
  34.8841625  34.0649025  71.8956404  33.7134259  20.7585076  81.7348617
  32.7956821  20.9800023  81.5770305  34.1294403  20.8331387  80.8760324
  34.4969307  22.1576492  76.8651297  35.2441126  22.6697889  76.5558419
  34.7660896  21.8360545  77.7255690  32.7695957  24.6535033  73.8478251
  31.8607176  24.3694065  73.9450721  32.7991041  25.0734111  72.9881558
  38.0015225  28.2641622  77.6169419  37.5477552  27.4232532  77.6734609
  37.3709191  28.9003020  77.9544199  36.9448144  19.1933608  78.8470086
  36.2070901  18.6810994  79.1780329  37.1974918  18.7533990  78.0353363
  36.4448164  30.1018119  78.5519237  36.7371138  30.6623176  77.8331603
  36.9546784  30.3946680  79.3072396  37.0459771  11.9709860  79.4411855
  37.3518648  11.1107224  79.1537771  37.7712376  12.5627480  79.2410849
  23.3384127  22.3740547  77.8293453  23.1408527  21.7809907  77.1044520
  22.7830791  22.0692757  78.5469392  31.3180851  22.2663653  79.9488047
  31.3729461  21.3137490  79.8730523  30.5072053  22.4223092  80.4329345
  32.4672045  26.1943776  71.1866330  32.0291475  25.4779635  70.7271967
  33.2082486  26.4219891  70.6251421  29.2573211  20.8840713  77.7078425
  28.4441077  21.1834883  78.1143618  29.7532205  20.4896402  78.4252908
  31.4081789  30.8798470  79.6412690  31.3657968  31.1059316  78.7121222
  32.3244488  30.6461844  79.7898491  34.8547423  21.3482537  86.5393319
  35.2096810  21.5754011  87.3987785  35.5019554  21.6800914  85.9170575
  40.5845160  24.4700973  77.2442648  40.4463058  24.6602569  76.3163838
  40.2281378  25.2320356  77.7010699  28.7487286  18.4559068  83.3239660
  29.3886665  18.3147828  82.6262624  27.9164816  18.1693582  82.9478262
  40.6114539  26.5377500  82.2553920  41.0451046  26.4452789  83.1036974
  41.3246120  26.5135001  81.6173936  29.5247590  27.7561499  79.4374653
  30.3188188  27.2611819  79.2357228  28.8139282  27.2279362  79.0742358
  34.3442434  30.1379594  83.7887020  34.3979456  30.7070531  84.5564736
  33.4757216  30.3081479  83.4241058  25.8330353  21.9004581  75.5134406
  24.9027941  21.8389036  75.7304368  25.9287825  21.3780533  74.7171047
  25.7515902  18.4259393  78.1012647  26.0122720  19.3404727  77.9921808
  26.5733075  17.9583836  78.2509260  27.2240828  19.8397151  85.2711472
  27.8963881  19.6314513  84.6224121  26.3970614  19.6419237  84.8316704
  41.4730089  26.5801201  84.7886805  41.6665979  27.4847011  85.0346080
  41.3730707  26.1208620  85.6225390  33.1266400  16.4659092  87.2877133
  32.4794315  17.1649041  87.1941609  33.8967415  16.8995235  87.6553381
  36.5345198  26.7307944  90.3627686  36.3830704  26.5018495  89.4457770
  36.5249877  27.6878545  90.3759031  33.3030534  24.3039856  85.3473952
  34.2322594  24.4551016  85.1742920  32.8821564  24.3923877  84.4922599
  32.1018866  28.3290521  83.1172490  31.9629951  27.9609305  83.9898428
  31.3133462  28.8438160  82.9456448  32.6967018  33.4299617  74.4598026
  32.8718773  32.9587661  75.2743649  32.0099806  34.0565384  74.6879287
  33.6524081  27.7072124  80.5061328  33.3173913  27.6672894  81.4018978
  33.1528027  27.0416839  80.0331738  27.6268325  23.1139754  86.0313909
  27.4888123  22.3819992  86.6325448  28.5373248  23.0248654  85.7498097
  36.5883273  25.0528158  70.7798387  35.9712443  24.3274986  70.6831440
  36.1199761  25.8137518  70.4365462  30.2550625  22.8259713  85.5197589
  30.9650244  22.1852905  85.4784207  30.2119934  23.0772608  86.4423769
  38.2437404  29.7627066  88.4404168  38.1849950  29.0786286  87.7734751
  38.6456923  30.5046056  87.9884794  28.9679559  19.8124931  87.3393228
  28.4316916  19.3615669  87.9914824  28.3796268  19.9470840  86.5963692
  27.2628103  36.5788980  81.2337887  27.5024701  37.2107504  81.9116905
  26.4197299  36.2277020  81.5203246  28.3781818  19.2713582  69.9019692
  27.5011285  19.1502383  69.5381938  28.8539571  18.4799661  69.6498580
  38.2454811  27.7266650  86.6718147  37.3581590  27.3892572  86.7944546
  38.8153362  26.9949681  86.9086913  19.8983959  24.0590742  79.9961199
  20.5854998  23.7452472  79.4082214  19.7432087  24.9632107  79.7228450
  24.7018681  18.9480938  84.4246222  24.6176869  18.3406608  83.6896632
  23.8801387  19.4389957  84.4255719  31.7755965  32.3868103  83.6379391
  31.7026136  33.1923074  84.1498695  31.3333358  32.5860068  82.8127412
  31.5645744  31.6239873  77.1482212  30.7813266  32.1661553  77.2420437
  32.2638490  32.1413852  77.5476453  34.8742395  17.4334502  79.7916418
  35.3711094  16.6804464  79.4717488  34.1029376  17.4698819  79.2259627
  42.7272152  23.1374868  81.4334709  42.7162028  24.0199583  81.0628642
  41.8589531  22.7846418  81.2389246  34.2354648  32.2854937  85.7937549
  34.9482621  32.9202401  85.7213451  33.7444677  32.3818803  84.9777551
  35.9572175  26.1906189  77.3654841  35.0228454  26.3107652  77.1959545
  36.1348844  25.2878656  77.1014851  31.4577363  19.5751885  79.5188102
  31.0875151  19.0222925  80.2069008  31.9536456  18.9710018  78.9663102
  39.3444727  22.0323509  77.9004875  39.8105179  22.8651500  77.8265178
  39.7952227  21.5668490  78.6050134  29.2866562  30.0349380  86.6143120
  29.9876021  30.6685863  86.7672514  28.8161677  30.3764112  85.8538759
  37.4120958  28.3767330  74.8991027  37.6880802  28.2623924  75.8084901
  36.5425456  27.9784815  74.8603200  37.3161389  14.4004096  81.9395776
  36.4024469  14.6308322  82.1077983  37.7454491  14.4842540  82.7909809
  37.0867848  22.5893987  84.4395670  36.4339298  22.8369895  83.7848123
  37.4648228  21.7758126  84.1058148  34.0475022  32.6253681  78.5423841
  34.2297416  31.8075337  79.0051593  34.8708008  32.8421373  78.1048731
  34.3817187  31.5521866  75.8038889  34.9104954  31.0414320  75.1909051
  34.6445407  31.2364396  76.6684422  33.1355421  23.3313799  90.9261708
  32.4596058  23.2307928  91.5964083  33.9583055  23.1753012  91.3897705
  24.8834280  29.5685735  83.5474223  25.4687717  28.8229423  83.6802127
  24.6859118  29.8789692  84.4310887  27.7372935  32.6036982  78.5636665
  27.0683310  33.0883110  78.0800705  27.5985805  32.8506203  79.4780044
  19.4751935  22.1391335  82.2678666  19.5136034  21.6054926  83.0615784
  18.9692228  21.6126541  81.6489643  31.8778204  34.6380726  85.1619324
  32.4296512  34.8012347  85.9268409  32.2184397  35.2285164  84.4899348
  26.8542697  16.9855876  85.7641208  26.9184023  17.8470707  85.3518606
  26.7909817  16.3729877  85.0313567  36.7289078  29.4641984  91.0167978
  37.2728982  30.0771942  90.5222933  36.1475923  30.0221562  91.5334991
  23.1060512  20.8655437  75.3432597  23.4013953  19.9566116  75.2899651
  22.2048548  20.8443177  75.0213600  35.0146591  32.5862702  82.1483006
  34.8897730  31.7852441  81.6393951  35.6725682  33.0808895  81.6596976
  26.6354759  18.9411434  81.3260146  25.9141345  19.5547402  81.1867619
  27.4248015  19.4769199  81.2476792  37.0781499  30.3871722  83.7762556
  36.1311835  30.2677073  83.7040882  37.4264273  29.4994220  83.8588817
  29.4381073  16.2765861  87.6000798  29.9615475  16.5228157  88.3627107
  29.2193406  17.1085895  87.1803935  24.8348354  18.5469535  75.4671922
  24.5061060  17.6666914  75.2847028  25.1887725  18.4917204  76.3548312
  34.0827933  30.1824438  79.9766908  33.9352895  29.2541145  80.1574478
  34.9081426  30.2044529  79.4923983  27.9490177  18.8342505  75.8347400
  28.2886250  19.3628426  75.1126008  28.3962297  19.1722911  76.6105967
  37.6862055  31.0052997  81.0631781  38.6108602  30.7995858  80.9256232
  37.5177358  30.7569398  81.9721122  30.6433618  17.2179556  85.2850468
  30.3030438  16.4187369  85.6871148  29.9372624  17.5181266  84.7127301
  31.2950090  14.3028868  83.7377791  32.1176159  13.8289346  83.6156682
  31.5388153  15.0819352  84.2376477  29.9358324  17.3317126  74.0340693
  30.6566687  17.7098379  73.5304410  29.3123628  18.0506003  74.1375671
  34.0789447  18.0362275  74.9699025  34.2953061  18.9186913  74.6687853
  33.5983514  17.6448489  74.2404667  28.8188668  20.9947989  81.5469770
  28.6733249  21.3088292  82.4394051  28.3413872  21.6132889  80.9940668
  30.6785051  17.9850537  81.5950659  30.6646620  17.0891630  81.2582957
  31.3957479  17.9921200  82.2288945  32.5311182  18.4187877  83.6403787
  32.2728960  19.3404948  83.6388117  31.9996222  18.0218311  84.3304251
  37.4757371  31.5238664  76.4193872  37.6494248  30.9585086  75.6667725
  37.9686262  32.3239559  76.2373362  23.2934331  23.5353333  84.4857431
  22.7487799  24.3113141  84.6177705  24.1713680  23.8824138  84.3276552
  30.0821947  16.8664917  76.8638230  30.2037858  15.9381563  77.0629117
  29.7923990  16.8803603  75.9516545  32.9513138  14.5519827  80.0004949
  32.9734834  14.6159160  79.0456929  33.3681197  13.7124336  80.1945456
  43.3296762  24.2875087  78.0384172  43.7727908  23.5382412  77.6403295
  42.4523272  24.2785223  77.6557904  38.4632543  30.8405428  73.5190770
  39.1583448  31.4612121  73.7378085  38.8055693  29.9900780  73.7943148
  24.0800352  22.6623229  87.3787588  23.3382088  22.8105865  87.9652218
  23.7593097  22.9231495  86.5154337  40.3623966  28.2905134  75.0478101
  40.8875290  28.6292407  74.3227421  40.2746319  27.3552149  74.8641236
  32.0244015  32.2039208  87.1767978  32.3331142  31.9588354  88.0490677
  32.8219497  32.4085846  86.6886848  32.0464627  34.3577117  79.4073354
  31.6069617  33.8653496  80.1006211  32.7972744  33.8150085  79.1665430
  24.5256966  30.5488658  79.4097982  25.3514986  30.2492430  79.0296626
  24.1751018  29.7796281  79.8587771  29.4938499  29.9015126  81.4795656
  28.8718509  29.2385831  81.1797884  30.1643366  29.9276258  80.7969304
  22.7265571  28.4674985  80.3686916  21.8897479  28.0397159  80.1870917
  22.6989217  28.6607428  81.3057707  40.0517872  28.9238038  90.3529299
  39.2613416  28.9062176  89.8133799  39.8151227  29.4626331  91.1078336
  40.1715747  25.7730504  87.6662028  40.2213752  25.6080511  88.6077551
  40.0629671  24.9057763  87.2759909  29.0552006  28.4519050  74.9554117
  29.2040127  29.1354514  74.3020789  29.8618450  28.4324140  75.4703572
  37.4619510  21.7561432  88.9821334  38.3629373  21.6167897  88.6905332
  37.5367484  21.9215887  89.9219512  31.7962315  19.1328287  87.8274521
  30.9265625  19.4261853  87.5557109  32.0321796  19.7168732  88.5481784
  41.6733944  28.1927445  87.9104049  41.3818753  28.5557426  88.7467510
  41.0606076  27.4794454  87.7317381  42.8729627  25.7580325  80.4306620
  43.7076518  26.1970129  80.5944180  43.0088755  25.2818978  79.6114865
  39.9221133  23.3160060  86.3784107  40.3975254  23.5087706  85.5702959
  38.9986698  23.3719246  86.1327491  26.8104639  24.4784227  75.9615186
  26.5650681  23.5746557  76.1595396  26.9800554  24.4801378  75.0194664
  34.5001349  15.3507904  85.3439941  35.0183293  16.0868931  85.0186430
  34.1456482  15.6571897  86.1786700  26.0800287  20.2112585  73.4601347
  25.3869532  20.2856940  72.8041383  25.8352039  19.4472928  73.9822864
  34.7513943  11.7708186  80.8640838  35.0315697  11.1031375  81.4901264
  35.5364550  11.9637282  80.3515502  32.5547412  30.9467180  72.4265864
  31.9821379  31.5657367  71.9736336  33.1280205  31.4966542  72.9605786
  38.6222802  20.1925820  84.6112413  39.5740224  20.2923918  84.6324637
  38.4526252  19.4004089  85.1210497  36.6437181  17.2781403  84.7971814
  36.0487113  17.5586416  84.1018302  36.3586878  17.7675304  85.5688555
  35.7744671  31.2304330  73.5574446  36.7075345  31.1649892  73.7607322
  35.6867884  32.0660597  73.0988979  38.4032688  30.5470201  70.5178394
  38.3246320  30.2130064  71.4114152  39.2242355  31.0391968  70.5169866
  41.1010879  23.4131940  83.7254713  41.0687199  22.4747941  83.9114396
  41.7111503  23.4915977  82.9920537  32.9394210  22.2827993  69.7681917
  33.8853315  22.1534201  69.8370335  32.5608455  21.5442655  70.2451345
  41.2505368  20.2042983  83.7712996  40.7344416  19.4201440  83.5842925
  42.1345316  19.8761700  83.9359515  38.9116095  13.9483999  79.7308808
  38.7140916  13.6399087  80.6152140  39.5215800  14.6745638  79.8606738
  46.9187429  24.4747947  82.8660749  47.6490818  24.2133235  83.4268453
  46.3094375  23.7376669  82.9062817  45.0002726  22.6155809  83.4635201
  44.2735890  22.4811774  82.8551692  44.5850013  22.9232638  84.2691919
  32.8232903  26.3345739  91.2282574  33.7435912  26.5124338  91.4222620
  32.7882486  25.3901784  91.0762273  31.1237127  20.2077969  69.7036802
  30.2168583  19.9111082  69.7799515  31.4013108  19.9107787  68.8371088
  22.0415068  21.5284333  80.1535848  21.7217852  20.6749641  79.8610222
  21.4948496  21.7432911  80.9093816  25.8194975  24.2446774  83.8705355
  26.0380985  25.1763881  83.8893389  26.2320749  23.8854748  84.6560159
  32.7399193  14.7514859  75.8581043  31.9299921  14.4061944  76.2336289
  33.4283610  14.4422403  76.4468655  34.6689741  13.8292906  77.4805340
  35.2220780  14.2488359  78.1395363  34.9059828  12.9028654  77.5228296
  29.8935912  17.0664904  69.8448781  30.7555076  17.3919803  70.1044598
  30.0786256  16.2796400  69.3321847  21.9103328  25.1487244  82.1228970
  21.2166799  24.7341197  81.6098924  22.6576319  25.1907781  81.5262389
  38.0468548  15.9393431  76.9884004  37.4667218  16.5978235  76.6062056
  37.7804481  15.1170776  76.5771421  36.4972115  15.3398489  79.1905324
  36.9971893  15.4515023  78.3819643  37.1407723  15.0359541  79.8306133
  30.5554111  23.2477118  92.0773165  30.0721192  24.0477478  92.2837054
  30.6415050  23.2585063  91.1240609  23.8240070  25.0805498  79.9994985
  23.8010758  25.1793185  79.0476868  24.1340707  25.9270649  80.3212151
  26.4827448  27.1381653  84.1141599  27.4370702  27.1065595  84.0471531
  26.2839972  26.6772277  84.9291825  27.0726830  25.7082769  86.6812397
  27.8919719  26.2026848  86.7047234  27.3463638  24.7914737  86.6529964
  36.8293426  18.0993521  76.0440352  35.9419282  18.3843172  75.8260547
  37.2447416  17.9387285  75.1967629  40.1807963  18.1240042  79.7594691
  40.9568353  18.6136495  80.0319308  39.4556097  18.5498096  80.2166561
  42.6180521  18.8367661  80.8168632  43.2125012  18.5963397  80.1061940
  42.6907105  18.1174792  81.4442168  24.8377677  32.6801272  81.1311797
  24.7032145  31.9201673  80.5649795  24.4209739  33.4042172  80.6640586
  35.9736640  27.8638196  70.1388372  36.6772490  28.0688198  70.7546028
  35.2499289  28.4314958  70.4037456  36.8034450  23.6148057  76.2590642
  36.7469652  24.0716609  75.4198275  37.3562793  22.8538742  76.0813485
  40.6139256  19.4037789  77.0840762  40.3576190  19.0034425  77.9148970
  39.9892124  20.1181583  76.9590901  44.9251594  22.1433862  79.5912053
  44.3651152  22.2127052  80.3643615  44.3195097  21.9674847  78.8711550
  27.9946803  33.5770589  81.3430240  27.8779187  34.5216022  81.2408930
  27.1739249  33.2744151  81.7316039  37.8823337  28.3020725  72.1886832
  38.7168941  27.8701924  72.0064307  37.7207680  28.1302739  73.1163727
  37.5369230  24.8052838  73.5543172  37.4818033  24.6397110  72.6131616
  36.9115285  25.5128871  73.7105361  34.8515137  27.1101750  92.8796734
  35.7206296  27.2842403  92.5183369  34.3721888  27.9296167  92.7572464
  30.8465355  14.3060947  73.1328490  30.8344025  15.2502787  73.2896761
  31.7388777  14.1231093  72.8387951  29.0201317  34.2298851  84.5586168
  29.9228564  34.2622462  84.8752663  28.7938687  33.2999302  84.5732504
  30.7754919  32.9829838  81.2196247  29.8250550  32.9831699  81.1060619
  31.0787405  32.2362572  80.7032281  34.6617474  10.9003724  77.3874427
  33.8949870  10.3462211  77.5331109  35.0728179  10.9725593  78.2488578
  46.5107612  38.8190376  82.2842009  47.1486022  38.6997124  81.5805349
  46.3928455  39.7671220  82.3429961  43.3197319  38.7717804  82.2203534
  42.9815830  38.6558869  81.3324069  44.1887087  38.3708969  82.2004540
  43.8017102  39.9252656  88.1789739  43.7905742  39.5305454  87.3070243
  43.9637741  39.1918729  88.7723511  38.6839320  41.3813386  73.9202024
  39.4570196  40.8342373  73.7814900  39.0364719  42.2457635  74.1316485
  40.5224363  42.7089768  87.1268923  40.2314229  43.6135399  87.0115590
  41.1581347  42.7506296  87.8412993  41.0205598  37.5406052  71.5520474
  41.2731119  37.0187573  70.7903937  40.0830157  37.3772197  71.6547157
  46.0648881  36.5441830  79.3595217  46.8511970  36.1261253  79.0085634
  46.3287585  37.4487922  79.5276865  46.2358958  41.9814680  74.0583874
  45.6004791  42.0549307  74.7704779  45.9056365  42.5708279  73.3802953
  51.4657308  36.4817063  80.2628196  52.1982480  35.9116280  80.4966025
  50.7096664  36.0938664  80.7034701  40.7401887  39.4434158  73.7544849
  40.6238145  38.7679061  74.4225933  40.8504147  38.9566532  72.9377002
  43.0833428  38.9044305  77.4591538  42.7191635  38.3774926  78.1704459
  43.9400544  38.5142774  77.2858023  48.9882728  30.1938637  84.7222804
  48.6566053  31.0634048  84.4984019  48.3928342  29.8774921  85.4016835
  42.7238915  33.9334205  72.4552887  42.8913317  34.8014441  72.8223358
  42.5336084  34.0961486  71.5314176  45.4814248  42.3951183  84.1218717
  45.1814971  43.2976222  84.0134524  45.1365307  42.1283367  84.9739870
  48.8811392  34.9133724  81.8016154  47.9728269  34.8449132  81.5074915
  48.8298988  35.3905669  82.6297980  42.7028136  36.3891862  73.4399553
  42.5827761  36.8348913  74.2785034  42.0080724  36.7377180  72.8813092
  36.2935540  38.4898254  80.9899210  36.4227922  38.7432733  81.9038622
  35.6132992  39.0825962  80.6703865  42.9552258  36.3323369  89.7451052
  42.1785592  36.8917289  89.7353916  43.5942821  36.8180152  90.2665922
  50.7473038  33.1150162  83.5794028  50.1047418  33.4082695  82.9333823
  50.2427967  33.0003082  84.3847225  48.4013202  36.8613335  74.2679887
  49.3131058  37.0940722  74.0927585  47.8922849  37.4450379  73.7054966
  41.2098630  39.1408823  89.3069019  41.9513314  39.6793867  89.0303842
  40.5035615  39.7675111  89.4640570  46.6853969  41.2837963  87.9041180
  47.0937325  40.8420374  87.1595812  45.9631231  40.7090591  88.1575373
  43.0385040  36.2210570  85.2774737  43.8846235  36.6449983  85.4209386
  42.9783677  35.5644194  85.9713300  50.8872016  42.7793591  79.0137833
  50.2023054  43.1592493  78.4634866  50.9715865  43.3888918  79.7469780
  46.1884485  33.8814938  86.9355911  45.9445417  34.6356999  86.3990186
  46.4644415  34.2600286  87.7703158  48.1422948  40.4253551  85.6133176
  48.3539843  41.0685310  84.9367557  48.0952696  39.5915867  85.1455106
  45.7449177  33.0371371  82.5169748  44.8833656  33.3352625  82.8086486
  45.7711611  33.2541770  81.5850781  41.4979632  37.7036714  75.7333119
  42.2003675  38.1557758  76.2007045  41.1660261  37.0620533  76.3613012
  39.9459994  36.2948471  90.1084329  39.3158654  36.9764752  90.3419725
  39.8396081  36.1831552  89.1637467  35.2404966  35.9620267  81.0350253
  34.4504020  36.2177795  80.5590363  35.7316213  36.7768605  81.1402293
  49.2568776  43.3025506  83.7855534  50.0786219  42.9005693  83.5038215
  49.2531178  43.1993740  84.7371649  37.1919711  36.3264846  77.9933729
  36.3950875  36.4383540  78.5117225  36.9645304  36.6651498  77.1274620
  33.5242669  36.2150757  83.4665243  33.7750707  37.0997767  83.7322819
  34.0602217  36.0355359  82.6940335  57.3474769  39.6464254  80.1340505
  56.5938477  39.0771652  79.9784509  57.4822310  39.6126919  81.0811140
  39.2240736  30.5969237  92.4709580  38.8307682  30.0435435  93.1457224
  40.0406877  30.9079815  92.8616097  42.1408697  32.0127116  90.0629836
  42.8818411  32.6134269  89.9834299  42.3726620  31.2704753  89.5047879
  37.2850035  37.1983483  88.3408066  37.1703550  36.2968740  88.6415165
  36.4294553  37.4447180  87.9892882  44.3641873  45.1401223  89.9395566
  43.9205727  44.3537602  89.6216471  45.0259087  45.3280374  89.2739457
  46.4623111  45.4204023  87.9676968  46.4441586  46.2412904  87.4757237
  47.3843031  45.2958098  88.1927109  42.9196165  42.9348153  88.8100476
  43.4524502  42.1736441  88.5799784  42.3910246  42.6421804  89.5524631
  46.0865860  28.0408219  84.3394118  45.7430130  28.9309860  84.2633228
  46.4544823  27.8509876  83.4763703  34.1551711  40.3641749  77.1582720
  34.9926933  40.7738757  76.9416428  34.3329979  39.4241191  77.1282914
  46.0516143  38.0316830  72.8466553  45.5362766  38.8021434  73.0854940
  45.7793451  37.3581966  73.4699614  43.6363254  32.8766530  77.9051791
  42.7804850  32.4873381  77.7257430  44.0490206  32.9558491  77.0451577
  45.1662401  30.4112874  82.3043351  44.6627196  30.3743009  81.4911156
  45.4593007  31.3205616  82.3640008  41.4105286  30.4951603  81.3109533
  42.2758283  30.2994412  80.9515422  41.4782795  30.2661955  82.2378890
  51.0250417  40.7849184  74.7819726  50.2479860  40.4460344  74.3374888
  51.7041898  40.7901808  74.1074691  45.8402446  35.9043922  74.6726334
  45.5352582  36.2190071  75.5236477  46.7932888  35.9825342  74.7153667
  49.2641724  40.2583166  81.4386334  48.6065398  40.9482427  81.5266463
  50.0682123  40.6479598  81.7820321  39.0167606  32.7253811  78.6825900
  39.5911357  32.5028993  77.9499093  39.6038588  32.7942506  79.4354501
  48.0747183  38.6127538  79.4890276  48.5879065  39.2457530  79.9911986
  48.7248407  38.0128734  79.1233636  39.3437193  34.7558272  72.7021785
  38.5074505  35.0932959  73.0231060  39.2041962  34.6207252  71.7648922
  41.3190273  29.5995060  77.4100969  40.6654686  29.2844077  76.7857584
  41.2770747  28.9770801  78.1360792  44.5528014  36.0876994  81.7348617
  43.6350575  36.3091941  81.5770305  44.9688157  36.1623304  80.8760324
  45.3363061  37.4868410  76.8651297  46.0834880  37.9989807  76.5558419
  45.6054651  37.1652462  77.7255690  43.6089712  39.9826950  73.8478251
  42.7000931  39.6985983  73.9450721  43.6384795  40.4026029  72.9881558
  48.8408979  43.5933540  77.6169419  48.3871306  42.7524450  77.6734609
  48.2102946  44.2294938  77.9544199  47.7841899  34.5225526  78.8470086
  47.0464655  34.0102912  79.1780329  48.0368672  34.0825907  78.0353363
  47.8853526  27.3001778  79.4411855  48.1912403  26.4399141  79.1537771
  48.6106131  27.8919398  79.2410849  34.1777882  37.7032464  77.8293453
  33.9802282  37.1101825  77.1044520  33.6224546  37.3984675  78.5469392
  42.1574606  37.5955571  79.9488047  42.2123215  36.6429407  79.8730523
  41.3465808  37.7515010  80.4329345  40.0966966  36.2132631  77.7078425
  39.2834831  36.5126801  78.1143618  40.5925960  35.8188319  78.4252908
  45.6941177  36.6774455  86.5393319  46.0490565  36.9045928  87.3987785
  46.3413308  37.0092832  85.9170575  51.4238914  39.7992891  77.2442648
  51.2856813  39.9894487  76.3163838  51.0675133  40.5612274  77.7010699
  39.5881040  33.7850986  83.3239660  40.2280420  33.6439745  82.6262624
  38.7558571  33.4985500  82.9478262  51.4508294  41.8669418  82.2553920
  51.8844800  41.7744707  83.1036974  52.1639874  41.8426918  81.6173936
  36.6724108  37.2296498  75.5134406  35.7421696  37.1680954  75.7304368
  36.7681580  36.7072451  74.7171047  36.5909657  33.7551311  78.1012647
  36.8516474  34.6696644  77.9921808  37.4126829  33.2875754  78.2509260
  38.0634582  35.1689068  85.2711472  38.7357635  34.9606430  84.6224121
  37.2364369  34.9711154  84.8316704  52.3123843  41.9093119  84.7886805
  52.5059733  42.8138929  85.0346080  52.2124461  41.4500538  85.6225390
  43.9660154  31.7951009  87.2877133  43.3188069  32.4940959  87.1941609
  44.7361169  32.2287153  87.6553381  47.3738952  42.0599861  90.3627686
  47.2224458  41.8310413  89.4457770  47.3643631  43.0170463  90.3759031
  44.1424288  39.6331774  85.3473952  45.0716348  39.7842934  85.1742920
  43.7215318  39.7215795  84.4922599  38.4662079  38.4431671  86.0313909
  38.3281877  37.7111910  86.6325448  39.3767003  38.3540571  85.7498097
  41.0944380  38.1551631  85.5197589  41.8043999  37.5144823  85.4784207
  41.0513688  38.4064525  86.4423769  49.0831159  45.0918984  88.4404168
  49.0243705  44.4078204  87.7734751  49.4850677  45.8337974  87.9884794
  39.8073314  35.1416848  87.3393228  39.2710671  34.6907587  87.9914824
  39.2190022  35.2762757  86.5963692  39.2175573  34.6005500  69.9019692
  38.3405039  34.4794301  69.5381938  39.6933326  33.8091578  69.6498580
  49.0848566  43.0558568  86.6718147  48.1975345  42.7184490  86.7944546
  49.6547117  42.3241599  86.9086913  30.7377713  39.3882660  79.9961199
  31.4248753  39.0744390  79.4082214  30.5825842  40.2924024  79.7228450
  35.5412435  34.2772856  84.4246222  35.4570624  33.6698526  83.6896632
  34.7195142  34.7681874  84.4255719  45.7136149  32.7626420  79.7916418
  46.2104849  32.0096382  79.4717488  44.9423131  32.7990736  79.2259627
  53.5665906  38.4666785  81.4334709  53.5555783  39.3491501  81.0628642
  52.6983286  38.1138336  81.2389246  45.0748403  47.6146854  85.7937549
  45.7876375  48.2494319  85.7213451  44.5838431  47.7110720  84.9777551
  46.7965930  41.5198107  77.3654841  45.8622208  41.6399569  77.1959545
  46.9742598  40.6170574  77.1014851  42.2971118  34.9043803  79.5188102
  41.9268905  34.3514843  80.2069008  42.7930210  34.3001936  78.9663102
  50.1838481  37.3615426  77.9004875  50.6498933  38.1943418  77.8265178
  50.6345982  36.8960408  78.6050134  48.2514712  43.7059247  74.8991027
  48.5274556  43.5915842  75.8084901  47.3819211  43.3076732  74.8603200
  48.1555144  29.7296013  81.9395776  47.2418224  29.9600240  82.1077983
  48.5848245  29.8134457  82.7909809  47.9261602  37.9185905  84.4395670
  47.2733053  38.1661813  83.7848123  48.3041982  37.1050043  84.1058148
  43.9749175  38.6605716  90.9261708  43.2989812  38.5599846  91.5964083
  44.7976809  38.5044930  91.3897705  30.3145689  37.4683253  82.2678666
  30.3529789  36.9346844  83.0615784  29.8085982  36.9418458  81.6489643
  37.6936451  32.3147793  85.7641208  37.7577778  33.1762624  85.3518606
  37.6303572  31.7021795  85.0313567  37.1688724  34.3870926  89.4114242
  37.7960763  34.0048003  90.0251767  36.3116643  34.1685128  89.7769935
  47.5682833  44.7933901  91.0167978  48.1122737  45.4063859  90.5222933
  46.9869677  45.3513480  91.5334991  33.9454267  36.1947355  75.3432597
  34.2407708  35.2858034  75.2899651  33.0442303  36.1735095  75.0213600
  37.4748514  34.2703352  81.3260146  36.7535100  34.8839319  81.1867619
  38.2641770  34.8061117  81.2476792  47.9175254  45.7163639  83.7762556
  46.9705589  45.5968990  83.7040882  48.2658027  44.8286137  83.8588817
  40.2774827  31.6057778  87.6000798  40.8009229  31.8520075  88.3627107
  40.0587161  32.4377813  87.1803935  35.6742108  33.8761453  75.4671922
  35.3454814  32.9958832  75.2847028  36.0281479  33.8209121  76.3548312
  38.7883931  34.1634423  75.8347400  39.1280004  34.6920344  75.1126008
  39.2356052  34.5014829  76.6105967  41.4827372  32.5471473  85.2850468
  41.1424193  31.7479286  85.6871148  40.7766379  32.8473184  84.7127301
  42.1343844  29.6320786  83.7377791  42.9569913  29.1581264  83.6156682
  42.3781908  30.4111269  84.2376477  40.7752079  32.6609044  74.0340693
  41.4960441  33.0390297  73.5304410  40.1517383  33.3797921  74.1375671
  44.9183202  33.3654193  74.9699025  45.1346816  34.2478831  74.6687853
  44.4377269  32.9740407  74.2404667  39.6582423  36.3239906  81.5469770
  39.5127004  36.6380209  82.4394051  39.1807627  36.9424807  80.9940668
  41.5178806  33.3142454  81.5950659  41.5040375  32.4183548  81.2582957
  42.2351234  33.3213118  82.2288945  43.3704937  33.7479795  83.6403787
  43.1122714  34.6696865  83.6388117  42.8389977  33.3510229  84.3304251
  34.1328085  38.8645251  84.4857431  33.5881553  39.6405059  84.6177705
  35.0107435  39.2116055  84.3276552  40.9215702  32.1956835  76.8638230
  41.0431613  31.2673481  77.0629117  40.6317744  32.2095521  75.9516545
  43.7906892  29.8811745  80.0004949  43.8128589  29.9451078  79.0456929
  44.2074951  29.0416254  80.1945456  54.1690516  39.6167005  78.0384172
  54.6121662  38.8674330  77.6403295  53.2917027  39.6077141  77.6557904
  34.9194107  37.9915147  87.3787588  34.1775843  38.1397782  87.9652218
  34.5986851  38.2523413  86.5154337  42.8637770  47.5331125  87.1767978
  43.1724896  47.2880272  88.0490677  43.6613252  47.7377764  86.6886848
  40.4056781  33.7088832  91.0728162  40.4544937  34.5850955  90.6905932
  40.9479295  33.1666225  90.4999805  50.8911627  44.2529955  90.3529299
  50.1007171  44.2354094  89.8133799  50.6544982  44.7918249  91.1078336
  51.0109502  41.1022422  87.6662028  51.0607507  40.9372429  88.6077551
  50.9023425  40.2349681  87.2759909  48.3013264  37.0853350  88.9821334
  49.2023127  36.9459815  88.6905332  48.3761239  37.2507804  89.9219512
  42.6356070  34.4620204  87.8274521  41.7659379  34.7553770  87.5557109
  42.8715550  35.0460649  88.5481784  52.5127699  43.5219363  87.9104049
  52.2212507  43.8849344  88.7467510  51.8999830  42.8086371  87.7317381
  53.7123381  41.0872243  80.4306620  54.5470273  41.5262047  80.5944180
  53.8482510  40.6110896  79.6114865  50.7614887  38.6451978  86.3784107
  51.2369009  38.8379624  85.5702959  49.8380452  38.7011164  86.1327491
  45.3395104  30.6799821  85.3439941  45.8577047  31.4160848  85.0186430
  44.9850236  30.9863815  86.1786700  36.9194041  35.5404503  73.4601347
  36.2263286  35.6148858  72.8041383  36.6745793  34.7764846  73.9822864
  45.5907698  27.1000104  80.8640838  45.8709451  26.4323293  81.4901264
  46.3758305  27.2929199  80.3515502  49.4616556  35.5217738  84.6112413
  50.4133979  35.6215836  84.6324637  49.2920006  34.7296006  85.1210497
  47.4830936  32.6073321  84.7971814  46.8880868  32.8878334  84.1018302
  47.1980632  33.0967222  85.5688555  51.9404634  38.7423858  83.7254713
  51.9080954  37.8039858  83.9114396  52.5505257  38.8207894  82.9920537
  43.7787965  37.6119911  69.7681917  44.7247069  37.4826119  69.8370335
  43.4002210  36.8734572  70.2451345  52.0899122  35.5334901  83.7712996
  51.5738171  34.7493358  83.5842925  52.9739071  35.2053618  83.9359515
  49.7509849  29.2775917  79.7308808  49.5534670  28.9691005  80.6152140
  50.3609555  30.0037555  79.8606738  57.7581184  39.8039864  82.8660749
  58.4884572  39.5425153  83.4268453  57.1488129  39.0668586  82.9062817
  55.8396481  37.9447727  83.4635201  55.1129644  37.8103692  82.8551692
  55.4243768  38.2524556  84.2691919  43.6626657  41.6637657  91.2282574
  44.5829667  41.8416256  91.4222620  43.6276240  40.7193702  91.0762273
  41.9630882  35.5369887  69.7036802  41.0562337  35.2403000  69.7799515
  42.2406863  35.2399705  68.8371088  32.8808822  36.8576250  80.1535848
  32.5611607  36.0041559  79.8610222  32.3342250  37.0724828  80.9093816
  36.6588730  39.5738691  83.8705355  36.8774740  40.5055799  83.8893389
  37.0714504  39.2146666  84.6560159  43.5792948  30.0806777  75.8581043
  42.7693676  29.7353862  76.2336289  44.2677365  29.7714320  76.4468655
  45.5083496  29.1584823  77.4805340  46.0614534  29.5780277  78.1395363
  45.7453582  28.2320572  77.5228296  41.5316595  35.1471897  93.2608104
  41.4313322  36.0966254  93.1920195  41.3138137  34.8190136  92.3884174
  40.7329666  32.3956822  69.8448781  41.5948830  32.7211720  70.1044598
  40.9180011  31.6088318  69.3321847  32.7497082  40.4779162  82.1228970
  32.0560554  40.0633115  81.6098924  33.4970073  40.5199698  81.5262389
  48.8862303  31.2685349  76.9884004  48.3060972  31.9270153  76.6062056
  48.6198236  30.4462693  76.5771421  47.3365869  30.6690406  79.1905324
  47.8365648  30.7806941  78.3819643  47.9801477  30.3651459  79.8306133
  41.3947865  38.5769036  92.0773165  40.9114947  39.3769396  92.2837054
  41.4808804  38.5876981  91.1240609  34.6633825  40.4097416  79.9994985
  34.6404513  40.5085103  79.0476868  34.9734461  41.2562566  80.3212151
  37.9120585  41.0374687  86.6812397  38.7313474  41.5318765  86.7047234
  38.1857392  40.1206655  86.6529964  47.6687181  33.4285439  76.0440352
  46.7813036  33.7135090  75.8260547  48.0841170  33.2679202  75.1967629
  51.0201717  33.4531960  79.7594691  51.7962107  33.9428412  80.0319308
  50.2949851  33.8790014  80.2166561  53.4574276  34.1659579  80.8168632
  54.0518767  33.9255315  80.1061940  53.5300859  33.4466710  81.4442168
  47.6428205  38.9439975  76.2590642  47.5863406  39.4008526  75.4198275
  48.1956547  38.1830660  76.0813485  51.4533011  34.7329707  77.0840762
  51.1969945  34.3326342  77.9148970  50.8285879  35.4473501  76.9590901
  55.7645348  37.4725780  79.5912053  55.2044906  37.5418969  80.3643615
  55.1588852  37.2966765  78.8711550  48.7217092  43.6312643  72.1886832
  49.5562696  43.1993841  72.0064307  48.5601435  43.4594657  73.1163727
  48.3762984  40.1344756  73.5543172  48.3211788  39.9689028  72.6131616
  47.7509039  40.8420789  73.7105361  33.1655499  35.3712821  87.3804594
  33.8114363  34.8611775  87.8691819  32.9572650  36.1081502  87.9548019
  45.6908891  42.4393668  92.8796734  46.5600051  42.6134320  92.5183369
  45.2115643  43.2588085  92.7572464  41.6859109  29.6352865  73.1328490
  41.6737779  30.5794705  73.2896761  42.5782531  29.4523011  72.8387951
  45.5011229  26.2295642  77.3874427  44.7343625  25.6754128  77.5331109
  45.9121934  26.3017511  78.2488578  37.5052990  32.5180438  91.4779608
  38.3684452  32.1617242  91.6882933  36.9318401  32.1794332  92.1655012
  57.3501367  54.1482294  82.2842009  57.9879777  54.0289041  81.5805349
  57.2322210  55.0963138  82.3429961  54.1591073  54.1009722  82.2203534
  53.8209585  53.9850787  81.3324069  55.0280841  53.7000887  82.2004540
  50.0177889  55.9545198  78.2100425  49.4542754  55.8635135  77.4416712
  49.9030284  55.1345103  78.6902917  54.6410856  55.2544574  88.1789739
  54.6299497  54.8597372  87.3070243  54.8031496  54.5210646  88.7723511
  47.5642321  57.4496390  81.0484645  48.3563613  57.1087215  80.6330944
  47.8038971  57.5591365  81.9686798  51.3618117  58.0381686  87.1268923
  51.0707983  58.9427316  87.0115590  51.9975102  58.0798213  87.8412993
  52.2874324  55.4158534  83.7170283  52.8837896  55.1914557  83.0027246
  52.3449296  54.6743280  84.3195731  56.9042635  51.8733748  79.3595217
  57.6905725  51.4553171  79.0085634  57.1681340  52.7779840  79.5276865
  62.3051063  51.8108981  80.2628196  63.0376234  51.2408198  80.4966025
  61.5490418  51.4230581  80.7034701  53.9227182  54.2336222  77.4591538
  53.5585390  53.7066843  78.1704459  54.7794298  53.8434692  77.2858023
  59.8276483  45.5230555  84.7222804  59.4959808  46.3925966  84.4984019
  59.2322096  45.2066839  85.4016835  56.3208002  57.7243101  84.1218717
  56.0208726  58.6268140  84.0134524  55.9759062  57.4575284  84.9739870
  49.7720484  54.1756898  80.1555421  48.8470980  54.0433112  80.3633113
  50.0204897  54.9551117  80.6525364  59.7205146  50.2425641  81.8016154
  58.8122024  50.1741050  81.5074915  59.6692742  50.7197586  82.6297980
  53.7946012  51.6615287  89.7451052  53.0179346  52.2209207  89.7353916
  54.4336575  52.1472070  90.2665922  61.5866793  48.4442080  83.5794028
  60.9441173  48.7374613  82.9333823  61.0821721  48.3295000  84.3847225
  52.0492384  54.4700740  89.3069019  52.7907069  55.0085784  89.0303842
  51.3429370  55.0967029  89.4640570  57.5247724  56.6129881  87.9041180
  57.9331080  56.1712291  87.1595812  56.8024985  56.0382508  88.1575373
  53.8778794  51.5502487  85.2774737  54.7239989  51.9741901  85.4209386
  53.8177432  50.8936112  85.9713300  57.8476539  57.1731071  81.6593469
  57.2185401  57.3376785  80.9569537  57.4602201  57.5872681  82.4304433
  61.7265770  58.1085509  79.0137833  61.0416809  58.4884411  78.4634866
  61.8109620  58.7180836  79.7469780  57.0278239  49.2106856  86.9355911
  56.7839171  49.9648916  86.3990186  57.3038170  49.5892203  87.7703158
  58.9816702  55.7545468  85.6133176  59.1933597  56.3977228  84.9367557
  58.9346450  54.9207785  85.1455106  56.5842931  48.3663289  82.5169748
  55.7227410  48.6644542  82.8086486  56.6105366  48.5833688  81.5850781
  53.4004500  56.9105479  78.9243554  53.8642846  57.1893182  78.1348176
  53.1361299  56.0088924  78.7416645  50.2928582  56.4576961  81.8623317
  50.8629939  56.8864229  81.2240802  50.8836693  56.1759546  82.5607503
  52.3373387  53.0328632  75.7333119  53.0397430  53.4849675  76.2007045
  52.0054015  52.3912451  76.3613012  50.7853748  51.6240388  90.1084329
  50.1552409  52.3056669  90.3419725  50.6789836  51.5123470  89.1637467
  60.0962530  58.6317424  83.7855534  60.9179974  58.2297611  83.5038215
  60.0924933  58.5285658  84.7371649  53.8619133  58.1801467  85.9416244
  53.9263566  58.6421874  86.7774416  53.1530057  57.5498832  86.0698554
  68.1868523  54.9756172  80.1340505  67.4332231  54.4063570  79.9784509
  68.3216064  54.9418837  81.0811140  50.0634491  45.9261154  92.4709580
  49.6701436  45.3727353  93.1457224  50.8800631  46.2371733  92.8616097
  47.0296549  57.3645012  76.3823149  47.5421069  58.1588263  76.5328714
  47.6819261  56.6671303  76.3156751  52.9802452  47.3419033  90.0629836
  53.7212165  47.9426186  89.9834299  53.2120375  46.5996671  89.5047879
  48.1243790  52.5275401  88.3408066  48.0097305  51.6260658  88.6415165
  47.2688308  52.7739097  87.9892882  55.2035628  60.4693141  89.9395566
  54.7599482  59.6829519  89.6216471  55.8652841  60.6572291  89.2739457
  49.9622749  61.9988943  84.4656245  50.5130174  61.8706006  83.6933239
  49.1234225  62.2983832  84.1151138  57.3016866  60.7495941  87.9676968
  57.2835341  61.5704822  87.4757237  58.2236786  60.6250016  88.1927109
  53.7589920  58.2640070  88.8100476  54.2918257  57.5028359  88.5799784
  53.2304001  57.9713722  89.5524631  56.9259615  43.3700136  84.3394118
  56.5823884  44.2601778  84.2633228  57.2938577  43.1801794  83.4763703
  56.0056155  45.7404791  82.3043351  55.5020951  45.7034927  81.4911156
  56.2986762  46.6497534  82.3640008  52.2499041  45.8243521  81.3109533
  53.1152038  45.6286330  80.9515422  52.3176550  45.5953873  82.2378890
  61.8644172  56.1141102  74.7819726  61.0873614  55.7752262  74.3374888
  62.5435653  56.1193725  74.1074691  55.1242632  57.3926063  76.3219288
  54.5963994  56.6578822  76.0092526  54.6230135  58.1700739  76.0759256
  60.1035478  55.5875083  81.4386334  59.4459153  56.2774345  81.5266463
  60.9075878  55.9771515  81.7820321  58.9140937  53.9419456  79.4890276
  59.4272819  54.5749448  79.9911986  59.5642161  53.3420651  79.1233636
  55.3921768  51.4168912  81.7348617  54.4744330  51.6383859  81.5770305
  55.8081912  51.4915222  80.8760324  56.1756816  52.8160327  76.8651297
  56.9228635  53.3281724  76.5558419  56.4448405  52.4944380  77.7255690
  58.1235673  60.7601954  78.5519237  58.4158647  61.3207011  77.8331603
  58.6334293  61.0530515  79.3072396  58.7247280  42.6293695  79.4411855
  59.0306157  41.7691059  79.1537771  59.4499885  43.2211316  79.2410849
  52.9968360  52.9247489  79.9488047  53.0516970  51.9721325  79.8730523
  52.1859562  53.0806928  80.4329345  56.5334932  52.0066373  86.5393319
  56.8884319  52.2337846  87.3987785  57.1807063  52.3384750  85.9170575
  62.2632669  55.1284809  77.2442648  62.1250567  55.3186405  76.3163838
  61.9068887  55.8904191  77.7010699  50.4274795  49.1142904  83.3239660
  51.0674174  48.9731663  82.6262624  49.5952325  48.8277417  82.9478262
  62.2902048  57.1961336  82.2553920  62.7238555  57.1036625  83.1036974
  63.0033629  57.1718836  81.6173936  51.2035099  58.4145334  79.4374653
  51.9975697  57.9195654  79.2357228  50.4926791  57.8863197  79.0742358
  56.0229943  60.7963430  83.7887020  56.0766965  61.3654366  84.5564736
  55.1544725  60.9665315  83.4241058  48.9028337  50.4980986  85.2711472
  49.5751390  50.2898348  84.6224121  48.0758123  50.3003072  84.8316704
  63.1517598  57.2385036  84.7886805  63.3453488  58.1430847  85.0346080
  63.0518216  56.7792455  85.6225390  54.8053909  47.1242927  87.2877133
  54.1581824  47.8232877  87.1941609  55.5754924  47.5579071  87.6553381
  58.2132707  57.3891779  90.3627686  58.0618213  57.1602331  89.4457770
  58.2037386  58.3462380  90.3759031  54.9818043  54.9623692  85.3473952
  55.9110103  55.1134851  85.1742920  54.5609073  55.0507713  84.4922599
  53.7806375  58.9874356  83.1172490  53.6417460  58.6193141  83.9898428
  52.9920971  59.5021996  82.9456448  55.3311590  58.3655959  80.5061328
  54.9961422  58.3256729  81.4018978  54.8315536  57.7000675  80.0331738
  49.3055834  53.7723589  86.0313909  49.1675632  53.0403828  86.6325448
  50.2160757  53.6832489  85.7498097  51.9338134  53.4843548  85.5197589
  52.6437753  52.8436740  85.4784207  51.8907443  53.7356443  86.4423769
  59.9224913  60.4210902  88.4404168  59.8637459  59.7370122  87.7734751
  60.3244432  61.1629892  87.9884794  50.6467068  50.4708766  87.3393228
  50.1104425  50.0199505  87.9914824  50.0583777  50.6054675  86.5963692
  48.9415612  67.2372815  81.2337887  49.1812210  67.8691340  81.9116905
  48.0984808  66.8860855  81.5203246  59.9242320  58.3850486  86.6718147
  59.0369099  58.0476407  86.7944546  60.4940871  57.6533517  86.9086913
  46.3806190  49.6064774  84.4246222  46.2964378  48.9990443  83.6896632
  45.5588896  50.0973792  84.4255719  53.4543474  63.0451938  83.6379391
  53.3813645  63.8506909  84.1498695  53.0120867  63.2443904  82.8127412
  56.5529904  48.0918337  79.7916418  57.0498603  47.3388300  79.4717488
  55.7816885  48.1282654  79.2259627  64.4059661  53.7958703  81.4334709
  64.3949537  54.6783418  81.0628642  63.5377040  53.4430254  81.2389246
  55.9142157  62.9438772  85.7937549  56.6270130  63.5786237  85.7213451
  55.4232186  63.0402638  84.9777551  57.6359684  56.8490025  77.3654841
  56.7015963  56.9691487  77.1959545  57.8136353  55.9462491  77.1014851
  50.9654071  60.6933215  86.6143120  51.6663530  61.3269698  86.7672514
  50.4949186  61.0347947  85.8538759  58.9948898  45.0587931  81.9395776
  58.0811978  45.2892158  82.1077983  59.4242000  45.1426375  82.7909809
  58.7655357  53.2477823  84.4395670  58.1126807  53.4953730  83.7848123
  59.1435737  52.4341961  84.1058148  55.7262531  63.2837516  78.5423841
  55.9084925  62.4659172  79.0051593  56.5495517  63.5005208  78.1048731
  56.0604696  62.2105701  75.8038889  56.5892463  61.6998156  75.1909051
  56.3232916  61.8948231  76.6684422  54.8142930  53.9897634  90.9261708
  54.1383567  53.8891763  91.5964083  55.6370564  53.8336848  91.3897705
  46.5621789  60.2269570  83.5474223  47.1475226  59.4813258  83.6802127
  46.3646627  60.5373527  84.4310887  53.5565713  65.2964561  85.1619324
  54.1084021  65.4596183  85.9268409  53.8971906  65.8868999  84.4899348
  48.5330206  47.6439711  85.7641208  48.5971532  48.5054542  85.3518606
  48.4697326  47.0313713  85.0313567  48.0082478  49.7162844  89.4114242
  48.6354517  49.3339921  90.0251767  47.1510397  49.4977046  89.7769935
  58.4076587  60.1225819  91.0167978  58.9516491  60.7355777  90.5222933
  57.8263432  60.6805397  91.5334991  56.6934100  63.2446537  82.1483006
  56.5685239  62.4436277  81.6393951  57.3513191  63.7392730  81.6596976
  58.7569008  61.0455557  83.7762556  57.8099344  60.9260908  83.7040882
  59.1051782  60.1578055  83.8588817  51.1168582  46.9349696  87.6000798
  51.6402984  47.1811992  88.3627107  50.8980915  47.7669731  87.1803935
  55.7615442  60.8408273  79.9766908  55.6140404  59.9124981  80.1574478
  56.5868935  60.8628364  79.4923983  59.3649564  61.6636832  81.0631781
  60.2896111  61.4579693  80.9256232  59.1964867  61.4153233  81.9721122
  52.3221127  47.8763391  85.2850468  51.9817947  47.0771204  85.6871148
  51.6160133  48.1765102  84.7127301  52.9737599  44.9612703  83.7377791
  53.7963668  44.4873182  83.6156682  53.2175662  45.7403187  84.2376477
  50.4976177  51.6531824  81.5469770  50.3520758  51.9672127  82.4394051
  50.0201381  52.2716724  80.9940668  52.3572560  48.6434372  81.5950659
  52.3434129  47.7475465  81.2582957  53.0744988  48.6505036  82.2288945
  54.2098691  49.0771712  83.6403787  53.9516469  49.9988783  83.6388117
  53.6783731  48.6802147  84.3304251  59.1544880  62.1822499  76.4193872
  59.3281757  61.6168922  75.6667725  59.6473771  62.9823394  76.2373362
  44.9721840  54.1937168  84.4857431  44.4275308  54.9696976  84.6177705
  45.8501189  54.5407973  84.3276552  54.6300647  45.2103663  80.0004949
  54.6522343  45.2742996  79.0456929  55.0468706  44.3708171  80.1945456
  65.0084271  54.9458922  78.0384172  65.4515417  54.1966247  77.6403295
  64.1310781  54.9369059  77.6557904  45.7587861  53.3207065  87.3787588
  45.0169597  53.4689700  87.9652218  45.4380606  53.5815330  86.5154337
  53.7031524  62.8623043  87.1767978  54.0118651  62.6172190  88.0490677
  54.5007006  63.0669681  86.6886848  46.2044475  61.2072493  79.4097982
  47.0302495  60.9076265  79.0296626  45.8538527  60.4380116  79.8587771
  51.1726008  60.5598962  81.4795656  50.5506018  59.8969667  81.1797884
  51.8430875  60.5860094  80.7969304  44.4053080  59.1258820  80.3686916
  43.5684988  58.6980994  80.1870917  44.3776726  59.3191263  81.3057707
  51.2450536  49.0380750  91.0728162  51.2938691  49.9142872  90.6905932
  51.7873050  48.4958143  90.4999805  61.7305381  59.5821873  90.3529299
  60.9400925  59.5646012  89.8133799  61.4938736  60.1210167  91.1078336
  61.8503256  56.4314339  87.6662028  61.9001261  56.2664347  88.6077551
  61.7417180  55.5641598  87.2759909  59.1407019  52.4145267  88.9821334
  60.0416882  52.2751732  88.6905332  59.2154993  52.5799722  89.9219512
  53.4749824  49.7912122  87.8274521  52.6053134  50.0845688  87.5557109
  53.7109305  50.3752567  88.5481784  63.3521453  58.8511281  87.9104049
  63.0606262  59.2141261  88.7467510  62.7393585  58.1378289  87.7317381
  64.5517136  56.4164161  80.4306620  65.3864027  56.8553965  80.5944180
  64.6876264  55.9402814  79.6114865  61.6008642  53.9743895  86.3784107
  62.0762763  54.1671542  85.5702959  60.6774207  54.0303081  86.1327491
  48.4892148  55.1368063  75.9615186  48.2438190  54.2330393  76.1595396
  48.6588063  55.1385213  75.0194664  56.1788858  46.0091739  85.3439941
  56.6970802  46.7452766  85.0186430  55.8243991  46.3155732  86.1786700
  56.4301452  42.4292022  80.8640838  56.7103206  41.7615211  81.4901264
  57.2152059  42.6221117  80.3515502  60.3010311  50.8509656  84.6112413
  61.2527733  50.9507753  84.6324637  60.1313761  50.0587924  85.1210497
  58.3224690  47.9365239  84.7971814  57.7274622  48.2170251  84.1018302
  58.0374387  48.4259140  85.5688555  62.7798388  54.0715775  83.7254713
  62.7474708  53.1331776  83.9114396  63.3899012  54.1499812  82.9920537
  62.9292877  50.8626819  83.7712996  62.4131925  50.0785275  83.5842925
  63.8132825  50.5345535  83.9359515  60.5903604  44.6067834  79.7308808
  60.3928425  44.2982922  80.6152140  61.2003309  45.3329473  79.8606738
  68.5974938  55.1331782  82.8660749  69.3278327  54.8717070  83.4268453
  67.9881884  54.3960504  82.9062817  66.6790235  53.2739645  83.4635201
  65.9523399  53.1395610  82.8551692  66.2637522  53.5816473  84.2691919
  54.5020412  56.9929574  91.2282574  55.4223421  57.1708173  91.4222620
  54.4669995  56.0485620  91.0762273  47.4982484  54.9030609  83.8705355
  47.7168494  55.8347717  83.8893389  47.9108258  54.5438583  84.6560159
  52.3710350  50.4763815  93.2608104  52.2707076  51.4258172  93.1920195
  52.1531892  50.1482054  92.3884174  43.5890837  55.8071079  82.1228970
  42.8954308  55.3925032  81.6098924  44.3363828  55.8491616  81.5262389
  52.2341620  53.9060954  92.0773165  51.7508701  54.7061314  92.2837054
  52.3202559  53.9168898  91.1240609  45.5027579  55.7389333  79.9994985
  45.4798267  55.8377021  79.0476868  45.8128216  56.5854484  80.3212151
  48.1614957  57.7965488  84.1141599  49.1158211  57.7649431  84.0471531
  47.9627481  57.3356112  84.9291825  48.7514339  56.3666604  86.6812397
  49.5707228  56.8610683  86.7047234  49.0251147  55.4498572  86.6529964
  64.2968030  49.4951497  80.8168632  64.8912521  49.2547233  80.1061940
  64.3694614  48.7758627  81.4442168  46.5165186  63.3385108  81.1311797
  46.3819654  62.5785509  80.5649795  46.0997248  64.0626008  80.6640586
  66.6039103  52.8017698  79.5912053  66.0438661  52.8710887  80.3643615
  65.9982606  52.6258682  78.8711550  44.0049254  50.7004738  87.3804594
  44.6508117  50.1903692  87.8691819  43.7966405  51.4373420  87.9548019
  56.5302646  57.7685586  92.8796734  57.3993805  57.9426238  92.5183369
  56.0509397  58.5880003  92.7572464  50.6988826  64.8882687  84.5586168
  51.6016073  64.9206297  84.8752663  50.4726196  63.9583138  84.5732504
  56.3404983  41.5587559  77.3874427  55.5737379  41.0046046  77.5331109
  56.7515688  41.6309428  78.2488578  48.3446744  47.8472355  91.4779608
  49.2078206  47.4909160  91.6882933  47.7712155  47.5086250  92.1655012
  68.1895121  69.4774212  82.2842009  68.8273531  69.3580959  81.5805349
  68.0715964  70.4255056  82.3429961  64.9984828  69.4301640  82.2203534
  64.6603339  69.3142704  81.3324069  65.8674596  69.0292805  82.2004540
  65.4804611  70.5836491  88.1789739  65.4693251  70.1889290  87.3070243
  65.6425250  69.8502564  88.7723511  58.4036075  72.7788308  81.0484645
  59.1957367  72.4379132  80.6330944  58.6432726  72.8883283  81.9686798
  66.4371202  74.9508084  73.5214890  65.7859182  75.5362164  73.1348903
  67.2315565  75.4814279  73.5809927  62.2011872  73.3673603  87.1268923
  61.9101738  74.2719234  87.0115590  62.8368856  73.4090131  87.8412993
  63.1268079  70.7450452  83.7170283  63.7231651  70.5206474  83.0027246
  63.1843050  70.0035197  84.3195731  67.7436390  67.2025665  79.3595217
  68.5299479  66.7845089  79.0085634  68.0075094  68.1071758  79.5276865
  67.9146467  72.6398516  74.0583874  67.2792300  72.7133142  74.7704779
  67.5843874  73.2292115  73.3802953  73.1444817  67.1400899  80.2628196
  73.8769989  66.5700115  80.4966025  72.3884173  66.7522499  80.7034701
  70.6670237  60.8522473  84.7222804  70.3353562  61.7217884  84.4984019
  70.0715851  60.5358757  85.4016835  67.1601757  73.0535019  84.1218717
  66.8602480  73.9560058  84.0134524  66.8152816  72.7867202  84.9739870
  70.5598901  65.5717559  81.8016154  69.6515778  65.5032967  81.5074915
  70.5086497  66.0489504  82.6297980  57.9723049  69.1482089  80.9899210
  58.1015431  69.4016568  81.9038622  57.2920501  69.7409797  80.6703865
  64.6339766  66.9907205  89.7451052  63.8573101  67.5501125  89.7353916
  65.2730330  67.4763988  90.2665922  72.4260547  63.7733997  83.5794028
  71.7834927  64.0666531  82.9333823  71.9215476  63.6586918  84.3847225
  70.0800711  67.5197171  74.2679887  70.9918567  67.7524557  74.0927585
  69.5710358  68.1034215  73.7054966  62.8886139  69.7992658  89.3069019
  63.6300823  70.3377702  89.0303842  62.1823124  70.4258947  89.4640570
  68.3641478  71.9421798  87.9041180  68.7724834  71.5004209  87.1595812
  67.6418740  71.3674426  88.1575373  64.7172548  66.8794405  85.2774737
  65.5633744  67.3033819  85.4209386  64.6571186  66.2228029  85.9713300
  68.6870293  72.5022989  81.6593469  68.0579156  72.6668703  80.9569537
  68.2995955  72.9164599  82.4304433  72.5659525  73.4377427  79.0137833
  71.8810563  73.8176328  78.4634866  72.6503374  74.0472754  79.7469780
  67.8671994  64.5398774  86.9355911  67.6232926  65.2940834  86.3990186
  68.1431924  64.9184121  87.7703158  69.8210457  71.0837386  85.6133176
  70.0327352  71.7269146  84.9367557  69.7740205  70.2499702  85.1455106
  67.4236686  63.6955207  82.5169748  66.5621165  63.9936460  82.8086486
  67.4499120  63.9125605  81.5850781  64.2398255  72.2397397  78.9243554
  64.7036600  72.5185100  78.1348176  63.9755053  71.3380842  78.7416645
  61.1322336  71.7868879  81.8623317  61.7023693  72.2156147  81.2240802
  61.7230448  71.5051463  82.5607503  61.6247503  66.9532306  90.1084329
  60.9946163  67.6348587  90.3419725  61.5183590  66.8415388  89.1637467
  70.9356285  73.9609341  83.7855534  71.7573728  73.5589529  83.5038215
  70.9318687  73.8577575  84.7371649  64.7012888  73.5093385  85.9416244
  64.7657320  73.9713792  86.7774416  63.9923812  72.8790750  86.0698554
  55.2030178  66.8734593  83.4665243  55.4538216  67.7581602  83.7322819
  55.7389726  66.6939194  82.6940335  79.0262278  70.3048090  80.1340505
  78.2725986  69.7355488  79.9784509  79.1609819  70.2710754  81.0811140
  64.4160906  75.1761492  75.8095224  64.2806580  76.0213028  76.2380072
  64.9570718  75.3780770  75.0461158  60.9028245  61.2553072  92.4709580
  60.5095191  60.7019270  93.1457224  61.7194386  61.5663650  92.8616097
  63.8196206  62.6710951  90.0629836  64.5605920  63.2718104  89.9834299
  64.0514129  61.9288589  89.5047879  58.9637544  67.8567318  88.3408066
  58.8491059  66.9552576  88.6415165  58.1082062  68.1031015  87.9892882
  66.0429382  75.7985059  89.9395566  65.5993236  75.0121437  89.6216471
  66.7046596  75.9864209  89.2739457  60.8016503  77.3280860  84.4656245
  61.3523928  77.1997924  83.6933239  59.9627979  77.6275749  84.1151138
  68.1410620  76.0787859  87.9676968  68.1229095  76.8996740  87.4757237
  69.0630540  75.9541934  88.1927109  64.5983674  73.5931988  88.8100476
  65.1312011  72.8320276  88.5799784  64.0697755  73.3005640  89.5524631
  67.7653369  58.6992054  84.3394118  67.4217639  59.5893696  84.2633228
  68.1332332  58.5093712  83.4763703  67.7303652  68.6900665  72.8466553
  67.2150275  69.4605270  73.0854940  67.4580960  68.0165801  73.4699614
  65.3150763  63.5350366  77.9051791  64.4592359  63.1457216  77.7257430
  65.7277715  63.6142327  77.0451577  66.8449910  61.0696709  82.3043351
  66.3414705  61.0326844  81.4911156  67.1380516  61.9789452  82.3640008
  63.0892795  61.1535439  81.3109533  63.9545792  60.9578248  80.9515422
  63.1570304  60.9245791  82.2378890  72.7037926  71.4433020  74.7819726
  71.9267369  71.1044179  74.3374888  73.3829407  71.4485643  74.1074691
  67.5189955  66.5627757  74.6726334  67.2140091  66.8773906  75.5236477
  68.4720397  66.6409177  74.7153667  65.9636387  72.7217980  76.3219288
  65.4357749  71.9870740  76.0092526  65.4623890  73.4992657  76.0759256
  70.9429233  70.9167001  81.4386334  70.2852907  71.6066262  81.5266463
  71.7469632  71.3063433  81.7820321  60.6955115  63.3837647  78.6825900
  61.2698866  63.1612828  77.9499093  61.2826097  63.4526341  79.4354501
  69.7534692  69.2711374  79.4890276  70.2666574  69.9041365  79.9911986
  70.4035916  68.6712569  79.1233636  62.9977782  60.2578896  77.4100969
  62.3442195  59.9427913  76.7857584  62.9558256  59.6354636  78.1360792
  67.0157066  79.2495698  72.2450947  66.3418765  79.5527395  72.8535905
  67.4022888  80.0524778  71.8956404  66.2315523  66.7460829  81.7348617
  65.3138084  66.9675776  81.5770305  66.6475666  66.8207140  80.8760324
  67.0150570  68.1452245  76.8651297  67.7622389  68.6573642  76.5558419
  67.2842160  67.8236298  77.7255690  65.2877221  70.6410786  73.8478251
  64.3788440  70.3569818  73.9450721  65.3172304  71.0609864  72.9881558
  70.5196488  74.2517375  77.6169419  70.0658815  73.4108285  77.6734609
  69.8890455  74.8878773  77.9544199  69.4629408  65.1809361  78.8470086
  68.7252164  64.6686747  79.1780329  69.7156181  64.7409743  78.0353363
  68.9629427  76.0893872  78.5519237  69.2552402  76.6498929  77.8331603
  69.4728048  76.3822433  79.3072396  69.5641035  57.9585613  79.4411855
  69.8699912  57.0982977  79.1537771  70.2893640  58.5503233  79.2410849
  63.8362115  68.2539406  79.9488047  63.8910724  67.3013243  79.8730523
  63.0253317  68.4098845  80.4329345  63.9263052  76.8674223  79.6412690
  63.8839231  77.0935069  78.7121222  64.8425751  76.6337597  79.7898491
  67.3728686  67.3358290  86.5393319  67.7278074  67.5629764  87.3987785
  68.0200817  67.6676667  85.9170575  73.1026423  70.4576726  77.2442648
  72.9644322  70.6478322  76.3163838  72.7462642  71.2196109  77.7010699
  61.2668549  64.4434821  83.3239660  61.9067929  64.3023581  82.6262624
  60.4346080  64.1569335  82.9478262  73.1295803  72.5253253  82.2553920
  73.5632309  72.4328542  83.1036974  73.8427383  72.5010754  81.6173936
  62.0428853  73.7437252  79.4374653  62.8369452  73.2487572  79.2357228
  61.3320546  73.2155115  79.0742358  66.8623698  76.1255347  83.7887020
  66.9160720  76.6946284  84.5564736  65.9938479  76.2957232  83.4241058
  58.2697166  64.4135146  78.1012647  58.5303983  65.3280480  77.9921808
  59.0914338  63.9459589  78.2509260  59.7422091  65.8272904  85.2711472
  60.4145144  65.6190266  84.6224121  58.9151878  65.6294990  84.8316704
  73.9911352  72.5676954  84.7886805  74.1847242  73.4722764  85.0346080
  73.8911970  72.1084373  85.6225390  65.6447663  62.4534845  87.2877133
  64.9975578  63.1524794  87.1941609  66.4148678  62.8870988  87.6553381
  69.0526461  72.7183697  90.3627686  68.9011967  72.4894248  89.4457770
  69.0431140  73.6754298  90.3759031  65.8211797  70.2915609  85.3473952
  66.7503857  70.4426769  85.1742920  65.4002827  70.3799630  84.4922599
  64.6200129  74.3166274  83.1172490  64.4811215  73.9485058  83.9898428
  63.8314725  74.8313913  82.9456448  65.2148281  79.4175370  74.4598026
  65.3900037  78.9463414  75.2743649  64.5281069  80.0441137  74.6879287
  66.1705344  73.6947877  80.5061328  65.8355177  73.6548647  81.4018978
  65.6709290  73.0292593  80.0331738  60.1449588  69.1015507  86.0313909
  60.0069386  68.3695745  86.6325448  61.0554512  69.0124407  85.7498097
  62.7731889  68.8135466  85.5197589  63.4831507  68.1728658  85.4784207
  62.7301197  69.0648361  86.4423769  70.7618668  75.7502819  88.4404168
  70.7031214  75.0662039  87.7734751  71.1638186  76.4921809  87.9884794
  61.4860823  65.8000684  87.3393228  60.9498180  65.3491422  87.9914824
  60.8977531  65.9346593  86.5963692  59.7809366  82.5664733  81.2337887
  60.0205965  83.1983257  81.9116905  58.9378563  82.2152773  81.5203246
  70.7636075  73.7142403  86.6718147  69.8762854  73.3768325  86.7944546
  71.3334626  72.9825434  86.9086913  57.2199944  64.9356692  84.4246222
  57.1358133  64.3282361  83.6896632  56.3982651  65.4265710  84.4255719
  64.2937228  78.3743856  83.6379391  64.2207400  79.1798827  84.1498695
  63.8514621  78.5735821  82.8127412  64.0827008  77.6115626  77.1482212
  63.2994530  78.1537306  77.2420437  64.7819753  78.1289605  77.5476453
  67.3923658  63.4210255  79.7916418  67.8892358  62.6680217  79.4717488
  66.6210640  63.4574572  79.2259627  75.2453415  69.1250621  81.4334709
  75.2343292  70.0075336  81.0628642  74.3770795  68.7722171  81.2389246
  66.7535912  78.2730690  85.7937549  67.4663884  78.9078154  85.7213451
  66.2625940  78.3694556  84.9777551  68.4753439  72.1781942  77.3654841
  67.5409717  72.2983405  77.1959545  68.6530107  71.2754409  77.1014851
  63.9758627  65.5627638  79.5188102  63.6056414  65.0098678  80.2069008
  64.4717719  64.9585772  78.9663102  71.8625990  68.0199262  77.9004875
  72.3286442  68.8527253  77.8265178  72.3133491  67.5544243  78.6050134
  61.8047825  76.0225133  86.6143120  62.5057285  76.6561616  86.7672514
  61.3342940  76.3639865  85.8538759  69.9302221  74.3643083  74.8991027
  70.2062065  74.2499677  75.8084901  69.0606720  73.9660568  74.8603200
  69.8342653  60.3879849  81.9395776  68.9205733  60.6184075  82.1077983
  70.2635754  60.4718293  82.7909809  69.6049111  68.5769741  84.4395670
  68.9520562  68.8245648  83.7848123  69.9829491  67.7633879  84.1058148
  66.5656285  78.6129434  78.5423841  66.7478680  77.7951090  79.0051593
  67.3889271  78.8297126  78.1048731  66.8998451  77.5397619  75.8038889
  67.4286217  77.0290073  75.1909051  67.1626670  77.2240149  76.6684422
  65.6536684  69.3189552  90.9261708  64.9777321  69.2183681  91.5964083
  66.4764318  69.1628765  91.3897705  57.4015543  75.5561488  83.5474223
  57.9868980  74.8105176  83.6802127  57.2040382  75.8665445  84.4310887
  64.3959467  80.6256479  85.1619324  64.9477775  80.7888101  85.9268409
  64.7365661  81.2160917  84.4899348  59.3723960  62.9731629  85.7641208
  59.4365287  63.8346460  85.3518606  59.3091081  62.3605630  85.0313567
  58.8476233  65.0454761  89.4114242  59.4748272  64.6631839  90.0251767
  57.9904152  64.8268963  89.7769935  69.2470342  75.4517737  91.0167978
  69.7910246  76.0647695  90.5222933  68.6657186  76.0097315  91.5334991
  67.5327854  78.5738455  82.1483006  67.4078994  77.7728194  81.6393951
  68.1906946  79.0684648  81.6596976  59.1536023  64.9287187  81.3260146
  58.4322608  65.5423155  81.1867619  59.9429278  65.4644952  81.2476792
  69.5962763  76.3747475  83.7762556  68.6493098  76.2552826  83.7040882
  69.9445536  75.4869973  83.8588817  61.9562336  62.2641614  87.6000798
  62.4796738  62.5103910  88.3627107  61.7374670  63.0961648  87.1803935
  66.6009196  76.1700191  79.9766908  66.4534159  75.2416898  80.1574478
  67.4262690  76.1920282  79.4923983  70.2043318  76.9928750  81.0631781
  71.1289866  76.7871611  80.9256232  70.0358621  76.7445151  81.9721122
  63.1614881  63.2055309  85.2850468  62.8211702  62.4063122  85.6871148
  62.4553888  63.5057019  84.7127301  63.8131353  60.2904621  83.7377791
  64.6357422  59.8165099  83.6156682  64.0569417  61.0695105  84.2376477
  66.5970710  64.0238028  74.9699025  66.8134325  64.9062666  74.6687853
  66.1164778  63.6324242  74.2404667  61.3369932  66.9823742  81.5469770
  61.1914513  67.2964045  82.4394051  60.8595136  67.6008642  80.9940668
  63.1966315  63.9726290  81.5950659  63.1827884  63.0767383  81.2582957
  63.9138743  63.9796953  82.2288945  65.0492445  64.4063630  83.6403787
  64.7910223  65.3280701  83.6388117  64.5177486  64.0094064  84.3304251
  69.9938634  77.5114417  76.4193872  70.1675512  76.9460840  75.6667725
  70.4867525  78.3115312  76.2373362  55.8115594  69.5229086  84.4857431
  55.2669062  70.2988894  84.6177705  56.6894944  69.8699891  84.3276552
  62.6003211  62.8540670  76.8638230  62.7219122  61.9257316  77.0629117
  62.3105253  62.8679356  75.9516545  65.4694401  60.5395580  80.0004949
  65.4916098  60.6034914  79.0456929  65.8862460  59.7000089  80.1945456
  75.8478025  70.2750840  78.0384172  76.2909171  69.5258165  77.6403295
  74.9704536  70.2660976  77.6557904  70.9813807  76.8281181  73.5190770
  71.6764711  77.4487874  73.7378085  71.3236957  75.9776533  73.7943148
  56.5981616  68.6498982  87.3787588  55.8563352  68.7981618  87.9652218
  56.2774360  68.9107248  86.5154337  72.8805230  74.2780887  75.0478101
  73.4056554  74.6168160  74.3227421  72.7927582  73.3427902  74.8641236
  64.5425279  78.1914961  87.1767978  64.8512405  77.9464107  88.0490677
  65.3400761  78.3961599  86.6886848  64.5645891  80.3452870  79.4073354
  64.1250881  79.8529249  80.1006211  65.3154008  79.8025838  79.1665430
  62.0119763  75.8890879  81.4795656  61.3899772  75.2261584  81.1797884
  62.6824630  75.9152011  80.7969304  62.0844290  64.3672667  91.0728162
  62.1332446  65.2434790  90.6905932  62.6266804  63.8250060  90.4999805
  72.5699136  74.9113791  90.3529299  71.7794680  74.8937929  89.8133799
  72.3332490  75.4502084  91.1078336  72.6897011  71.7606257  87.6662028
  72.7395016  71.5956264  88.6077551  72.5810934  70.8933516  87.2759909
  69.9800773  67.7437185  88.9821334  70.8810636  67.6043650  88.6905332
  70.0548748  67.9091640  89.9219512  64.3143579  65.1204040  87.8274521
  63.4446888  65.4137606  87.5557109  64.5503059  65.7044485  88.5481784
  74.1915208  74.1803198  87.9104049  73.9000016  74.5433179  88.7467510
  73.5787339  73.4670207  87.7317381  75.3910890  71.7456078  80.4306620
  76.2257781  72.1845882  80.5944180  75.5270019  71.2694731  79.6114865
  72.4402396  69.3035813  86.3784107  72.9156518  69.4963459  85.5702959
  71.5167961  69.3594999  86.1327491  67.0182613  61.3383657  85.3439941
  67.5364556  62.0744684  85.0186430  66.6637745  61.6447650  86.1786700
  67.2695207  57.7583939  80.8640838  67.5496960  57.0907128  81.4901264
  68.0545814  57.9513035  80.3515502  71.1404065  66.1801573  84.6112413
  72.0921488  66.2799671  84.6324637  70.9707515  65.3879842  85.1210497
  69.1618444  63.2657156  84.7971814  68.5668377  63.5462169  84.1018302
  68.8768141  63.7551057  85.5688555  68.2925935  77.2180083  73.5574446
  69.2256608  77.1525645  73.7607322  68.2049148  78.0536350  73.0988979
  73.6192143  69.4007693  83.7254713  73.5868463  68.4623694  83.9114396
  74.2292766  69.4791730  82.9920537  65.4575474  68.2703746  69.7681917
  66.4034578  68.1409954  69.8370335  65.0789719  67.5318408  70.2451345
  73.7686631  66.1918736  83.7712996  73.2525680  65.4077193  83.5842925
  74.6526580  65.8637453  83.9359515  71.4297358  59.9359752  79.7308808
  71.2322179  59.6274840  80.6152140  72.0397064  60.6621391  79.8606738
  79.4368693  70.4623700  82.8660749  80.1672081  70.2008988  83.4268453
  78.8275638  69.7252422  82.9062817  77.5183990  68.6031562  83.4635201
  76.7917153  68.4687527  82.8551692  77.1031277  68.9108391  84.2691919
  65.3414166  72.3221492  91.2282574  66.2617176  72.5000091  91.4222620
  65.3063749  71.3777537  91.0762273  58.3376239  70.2322527  83.8705355
  58.5562249  71.1639634  83.8893389  58.7502013  69.8730501  84.6560159
  67.1871005  59.8168659  77.4805340  67.7402043  60.2364112  78.1395363
  67.4241091  58.8904407  77.5228296  63.2104104  65.8055732  93.2608104
  63.1100831  66.7550089  93.1920195  62.9925646  65.4773971  92.3884174
  70.5649812  61.9269184  76.9884004  69.9848481  62.5853988  76.6062056
  70.2985745  61.1046529  76.5771421  69.0153378  61.3274242  79.1905324
  69.5153157  61.4390776  78.3819643  69.6588986  61.0235294  79.8306133
  63.0735374  69.2352871  92.0773165  62.5902456  70.0353231  92.2837054
  63.1596313  69.2460816  91.1240609  59.0008712  73.1257406  84.1141599
  59.9551965  73.0941348  84.0471531  58.8021235  72.6648030  84.9291825
  59.5908094  71.6958522  86.6812397  60.4100983  72.1902601  86.7047234
  59.8644901  70.7790490  86.6529964  69.3474690  64.0869274  76.0440352
  68.4600545  64.3718925  75.8260547  69.7628679  63.9263038  75.1967629
  72.6989226  64.1115795  79.7594691  73.4749616  64.6012248  80.0319308
  71.9737360  64.5373849  80.2166561  75.1361785  64.8243415  80.8168632
  75.7306276  64.5839150  80.1061940  75.2088368  64.1050545  81.4442168
  57.3558940  78.6677025  81.1311797  57.2213408  77.9077426  80.5649795
  56.9391003  79.3917925  80.6640586  69.3215714  69.6023810  76.2590642
  69.2650915  70.0592362  75.4198275  69.8744056  68.8414495  76.0813485
  73.1320520  65.3913542  77.0840762  72.8757454  64.9910178  77.9148970
  72.5073388  66.1057336  76.9590901  77.4432857  68.1309615  79.5912053
  76.8832415  68.2002805  80.3643615  76.8376361  67.9550600  78.8711550
  60.5128066  79.5646342  81.3430240  60.3960450  80.5091775  81.2408930
  59.6920513  79.2619904  81.7316039  70.0550493  70.7928592  73.5543172
  69.9999297  70.6272863  72.6131616  69.4296548  71.5004624  73.7105361
  54.8443008  66.0296656  87.3804594  55.4901872  65.5195610  87.8691819
  54.6360159  66.7665338  87.9548019  67.3696400  73.0977503  92.8796734
  68.2387560  73.2718156  92.5183369  66.8903152  73.9171920  92.7572464
  61.5382580  80.2174604  84.5586168  62.4409827  80.2498215  84.8752663
  61.3119950  79.2875055  84.5732504  63.2936182  78.9705591  81.2196247
  62.3431813  78.9707453  81.1060619  63.5968669  78.2238325  80.7032281
  67.1798738  56.8879477  77.3874427  66.4131134  56.3337964  77.5331109
  67.5909443  56.9601346  78.2488578  59.1840499  63.1764273  91.4779608
  60.0471961  62.8201078  91.6882933  58.6105910  62.8378168  92.1655012
  79.0288876  84.8066129  82.2842009  79.6667286  84.6872877  81.5805349
  78.9109719  85.7546973  82.3429961  75.8378582  84.7593557  82.2203534
  75.4997094  84.6434622  81.3324069  76.7068350  84.3584722  82.2004540
  71.6965398  86.6129034  78.2100425  71.1330263  86.5218971  77.4416712
  71.5817793  85.7928938  78.6902917  76.3198365  85.9128409  88.1789739
  76.3087006  85.5181207  87.3070243  76.4819005  85.1794482  88.7723511
  69.2429830  88.1080225  81.0484645  70.0351122  87.7671050  80.6330944
  69.4826480  88.2175200  81.9686798  77.2764957  90.2800002  73.5214890
  76.6252936  90.8654082  73.1348903  78.0709319  90.8106196  73.5809927
  71.2020584  87.3689139  73.9202024  71.9751460  86.8218126  73.7814900
  71.5545983  88.2333388  74.1316485  73.0405626  88.6965521  87.1268923
  72.7495492  89.6011152  87.0115590  73.6762611  88.7382049  87.8412993
  73.9661833  86.0742369  83.7170283  74.5625405  85.8498392  83.0027246
  74.0236805  85.3327115  84.3195731  73.5386862  83.5281805  71.5520474
  73.7912382  83.0063326  70.7903937  72.6011421  83.3647950  71.6547157
  78.5830144  82.5317583  79.3595217  79.3693234  82.1137006  79.0085634
  78.8468849  83.4363675  79.5276865  78.7540222  87.9690433  74.0583874
  78.1186055  88.0425060  74.7704779  78.4237628  88.5584032  73.3802953
  83.9838572  82.4692816  80.2628196  84.7163743  81.8992033  80.4966025
  83.2277927  82.0814417  80.7034701  73.2583150  85.4309911  73.7544849
  73.1419408  84.7554814  74.4225933  73.3685410  84.9442285  72.9377002
  75.6014691  84.8920058  77.4591538  75.2372898  84.3650679  78.1704459
  76.4581807  84.5018527  77.2858023  81.5063992  76.1814390  84.7222804
  81.1747317  77.0509801  84.4984019  80.9109605  75.8650674  85.4016835
  75.2420178  79.9209958  72.4552887  75.4094581  80.7890194  72.8223358
  75.0517347  80.0837239  71.5314176  77.9995511  88.3826936  84.1218717
  77.6996235  89.2851975  84.0134524  77.6546571  88.1159120  84.9739870
  71.4507993  84.8340733  80.1555421  70.5258489  84.7016947  80.3633113
  71.6992406  85.6134953  80.6525364  81.3992655  80.9009477  81.8016154
  80.4909533  80.8324885  81.5074915  81.3480251  81.3781422  82.6297980
  75.2209399  82.3767615  73.4399553  75.1009024  82.8224666  74.2785034
  74.5261987  82.7252933  72.8813092  68.8116804  84.4774007  80.9899210
  68.9409185  84.7308486  81.9038622  68.1314255  85.0701715  80.6703865
  72.9816291  95.1471257  77.0889685  72.9040321  96.0979082  77.1678165
  72.3777935  94.8017129  77.7464611  75.4733521  82.3199122  89.7451052
  74.6966855  82.8793042  89.7353916  76.1124084  82.8055905  90.2665922
  83.2654302  79.1025915  83.5794028  82.6228682  79.3958448  82.9333823
  82.7609230  78.9878835  84.3847225  80.9194465  82.8489088  74.2679887
  81.8312321  83.0816475  74.0927585  80.4104112  83.4326132  73.7054966
  73.7279893  85.1284576  89.3069019  74.4694578  85.6669620  89.0303842
  73.0216879  85.7550864  89.4640570  79.2035233  87.2713716  87.9041180
  79.6118589  86.8296127  87.1595812  78.4812494  86.6966344  88.1575373
  75.5566303  82.2086323  85.2774737  76.4027498  82.6325736  85.4209386
  75.4964941  81.5519947  85.9713300  79.5264048  87.8314907  81.6593469
  78.8972910  87.9960621  80.9569537  79.1389710  88.2456516  82.4304433
  83.4053279  88.7669345  79.0137833  82.7204318  89.1468246  78.4634866
  83.4897129  89.3764671  79.7469780  78.7065748  79.8690691  86.9355911
  78.4626680  80.6232752  86.3990186  78.9825679  80.2476039  87.7703158
  80.6604211  86.4129304  85.6133176  80.8721106  87.0561063  84.9367557
  80.6133959  85.5791620  85.1455106  78.2630440  79.0247124  82.5169748
  77.4014919  79.3228378  82.8086486  78.2892875  79.2417523  81.5850781
  75.0792009  87.5689315  78.9243554  75.5430355  87.8477018  78.1348176
  74.8148808  86.6672759  78.7416645  71.9716091  87.1160796  81.8623317
  72.5417448  87.5448065  81.2240802  72.5624202  86.8343381  82.5607503
  74.0160896  83.6912467  75.7333119  74.7184939  84.1433511  76.2007045
  73.6841524  83.0496286  76.3613012  72.4641257  82.2824224  90.1084329
  71.8339918  82.9640505  90.3419725  72.3577345  82.1707305  89.1637467
  67.7586229  81.9496020  81.0350253  66.9685283  82.2053548  80.5590363
  68.2497477  82.7644358  81.1402293  81.7750039  89.2901259  83.7855534
  82.5967483  88.8881446  83.5038215  81.7712442  89.1869493  84.7371649
  69.7100975  82.3140599  77.9933729  68.9132138  82.4259293  78.5117225
  69.4826567  82.6527251  77.1274620  75.5406642  88.8385302  85.9416244
  75.6051075  89.3005710  86.7774416  74.8317566  88.2082667  86.0698554
  66.0423932  82.2026510  83.4665243  66.2931971  83.0873520  83.7322819
  66.5783481  82.0231112  82.6940335  89.8656032  85.6340007  80.1340505
  89.1119740  85.0647406  79.9784509  90.0003573  85.6002672  81.0811140
  75.2554660  90.5053410  75.8095224  75.1200335  91.3504945  76.2380072
  75.7964473  90.7072687  75.0461158  71.7422000  76.5844990  92.4709580
  71.3488945  76.0311188  93.1457224  72.5588140  76.8955568  92.8616097
  68.7084058  88.0228848  76.3823149  69.2208578  88.8172098  76.5328714
  69.3606770  87.3255138  76.3156751  70.5178942  91.1394604  78.4645903
  70.6945571  92.0612569  78.2766886  71.3135776  90.8253023  78.8940282
  74.6589961  78.0002869  90.0629836  75.3999674  78.6010022  89.9834299
  74.8907884  77.2580506  89.5047879  69.8031299  83.1859236  88.3408066
  69.6884814  82.2844493  88.6415165  68.9475817  83.4322933  87.9892882
  76.8823137  91.1276976  89.9395566  76.4386991  90.3413355  89.6216471
  77.5440350  91.3156127  89.2739457  71.6410258  92.6572778  84.4656245
  72.1917683  92.5289841  83.6933239  70.8021734  92.9567667  84.1151138
  78.9804375  91.4079776  87.9676968  78.9622850  92.2288657  87.4757237
  79.9024295  91.2833851  88.1927109  75.4377429  88.9223906  88.8100476
  75.9705766  88.1612194  88.5799784  74.9091510  88.6297557  89.5524631
  78.6047124  74.0283972  84.3394118  78.2611393  74.9185613  84.2633228
  78.9726086  73.8385629  83.4763703  66.6732974  86.3517502  77.1582720
  67.5108196  86.7614510  76.9416428  66.8511242  85.4116944  77.1282914
  78.5697406  84.0192583  72.8466553  78.0544030  84.7897187  73.0854940
  78.2974715  83.3457719  73.4699614  76.1544517  78.8642284  77.9051791
  75.2986114  78.4749134  77.7257430  76.5671469  78.9434244  77.0451577
  77.6843664  76.3988627  82.3043351  77.1808460  76.3618762  81.4911156
  77.9774271  77.3081370  82.3640008  73.9286550  76.4827357  81.3109533
  74.7939547  76.2870165  80.9515422  73.9964059  76.2537708  82.2378890
  83.5431681  86.7724937  74.7819726  82.7661123  86.4336097  74.3374888
  84.2223162  86.7777561  74.1074691  78.3583710  81.8919675  74.6726334
  78.0533845  82.2065824  75.5236477  79.3114152  81.9701095  74.7153667
  76.8030141  88.0509898  76.3219288  76.2751503  87.3162658  76.0092526
  76.3017644  88.8284575  76.0759256  81.7822987  86.2458919  81.4386334
  81.1246662  86.9358180  81.5266463  82.5863387  86.6355351  81.7820321
  71.5348869  78.7129564  78.6825900  72.1092621  78.4904746  77.9499093
  72.1219851  78.7818259  79.4354501  80.5928446  84.6003291  79.4890276
  81.1060328  85.2333283  79.9911986  81.2429670  84.0004487  79.1233636
  71.8618456  80.7434025  72.7021785  71.0255768  81.0808712  73.0231060
  71.7223226  80.6083005  71.7648922  73.8371537  75.5870813  77.4100969
  73.1835949  75.2719831  76.7857584  73.7952011  74.9646554  78.1360792
  74.9482742  85.8690108  69.3254261  74.0409803  85.6379362  69.5245410
  75.4453774  85.0727728  69.5128243  77.8550821  94.5787616  72.2450947
  77.1812519  94.8819312  72.8535905  78.2416642  95.3816696  71.8956404
  77.0709277  82.0752747  81.7348617  76.1531838  82.2967694  81.5770305
  77.4869421  82.1499057  80.8760324  77.8544325  83.4744163  76.8651297
  78.6016144  83.9865560  76.5558419  78.1235914  83.1528215  77.7255690
  76.1270975  85.9702703  73.8478251  75.2182194  85.6861736  73.9450721
  76.1566059  86.3901782  72.9881558  81.3590242  89.5809293  77.6169419
  80.9052570  88.7400203  77.6734609  80.7284209  90.2170691  77.9544199
  80.3023162  80.5101279  78.8470086  79.5645919  79.9978665  79.1780329
  80.5549936  80.0701660  78.0353363  79.8023182  91.4185789  78.5519237
  80.0946156  91.9790847  77.8331603  80.3121802  91.7114350  79.3072396
  80.4034789  73.2877531  79.4411855  80.7093666  72.4274894  79.1537771
  81.1287394  73.8795151  79.2410849  66.6959145  83.6908217  77.8293453
  66.4983545  83.0977578  77.1044520  66.1405809  83.3860428  78.5469392
  74.6755869  83.5831324  79.9488047  74.7304479  82.6305160  79.8730523
  73.8647071  83.7390763  80.4329345  75.8247063  87.5111447  71.1866330
  75.3866493  86.7947306  70.7271967  76.5657504  87.7387562  70.6251421
  72.6148229  82.2008384  77.7078425  71.8016095  82.5002554  78.1143618
  73.1107223  81.8064072  78.4252908  74.7656807  92.1966141  79.6412690
  74.7232986  92.4226987  78.7121222  75.6819506  91.9629515  79.7898491
  78.2122441  82.6650208  86.5393319  78.5671828  82.8921681  87.3987785
  78.8594572  82.9968585  85.9170575  83.9420178  85.7868644  77.2442648
  83.8038076  85.9770240  76.3163838  83.5856396  86.5488027  77.7010699
  72.1062304  79.7726739  83.3239660  72.7461683  79.6315498  82.6262624
  71.2739834  79.4861253  82.9478262  83.9689557  87.8545171  82.2553920
  84.4026064  87.7620460  83.1036974  84.6821138  87.8302671  81.6173936
  72.8822608  89.0729170  79.4374653  73.6763206  88.5779490  79.2357228
  72.1714300  88.5447033  79.0742358  77.7017452  91.4547265  83.7887020
  77.7554474  92.0238201  84.5564736  76.8332234  91.6249150  83.4241058
  69.1905371  83.2172251  75.5134406  68.2602959  83.1556707  75.7304368
  69.2862843  82.6948204  74.7171047  69.1090920  79.7427064  78.1012647
  69.3697737  80.6572397  77.9921808  69.9308093  79.2751507  78.2509260
  70.5815846  81.1564821  85.2711472  71.2538899  80.9482183  84.6224121
  69.7545632  80.9586907  84.8316704  84.8305107  87.8968872  84.7886805
  85.0240997  88.8014682  85.0346080  84.7305725  87.4376291  85.6225390
  76.4841418  77.7826762  87.2877133  75.8369333  78.4816712  87.1941609
  77.2542433  78.2162906  87.6553381  76.6605552  85.6207527  85.3473952
  77.5897612  85.7718687  85.1742920  76.2396582  85.7091548  84.4922599
  75.4593884  89.6458192  83.1172490  75.3204969  89.2776976  83.9898428
  74.6708480  90.1605831  82.9456448  76.0542036  94.7467288  74.4598026
  76.2293791  94.2755331  75.2743649  75.3674824  95.3733054  74.6879287
  77.0099099  89.0239794  80.5061328  76.6748931  88.9840564  81.4018978
  76.5103045  88.3584510  80.0331738  70.9843343  84.4307424  86.0313909
  70.8463141  83.6987663  86.6325448  71.8948266  84.3416324  85.7498097
  79.9458290  86.3695829  70.7798387  79.3287461  85.6442657  70.6831440
  79.4774779  87.1305189  70.4365462  73.6125643  84.1427384  85.5197589
  74.3225262  83.5020576  85.4784207  73.5694952  84.3940278  86.4423769
  72.3254577  81.1292602  87.3393228  71.7891934  80.6783340  87.9914824
  71.7371286  81.2638510  86.5963692  70.6203121  97.8956651  81.2337887
  70.8599719  98.5275175  81.9116905  69.7772317  97.5444691  81.5203246
  71.7356836  80.5881253  69.9019692  70.8586303  80.4670054  69.5381938
  72.2114589  79.7967331  69.6498580  81.6029829  89.0434321  86.6718147
  80.7156608  88.7060243  86.7944546  82.1728380  88.3117352  86.9086913
  63.2558977  85.3758413  79.9961199  63.9430016  85.0620143  79.4082214
  63.1007105  86.2799777  79.7228450  68.0593699  80.2648609  84.4246222
  67.9751887  79.6574279  83.6896632  67.2376405  80.7557628  84.4255719
  75.1330983  93.7035773  83.6379391  75.0601154  94.5090745  84.1498695
  74.6908376  93.9027739  82.8127412  74.9220762  92.9407543  77.1482212
  74.1388284  93.4829223  77.2420437  75.6213508  93.4581523  77.5476453
  78.2317413  78.7502173  79.7916418  78.7286112  77.9972135  79.4717488
  77.4604394  78.7866489  79.2259627  86.0847170  84.4542538  81.4334709
  86.0737046  85.3367254  81.0628642  85.2164549  84.1014089  81.2389246
  77.5929666  93.6022607  85.7937549  78.3057639  94.2370072  85.7213451
  77.1019695  93.6986473  84.9777551  79.3147193  87.5073860  77.3654841
  78.3803472  87.6275322  77.1959545  79.4923862  86.6046327  77.1014851
  74.8152381  80.8919556  79.5188102  74.4450169  80.3390596  80.2069008
  75.3111474  80.2877689  78.9663102  82.7019745  83.3491179  77.9004875
  83.1680197  84.1819171  77.8265178  83.1527245  82.8836161  78.6050134
  72.6441580  91.3517051  86.6143120  73.3451039  91.9853534  86.7672514
  72.1736695  91.6931782  85.8538759  80.7695976  89.6935001  74.8991027
  81.0455820  89.5791595  75.8084901  79.9000474  89.2952485  74.8603200
  80.6736407  75.7171766  81.9395776  79.7599487  75.9475993  82.1077983
  81.1029509  75.8010210  82.7909809  80.4442866  83.9061658  84.4395670
  79.7914316  84.1537566  83.7848123  80.8223246  83.0925796  84.1058148
  77.4050040  93.9421351  78.5423841  77.5872434  93.1243007  79.0051593
  78.2283026  94.1589044  78.1048731  77.7392205  92.8689536  75.8038889
  78.2679972  92.3581991  75.1909051  78.0020425  92.5532067  76.6684422
  76.4930439  84.6481469  90.9261708  75.8171076  84.5475599  91.5964083
  77.3158073  84.4920683  91.3897705  68.2409298  90.8853406  83.5474223
  68.8262735  90.1397094  83.6802127  68.0434136  91.1957362  84.4310887
  71.0947953  93.9204653  78.5636665  70.4258328  94.4050781  78.0800705
  70.9560823  94.1673874  79.4780044  62.8326953  83.4559006  82.2678666
  62.8711052  82.9222597  83.0615784  62.3267245  82.9294212  81.6489643
  75.2353222  95.9548397  85.1619324  75.7871530  96.1180018  85.9268409
  75.5759415  96.5452835  84.4899348  70.2117715  78.3023547  85.7641208
  70.2759041  79.1638377  85.3518606  70.1484835  77.6897548  85.0313567
  69.6869987  80.3746679  89.4114242  70.3142026  79.9923756  90.0251767
  68.8297906  80.1560881  89.7769935  66.4635530  82.1823108  75.3432597
  66.7588971  81.2733787  75.2899651  65.5623566  82.1610848  75.0213600
  78.3721609  93.9030372  82.1483006  78.2472748  93.1020112  81.6393951
  79.0300700  94.3976566  81.6596976  69.9929777  80.2579105  81.3260146
  69.2716363  80.8715072  81.1867619  70.7823033  80.7936870  81.2476792
  80.4356517  91.7039392  83.7762556  79.4886853  91.5844743  83.7040882
  80.7839290  90.8161890  83.8588817  72.7956091  77.5933531  87.6000798
  73.3190493  77.8395828  88.3627107  72.5768424  78.4253566  87.1803935
  68.1923372  79.8637206  75.4671922  67.8636078  78.9834585  75.2847028
  68.5462743  79.8084875  76.3548312  77.4402951  91.4992109  79.9766908
  77.2927913  90.5708816  80.1574478  78.2656444  91.5212199  79.4923983
  71.3065195  80.1510176  75.8347400  71.6461267  80.6796097  75.1126008
  71.7537315  80.4890582  76.6105967  81.0437073  92.3220667  81.0631781
  81.9683620  92.1163529  80.9256232  80.8752376  92.0737068  81.9721122
  74.0008636  78.5347226  85.2850468  73.6605456  77.7355039  85.6871148
  73.2947642  78.8348937  84.7127301  74.6525108  75.6196539  83.7377791
  75.4751177  75.1457017  83.6156682  74.8963171  76.3987023  84.2376477
  73.2933342  78.6484797  74.0340693  74.0141705  79.0266050  73.5304410
  72.6698646  79.3673674  74.1375671  77.4364465  79.3529946  74.9699025
  77.6528079  80.2354584  74.6687853  76.9558532  78.9616160  74.2404667
  72.1763686  82.3115659  81.5469770  72.0308267  82.6255962  82.4394051
  71.6988890  82.9300560  80.9940668  74.0360069  79.3018207  81.5950659
  74.0221638  78.4059301  81.2582957  74.7532497  79.3088871  82.2288945
  75.8886200  79.7355548  83.6403787  75.6303978  80.6572618  83.6388117
  75.3571240  79.3385982  84.3304251  80.8332389  92.8406335  76.4193872
  81.0069266  92.2752757  75.6667725  81.3261280  93.6407230  76.2373362
  66.6509349  84.8521004  84.4857431  66.1062817  85.6280812  84.6177705
  67.5288698  85.1991808  84.3276552  73.4396965  78.1832588  76.8638230
  73.5612876  77.2549234  77.0629117  73.1499008  78.1971274  75.9516545
  76.3088156  75.8687498  80.0004949  76.3309852  75.9326831  79.0456929
  76.7256215  75.0292007  80.1945456  86.6871780  85.6042758  78.0384172
  87.1302926  84.8550083  77.6403295  85.8098290  85.5952894  77.6557904
  81.8207561  92.1573099  73.5190770  82.5158466  92.7779792  73.7378085
  82.1630711  91.3068450  73.7943148  67.4375370  83.9790900  87.3787588
  66.6957106  84.1273535  87.9652218  67.1168115  84.2399166  86.5154337
  83.7198984  89.6072805  75.0478101  84.2450308  89.9460077  74.3227421
  83.6321337  88.6719820  74.8641236  75.3819033  93.5206878  87.1767978
  75.6906159  93.2756025  88.0490677  76.1794515  93.7253517  86.6886848
  75.4039645  95.6744788  79.4073354  74.9644635  95.1821167  80.1006211
  76.1547762  95.1317756  79.1665430  67.8831984  91.8656329  79.4097982
  68.7090004  91.5660101  79.0296626  67.5326036  91.0963951  79.8587771
  72.8513517  91.2182797  81.4795656  72.2293527  90.5553502  81.1797884
  73.5218384  91.2443929  80.7969304  66.0840589  89.7842655  80.3686916
  65.2472497  89.3564830  80.1870917  66.0564235  89.9775099  81.3057707
  72.9238045  79.6964585  91.0728162  72.9726200  80.5726708  90.6905932
  73.4660559  79.1541978  90.4999805  83.5290765  87.0898175  87.6662028
  83.5788770  86.9248182  88.6077551  83.4204689  86.2225434  87.2759909
  72.4127024  89.7686720  74.9554117  72.5615145  90.4522185  74.3020789
  73.2193468  89.7491810  75.4703572  80.8194528  83.0729103  88.9821334
  81.7204391  82.9335568  88.6905332  80.8942502  83.2383558  89.9219512
  75.1537333  80.4495957  87.8274521  74.2840643  80.7429523  87.5557109
  75.3896814  81.0336402  88.5481784  86.2304645  87.0747996  80.4306620
  87.0651536  87.5137800  80.5944180  86.3663773  86.5986649  79.6114865
  83.2796151  84.6327731  86.3784107  83.7550272  84.8255377  85.5702959
  82.3561716  84.6886917  86.1327491  70.1679657  85.7951898  75.9615186
  69.9225699  84.8914228  76.1595396  70.3375572  85.7969048  75.0194664
  77.8576367  76.6675574  85.3439941  78.3758311  77.4036601  85.0186430
  77.5031500  76.9739568  86.1786700  69.4375305  81.5280256  73.4601347
  68.7444550  81.6024611  72.8041383  69.1927057  80.7640599  73.9822864
  78.1088961  73.0875857  80.8640838  78.3890715  72.4199046  81.4901264
  78.8939568  73.2804953  80.3515502  75.9122430  92.2634851  72.4265864
  75.3396397  92.8825038  71.9736336  76.4855223  92.8134212  72.9605786
  81.9797820  81.5093491  84.6112413  82.9315242  81.6091589  84.6324637
  81.8101270  80.7171759  85.1210497  80.0012199  78.5949074  84.7971814
  79.4062131  78.8754087  84.1018302  79.7161896  79.0842975  85.5688555
  79.1319689  92.5472001  73.5574446  80.0650363  92.4817563  73.7607322
  79.0442902  93.3828268  73.0988979  81.7607706  91.8637871  70.5178394
  81.6821338  91.5297735  71.4114152  82.5817373  92.3559639  70.5169866
  84.4585897  84.7299611  83.7254713  84.4262217  83.7915611  83.9114396
  85.0686521  84.8083647  82.9920537  76.2969228  83.5995664  69.7681917
  77.2428333  83.4701872  69.8370335  75.9183473  82.8610325  70.2451345
  84.6080386  81.5210654  83.7712996  84.0919434  80.7369111  83.5842925
  85.4920334  81.1929371  83.9359515  82.2691113  75.2651670  79.7308808
  82.0715934  74.9566758  80.6152140  82.8790818  75.9913308  79.8606738
  90.2762447  85.7915617  82.8660749  91.0065836  85.5300906  83.4268453
  89.6669393  85.0544339  82.9062817  88.3577744  83.9323480  83.4635201
  87.6310908  83.7979445  82.8551692  87.9425031  84.2400309  84.2691919
  76.1807921  87.6513410  91.2282574  77.1010930  87.8292009  91.4222620
  76.1457504  86.7069455  91.0762273  74.4812145  81.5245640  69.7036802
  73.5743601  81.2278753  69.7799515  74.7588126  81.2275458  68.8371088
  65.3990086  82.8452003  80.1535848  65.0792870  81.9917312  79.8610222
  64.8523514  83.0600581  80.9093816  69.1769993  85.5614444  83.8705355
  69.3956003  86.4931552  83.8893389  69.5895767  85.2022419  84.6560159
  76.0974211  76.0682530  75.8581043  75.2874939  75.7229615  76.2336289
  76.7858628  75.7590073  76.4468655  78.0264759  75.1460576  77.4805340
  78.5795798  75.5656030  78.1395363  78.2634846  74.2196325  77.5228296
  74.0497859  81.1347650  93.2608104  73.9494585  82.0842007  93.1920195
  73.8319401  80.8065889  92.3884174  73.2510930  78.3832575  69.8448781
  74.1130094  78.7087473  70.1044598  73.4361274  77.5964071  69.3321847
  65.2678346  86.4654915  82.1228970  64.5741817  86.0508868  81.6098924
  66.0151337  86.5075451  81.5262389  81.4043566  77.2561102  76.9884004
  80.8242235  77.9145906  76.6062056  81.1379499  76.4338446  76.5771421
  79.8547133  76.6566159  79.1905324  80.3546911  76.7682694  78.3819643
  80.4982741  76.3527212  79.8306133  73.9129129  84.5644789  92.0773165
  73.4296210  85.3645149  92.2837054  73.9990068  84.5752734  91.1240609
  67.1815088  86.3973169  79.9994985  67.1585776  86.4960856  79.0476868
  67.4915725  87.2438319  80.3212151  69.8402466  88.4549324  84.1141599
  70.7945720  88.4233266  84.0471531  69.6414990  87.9939947  84.9291825
  70.4301848  87.0250440  86.6812397  71.2494737  87.5194518  86.7047234
  70.7038656  86.1082408  86.6529964  80.1868444  79.4161192  76.0440352
  79.2994299  79.7010843  75.8260547  80.6022434  79.2554955  75.1967629
  83.5382981  79.4407713  79.7594691  84.3143371  79.9304165  80.0319308
  82.8131115  79.8665767  80.2166561  85.9755539  80.1535332  80.8168632
  86.5700030  79.9131068  80.1061940  86.0482123  79.4342463  81.4442168
  68.1952695  93.9968943  81.1311797  68.0607163  93.2369344  80.5649795
  67.7784757  94.7209843  80.6640586  79.3311658  89.1805867  70.1388372
  80.0347508  89.3855869  70.7546028  78.6074307  89.7482629  70.4037456
  80.1609468  84.9315728  76.2590642  80.1044670  85.3884279  75.4198275
  80.7137811  84.1706413  76.0813485  83.9714274  80.7205460  77.0840762
  83.7151208  80.3202095  77.9148970  83.3467142  81.4349254  76.9590901
  88.2826612  83.4601533  79.5912053  87.7226170  83.5294722  80.3643615
  87.6770115  83.2842518  78.8711550  71.3521821  94.8938260  81.3430240
  71.2354205  95.8383693  81.2408930  70.5314267  94.5911822  81.7316039
  81.2398355  89.6188396  72.1886832  82.0743959  89.1869594  72.0064307
  81.0782698  89.4470410  73.1163727  80.8944248  86.1220509  73.5543172
  80.8393051  85.9564781  72.6131616  80.2690303  86.8296542  73.7105361
  65.6836762  81.3588574  87.3804594  66.3295626  80.8487528  87.8691819
  65.4753914  82.0957255  87.9548019  74.2040373  75.6228618  73.1328490
  74.1919043  76.5670458  73.2896761  75.0963795  75.4398764  72.8387951
  72.3776335  95.5466522  84.5586168  73.2803582  95.5790132  84.8752663
  72.1513705  94.6166973  84.5732504  74.1329937  94.2997509  81.2196247
  73.1825568  94.2999370  81.1060619  74.4362423  93.5530243  80.7032281
  78.0192492  72.2171395  77.3874427  77.2524888  71.6629882  77.5331109
  78.4303197  72.2893264  78.2488578  70.0234253  78.5056191  91.4779608
  70.8865715  78.1492995  91.6882933  69.4499664  78.1670085  92.1655012
  82.5359152 101.9420951  78.2100425  81.9724018 101.8510888  77.4416712
  82.4211547 101.1220856  78.6902917  88.1158711 105.6091919  73.5214890
  87.4646691 106.1946000  73.1348903  88.9103074 106.1398114  73.5809927
  82.0414338 102.6981056  73.9202024  82.8145214 102.1510043  73.7814900
  82.3939737 103.5625306  74.1316485  84.3780616  98.8573722  71.5520474
  84.6306137  98.3355244  70.7903937  83.4405175  98.6939868  71.6547157
  89.4223899  97.8609501  79.3595217  90.2086988  97.4428924  79.0085634
  89.6862603  98.7655593  79.5276865  89.5933976 103.2982351  74.0583874
  88.9579809 103.3716978  74.7704779  89.2631383 103.8875950  73.3802953
  84.0976905 100.7601828  73.7544849  83.9813163 100.0846732  74.4225933
  84.2079165 100.2734202  72.9377002  86.4408446 100.2211976  77.4591538
  86.0766653  99.6942596  78.1704459  87.2975562  99.8310445  77.2858023
  86.0813933  95.2501875  72.4552887  86.2488335  96.1182112  72.8223358
  85.8911102  95.4129157  71.5314176  82.2901747 100.1632651  80.1555421
  81.3652244 100.0308865  80.3633113  82.5386161 100.9426870  80.6525364
  86.0603154  97.7059533  73.4399553  85.9402779  98.1516583  74.2785034
  85.3655742  98.0544850  72.8813092  79.6510558  99.8065925  80.9899210
  79.7802940 100.0600403  81.9038622  78.9708010 100.3993633  80.6703865
  91.7588220  98.1781006  74.2679887  92.6706076  98.4108393  74.0927585
  91.2497867  98.7618050  73.7054966  89.1024195  94.3539042  82.5169748
  88.2408674  94.6520295  82.8086486  89.1286629  94.5709441  81.5850781
  85.9185764 102.8981232  78.9243554  86.3824109 103.1768935  78.1348176
  85.6542562 101.9964677  78.7416645  84.8554650  99.0204385  75.7333119
  85.5578693  99.4725428  76.2007045  84.5235278  98.3788204  76.3613012
  78.5979984  97.2787937  81.0350253  77.8079038  97.5345466  80.5590363
  79.0891231  98.0936275  81.1402293  80.5494729  97.6432517  77.9933729
  79.7525893  97.7551211  78.5117225  80.3220322  97.9819169  77.1274620
  76.8817687  97.5318428  83.4665243  77.1325725  98.4165438  83.7322819
  77.4177235  97.3523029  82.6940335  86.0948415 105.8345327  75.8095224
  85.9594089 106.6796863  76.2380072  86.6358227 106.0364605  75.0461158
  79.5477812 103.3520765  76.3823149  80.0602333 104.1464016  76.5328714
  80.2000525 102.6547056  76.3156751  81.3572697 106.4686522  78.4645903
  81.5339325 107.3904486  78.2766886  82.1529530 106.1544941  78.8940282
  89.4440878  89.3575889  84.3394118  89.1005148  90.2477531  84.2633228
  89.8119841  89.1677547  83.4763703  77.5126729 101.6809420  77.1582720
  78.3501951 102.0906428  76.9416428  77.6904996 100.7408862  77.1282914
  89.4091161  99.3484500  72.8466553  88.8937784 100.1189105  73.0854940
  89.1368469  98.6749637  73.4699614  86.9938272  94.1934201  77.9051791
  86.1379868  93.8041052  77.7257430  87.4065224  94.2726162  77.0451577
  88.5237419  91.7280544  82.3043351  88.0202214  91.6910680  81.4911156
  88.8168025  92.6373287  82.3640008  84.7680304  91.8119274  81.3109533
  85.6333301  91.6162083  80.9515422  84.8357813  91.5829626  82.2378890
  89.1977464  97.2211593  74.6726334  88.8927600  97.5357742  75.5236477
  90.1507906  97.2993012  74.7153667  87.6423896 103.3801816  76.3219288
  87.1145258 102.6454575  76.0092526  87.1411399 104.1576492  76.0759256
  82.3742624  94.0421482  78.6825900  82.9486375  93.8196664  77.9499093
  82.9613606  94.1110177  79.4354501  82.7012211  96.0725943  72.7021785
  81.8649523  96.4100630  73.0231060  82.5616980  95.9374923  71.7648922
  84.6765291  90.9162731  77.4100969  84.0229704  90.6011748  76.7857584
  84.6345765  90.2938471  78.1360792  85.7876496 101.1982026  69.3254261
  84.8803558 100.9671280  69.5245410  86.2847528 100.4019645  69.5128243
  87.9103032  97.4044665  81.7348617  86.9925593  97.6259612  81.5770305
  88.3263175  97.4790975  80.8760324  88.6938079  98.8036080  76.8651297
  89.4409898  99.3157477  76.5558419  88.9629669  98.4820133  77.7255690
  86.9664730 101.2994621  73.8478251  86.0575949 101.0153654  73.9450721
  86.9959813 101.7193700  72.9881558  91.1416917  95.8393197  78.8470086
  90.4039673  95.3270583  79.1780329  91.3943690  95.3993578  78.0353363
  91.2428544  88.6169449  79.4411855  91.5487421  87.7566812  79.1537771
  91.9681149  89.2087069  79.2410849  77.5352900  99.0200135  77.8293453
  77.3377300  98.4269496  77.1044520  76.9799564  98.7152345  78.5469392
  85.5149624  98.9123242  79.9488047  85.5698233  97.9597078  79.8730523
  84.7040826  99.0682681  80.4329345  86.6640817 102.8403365  71.1866330
  86.2260247 102.1239224  70.7271967  87.4051258 103.0679479  70.6251421
  83.4541984  97.5300301  77.7078425  82.6409849  97.8294472  78.1143618
  83.9500978  97.1355990  78.4252908  82.9456058  95.1018657  83.3239660
  83.5855438  94.9607416  82.6262624  82.1133589  94.8153170  82.9478262
  83.7216362 104.4021087  79.4374653  84.5156961 103.9071407  79.2357228
  83.0108055 103.8738950  79.0742358  80.0299126  98.5464169  75.5134406
  79.0996714  98.4848624  75.7304368  80.1256598  98.0240122  74.7171047
  79.9484675  95.0718982  78.1012647  80.2091492  95.9864315  77.9921808
  80.7701847  94.6043424  78.2509260  90.7852045 101.6987746  70.7798387
  90.1681216 100.9734574  70.6831440  90.3168533 102.4597107  70.4365462
  82.5750591  95.9173171  69.9019692  81.6980057  95.7961971  69.5381938
  83.0508344  95.1259249  69.6498580  74.0952731 100.7050330  79.9961199
  74.7823771 100.3912060  79.4082214  73.9400860 101.6091695  79.7228450
  78.8987453  95.5940527  84.4246222  78.8145642  94.9866196  83.6896632
  78.0770160  96.0849545  84.4255719  89.0711167  94.0794090  79.7916418
  89.5679867  93.3264053  79.4717488  88.2998149  94.1158407  79.2259627
  90.1540948 102.8365778  77.3654841  89.2197226 102.9567240  77.1959545
  90.3317616 101.9338244  77.1014851  85.6546136  96.2211473  79.5188102
  85.2843923  95.6682514  80.2069008  86.1505228  95.6169607  78.9663102
  93.5413499  98.6783097  77.9004875  94.0073951  99.5111089  77.8265178
  93.9921000  98.2128078  78.6050134  91.5130162  91.0463684  81.9395776
  90.5993242  91.2767911  82.1077983  91.9423263  91.1302128  82.7909809
  73.6720707  98.7850924  82.2678666  73.7104807  98.2514514  83.0615784
  73.1661000  98.2586129  81.6489643  81.0511469  93.6315464  85.7641208
  81.1152796  94.4930295  85.3518606  80.9878590  93.0189466  85.0313567
  77.3029285  97.5115026  75.3432597  77.5982726  96.6025704  75.2899651
  76.4017320  97.4902765  75.0213600  80.8323532  95.5871022  81.3260146
  80.1110117  96.2006990  81.1867619  81.6216787  96.1228787  81.2476792
  79.0317126  95.1929123  75.4671922  78.7029832  94.3126502  75.2847028
  79.3856497  95.1376792  76.3548312  82.1458949  95.4802093  75.8347400
  82.4855022  96.0088015  75.1126008  82.5931070  95.8182499  76.6105967
  85.4918862  90.9488456  83.7377791  86.3144931  90.4748935  83.6156682
  85.7356926  91.7278940  84.2376477  84.1327097  93.9776715  74.0340693
  84.8535459  94.3557968  73.5304410  83.5092401  94.6965592  74.1375671
  88.2758219  94.6821864  74.9699025  88.4921834  95.5646502  74.6687853
  87.7952287  94.2908077  74.2404667  83.0157441  97.6407577  81.5469770
  82.8702022  97.9547880  82.4394051  82.5382644  98.2592477  80.9940668
  84.8753824  94.6310125  81.5950659  84.8615393  93.7351218  81.2582957
  85.5926252  94.6380789  82.2288945  84.2790720  93.5124505  76.8638230
  84.4006631  92.5841152  77.0629117  83.9892762  93.5263191  75.9516545
  87.1481910  91.1979416  80.0004949  87.1703607  91.2618749  79.0456929
  87.5649969  90.3583924  80.1945456  78.7225739 107.1948246  79.4097982
  79.5483758 106.8952018  79.0296626  78.3719791 106.4255869  79.8587771
  76.9234344 105.1134573  80.3686916  76.0866252 104.6856747  80.1870917
  76.8957989 105.3067016  81.3057707  83.2520779 105.0978638  74.9554117
  83.4008899 105.7814102  74.3020789  84.0587222 105.0783728  75.4703572
  81.0073412 101.1243816  75.9615186  80.7619454 100.2206146  76.1595396
  81.1769326 101.1260966  75.0194664  80.2769059  96.8572173  73.4601347
  79.5838304  96.9316528  72.8041383  80.0320811  96.0932517  73.9822864
  88.9482716  88.4167775  80.8640838  89.2284469  87.7490964  81.4901264
  89.7333323  88.6096870  80.3515502  87.1362983  98.9287581  69.7681917
  88.0822087  98.7993789  69.8370335  86.7577228  98.1902243  70.2451345
  93.1084867  90.5943587  79.7308808  92.9109688  90.2858675  80.6152140
  93.7184573  91.3205226  79.8606738  85.3205900  96.8537558  69.7036802
  84.4137355  96.5570670  69.7799515  85.5981881  96.5567376  68.8371088
  76.2383840  98.1743921  80.1535848  75.9186625  97.3209229  79.8610222
  75.6917268  98.3892499  80.9093816  86.9367966  91.3974447  75.8581043
  86.1268694  91.0521532  76.2336289  87.6252382  91.0881991  76.4468655
  88.8658514  90.4752494  77.4805340  89.4189552  90.8947948  78.1395363
  89.1028600  89.5488242  77.5228296  84.0904684  93.7124493  69.8448781
  84.9523848  94.0379391  70.1044598  84.2755029  92.9255989  69.3321847
  76.1072100 101.7946833  82.1228970  75.4135572 101.3800785  81.6098924
  76.8545091 101.8367369  81.5262389  92.2437321  92.5853019  76.9884004
  91.6635990  93.2437823  76.6062056  91.9773254  91.7630364  76.5771421
  90.6940887  91.9858077  79.1905324  91.1940666  92.0974612  78.3819643
  91.3376495  91.6819130  79.8306133  78.0208843 101.7265086  79.9994985
  77.9979531 101.8252774  79.0476868  78.3309479 102.5730237  80.3212151
  91.0262199  94.7453110  76.0440352  90.1388054  95.0302760  75.8260547
  91.4416188  94.5846873  75.1967629  94.3776735  94.7699631  79.7594691
  95.1537125  95.2596083  80.0319308  93.6524869  95.1957685  80.2166561
  90.1705412 104.5097784  70.1388372  90.8741263 104.7147787  70.7546028
  89.4468061 105.0774546  70.4037456  91.0003223 100.2607646  76.2590642
  90.9438424 100.7176197  75.4198275  91.5531565  99.4998330  76.0813485
  94.8108029  96.0497377  77.0840762  94.5544963  95.6494013  77.9148970
  94.1860897  96.7641171  76.9590901  91.7338002 101.4512427  73.5543172
  91.6786806 101.2856698  72.6131616  91.1084057 102.1588460  73.7105361
  85.0434127  90.9520536  73.1328490  85.0312797  91.8962376  73.2896761
  85.9357549  90.7690681  72.8387951  88.8586247  87.5463312  77.3874427
  88.0918643  86.9921799  77.5331109  89.2696952  87.6185181  78.2488578
  35.6713859   0.4960581  69.0087316  36.3092269   0.3767329  68.3050656
  35.5534702   1.4441425  69.0675268  32.4803565   0.4488009  68.9448840
  32.1422077   0.3329074  68.0569375  33.3493334   0.0479174  68.9249846
  28.3390381   2.3023486  64.9345731  27.7755246   2.2113423  64.1662019
  28.2242776   1.4823390  65.4148224  32.9623348   1.6022861  74.9035046
  32.9511989   1.2075659  74.0315550  33.1243988   0.8688934  75.4968817
  25.8854813   3.7974677  67.7729952  26.6776105   3.4565502  67.3576251
  26.1251463   3.9069652  68.6932105  33.9189940   5.9694453  60.2460196
  33.2677920   6.5548534  59.8594210  34.7134303   6.5000648  60.3055234
  27.8445567   3.0583591  60.6447331  28.6176443   2.5112578  60.5060206
  28.1970966   3.9227840  60.8561792  29.6830610   4.3859973  73.8514230
  29.3920476   5.2905604  73.7360896  30.3187594   4.4276500  74.5658299
  30.6086816   1.7636821  70.4415590  31.2050389   1.5392844  69.7272552
  30.6661788   1.0221567  71.0441037  30.1811845  -0.7823743  58.2765780
  30.4337366  -1.3042222  57.5149243  29.2436404  -0.9457598  58.3792464
  35.2255128  -1.7787965  66.0840524  36.0118217  -2.1968542  65.7330941
  35.4893832  -0.8741873  66.2522172  35.3965205   3.6584885  60.7829181
  34.7611038   3.7319512  61.4950085  35.0662611   4.2478484  60.1048260
  40.6263555  -1.8412732  66.9873502  41.3588727  -2.4113515  67.2211332
  39.8702911  -2.2291131  67.4280008  29.9008134   1.1204363  60.4790155
  29.7844392   0.4449266  61.1471240  30.0110394   0.6336737  59.6622308
  32.2439675   0.5814510  64.1836845  31.8797882   0.0545131  64.8949766
  33.1006790   0.1912979  64.0103330  38.1488975  -8.1291158  71.4468111
  37.8172300  -7.2595747  71.2229326  37.5534589  -8.4454874  72.1262141
  31.8845162  -4.3895591  59.1798193  32.0519564  -3.5215354  59.5468664
  31.6942331  -4.2268309  58.2559482  34.6420495   4.0721388  70.8464024
  34.3421218   4.9746427  70.7379831  34.2971554   3.8053572  71.6985176
  28.0932976   0.5235185  66.8800728  27.1683473   0.3911399  67.0878420
  28.3417389   1.3029404  67.3770670  38.0417639  -3.4096071  68.5261461
  37.1334516  -3.4780663  68.2320222  37.9905234  -2.9324127  69.3543286
  31.8634382  -1.9337933  60.1644860  31.7434008  -1.4880882  61.0030340
  31.1686971  -1.5852615  59.6058398  25.4541787   0.1668459  67.7144517
  25.5834168   0.4202938  68.6283929  24.7739239   0.7596167  67.3949172
  29.6241275  10.8365709  63.8134991  29.5465304  11.7873534  63.8923472
  29.0202918  10.4911581  64.4709918  32.1158504  -1.9906426  76.4696358
  31.3391838  -1.4312506  76.4599223  32.7549067  -1.5049643  76.9911228
  39.9079285  -5.2079633  70.3039335  39.2653665  -4.9147100  69.6579129
  39.4034213  -5.3226713  71.1092531  37.5619449  -1.4616460  60.9925194
  38.4737305  -1.2289073  60.8172892  37.0529096  -0.8779416  60.4300273
  30.3704877   0.8179027  76.0314325  31.1119561   1.3564071  75.7549149
  29.6641862   1.4445316  76.1885877  35.8460216   2.9608168  74.6286487
  36.2543572   2.5190578  73.8841119  35.1237478   2.3860795  74.8820680
  32.1991286  -2.1019225  72.0020044  33.0452481  -1.6779812  72.1454693
  32.1389924  -2.7585601  72.6958607  36.1689031   3.5209359  68.3838776
  35.5397893   3.6855073  67.6814843  35.7814693   3.9350968  69.1549740
  40.0478263   4.4563796  65.7383139  39.3629301   4.8362698  65.1880173
  40.1322112   5.0659123  66.4715087  35.3490732  -4.4414857  73.6601217
  35.1051663  -3.6872796  73.1235493  35.6250662  -4.0629509  74.4948464
  37.3029194   2.1023755  72.3378483  37.5146090   2.7455515  71.6612864
  37.2558943   1.2686072  71.8700413  34.9055423  -5.2858424  69.2415055
  34.0439902  -4.9877170  69.5331793  34.9317858  -5.0688025  68.3096088
  31.7216993   3.2583767  65.6488861  32.1855338   3.5371470  64.8593483
  31.4573791   2.3567211  65.4661951  28.6141074   2.8055248  68.5868624
  29.1842431   3.2342517  67.9486108  29.2049186   2.5237833  69.2852810
  30.6585879  -0.6193081  62.4578426  31.3609922  -0.1672037  62.9252352
  30.3266507  -1.2609262  63.0858319  29.1066240  -2.0281324  76.8329635
  28.4764901  -1.3465043  77.0665032  29.0002328  -2.1398243  75.8882773
  38.4175022   4.9795711  70.5100840  39.2392466   4.5775898  70.2283522
  38.4137425   4.8763945  71.4616956  32.1831626   4.5279754  72.6661551
  32.2476058   4.9900161  73.5019722  31.4742550   3.8977119  72.7943860
  46.5081015   1.3234459  66.8585812  45.7544724   0.7541857  66.7029816
  46.6428557   1.2897124  67.8056446  31.8979643   6.1947862  62.5340531
  31.7625318   7.0399397  62.9625379  32.4389456   6.3967139  61.7706465
  25.3509041   3.7123300  63.1068456  25.8633561   4.5066550  63.2574021
  26.0031754   3.0149590  63.0402058  27.1603926   6.8289056  65.1891209
  27.3370554   7.7507021  65.0012193  27.9560759   6.5147475  65.6185589
  26.4456282  -1.1246312  75.0653372  26.3309797  -2.0261055  75.3660471
  25.5900800  -0.8782615  74.7138189  33.5248120   6.8171428  76.6640873
  33.0811974   6.0307807  76.3461778  34.1865333   7.0050579  75.9984764
  28.2835241   8.3467230  71.1901552  28.8342666   8.2184293  70.4178546
  27.4446717   8.6462119  70.8396444  35.6229358   7.0974228  74.6922274
  35.6047833   7.9183109  74.2002543  36.5449278   6.9728303  74.9172415
  32.0802412   4.6118358  75.5345783  32.6130749   3.8506646  75.3045091
  31.5516493   4.3192009  76.2769937  23.3157958   2.0411954  63.8828027
  24.1533180   2.4508962  63.6661734  23.4936225   1.1011396  63.8528220
  35.2122390  -0.2912965  59.5711860  34.6969013   0.4791639  59.8100247
  34.9399698  -0.9647829  60.1944921  32.7969501  -5.4463265  64.6297098
  31.9411097  -5.8356414  64.4502737  33.2096453  -5.3671304  63.7696883
  40.1856664   2.4619389  61.5065033  39.4086107   2.1230549  61.0620195
  40.8648145   2.4672012  60.8319998  35.0008693  -2.4185873  61.3971641
  34.6958828  -2.1039724  62.2481784  35.9539135  -2.3404453  61.4398974
  33.4455125   3.7404350  63.0464595  32.9176486   3.0057110  62.7337832
  32.9442627   4.5179026  62.8004563  38.4247971   1.9353371  68.1631641
  37.7671645   2.6252632  68.2511770  39.2288370   2.3249802  68.5065627
  37.2353430   0.2897743  66.2135583  37.7485311   0.9227735  66.7157292
  37.8854653  -0.3101061  65.8478943  31.5907725   1.5584560  56.0499568
  30.6834787   1.3273814  56.2490717  32.0878757   0.7622180  56.2373549
  34.4975804  10.2682068  58.9696254  33.8237503  10.5713764  59.5781212
  34.8841626  11.0711148  58.6201711  33.7134260  -2.2352801  68.4593923
  32.7956822  -2.0137854  68.3015611  34.1294404  -2.1606491  67.6005631
  34.4969308  -0.8361386  63.5896604  35.2441127  -0.3239988  63.2803726
  34.7660898  -1.1577333  64.4500997  32.7695958   1.6597155  60.5723558
  31.8607178   1.3756188  60.6696028  32.7991042   2.0796234  59.7126865
  38.0015226   5.2703745  64.3414725  37.5477553   4.4294655  64.3979916
  37.3709192   5.9065143  64.6789506  36.9448145  -3.8004269  65.5715393
  36.2070902  -4.3126883  65.9025635  37.1974919  -4.2403888  64.7598670
  36.4448165   7.1080241  65.2764544  36.7371139   7.6685298  64.5576909
  36.9546786   7.4008802  66.0317703  31.3180852  -0.7274224  66.6733353
  31.3729462  -1.6800388  66.5975830  30.5072054  -0.5714785  67.1574652
  32.4672046   3.2005899  57.9111636  32.0291476   2.4841758  57.4517274
  33.2082487   3.4282014  57.3496728  29.2573212  -2.1097164  64.4323732
  28.4441078  -1.8102994  64.8388924  29.7532207  -2.5041476  65.1498214
  31.4081790   7.8860592  66.3657997  31.3657969   8.1121439  65.4366529
  32.3244489   7.6523967  66.5143798  34.8547424  -1.6455340  73.2638626
  35.2096812  -1.4183867  74.1233092  35.5019555  -1.3136963  72.6415881
  40.5845161   1.4763096  63.9687955  40.4463060   1.6664692  63.0409144
  40.2281380   2.2382479  64.4256006  40.6114541   3.5439623  68.9799226
  41.0451047   3.4514912  69.8282281  41.3246121   3.5197123  68.3419242
  29.5247591   4.7623621  66.1619959  30.3188189   4.2673942  65.9602534
  28.8139283   4.2341485  65.7987665  34.3442435   7.1441717  70.5132327
  34.3979458   7.7132653  71.2810043  33.4757217   7.3143602  70.1486364
  41.4730090   3.5863324  71.5132112  41.6665980   4.4909134  71.7591387
  41.3730708   3.1270743  72.3470697  33.1266401  -6.5278786  74.0122439
  32.4794316  -5.8288836  73.9186916  33.8967416  -6.0942642  74.3798687
  36.5345199   3.7370066  77.0872992  36.3830705   3.5080618  76.1703076
  36.5249878   4.6940668  77.1004338  33.3030535   1.3101979  72.0719259
  34.2322595   1.4613139  71.8988226  32.8821565   1.3986000  71.2167905
  32.1018867   5.3352643  69.8417797  31.9629953   4.9671428  70.7143735
  31.3133463   5.8500283  69.6701754  32.6967019  10.4361740  61.1843333
  32.8718775   9.9649783  61.9988956  32.0099807  11.0627506  61.4124594
  33.6524082   4.7134246  67.2306634  33.3173915   4.6735016  68.1264284
  33.1528028   4.0478962  66.7577045  27.6268326   0.1201876  72.7559216
  27.4888124  -0.6117885  73.3570755  28.5373250   0.0310776  72.4743403
  36.5883274   2.0590280  57.5043694  35.9712444   1.3337109  57.4076747
  36.1199762   2.8199641  57.1610768  30.2550627  -0.1678164  72.2442895
  30.9650245  -0.8084972  72.2029514  30.2119935   0.0834730  73.1669076
  38.2437405   6.7689189  75.1649474  38.1849952   6.0848409  74.4980057
  38.6456924   7.5108179  74.7130100  28.9679561  -3.1812947  74.0638535
  28.4316918  -3.6322208  74.7160131  28.3796269  -3.0467038  73.3208999
  27.2628104  13.5851103  67.9583193  27.5024702  14.2169627  68.6362212
  26.4197301  13.2339143  68.2448553  38.2454813   4.7328773  73.3963454
  37.3581591   4.3954695  73.5189853  38.8153364   4.0011804  73.6332219
  31.7755966   9.3930225  70.3624697  31.7026138  10.1985197  70.8744002
  31.3333359   9.5922191  69.5372719  31.5645746   8.6301995  63.8727519
  30.7813268   9.1723675  63.9665743  32.2638491   9.1475975  64.2721760
  34.8742396  -5.5603375  66.5161724  35.3711095  -6.3133413  66.1962794
  34.1029377  -5.5239059  65.9504933  42.7272153   0.1436990  68.1580016
  42.7162029   1.0261706  67.7873949  41.8589533  -0.2091459  67.9634553
  34.2354650   9.2917059  72.5182856  34.9482622   9.9264524  72.4458757
  33.7444678   9.3880925  71.7022858  35.9572177   3.1968312  64.0900148
  35.0228455   3.3169774  63.9204852  36.1348845   2.2940779  63.8260157
  31.4577365  -3.4185992  66.2433409  31.0875152  -3.9714952  66.9314314
  31.9536457  -4.0227859  65.6908409  39.3444728  -0.9614369  64.6250182
  39.8105180  -0.1286377  64.5510484  39.7952228  -1.4269387  65.3295440
  29.2866563   7.0411503  73.3388427  29.9876023   7.6747986  73.4917821
  28.8161678   7.3826234  72.5784066  37.4120959   5.3829452  61.6236334
  37.6880803   5.2686047  62.5330208  36.5425458   4.9846937  61.5848507
  37.3161391  -8.5933782  68.6641083  36.4024470  -8.3629555  68.8323290
  37.7454492  -8.5095338  69.5155115  37.0867849  -0.4043890  71.1640977
  36.4339299  -0.1567982  70.5093430  37.4648229  -1.2179752  70.8303454
  34.0475023   9.6315803  65.2669147  34.2297418   8.8137459  65.7296900
  34.8708009   9.8483496  64.8294037  34.3817188   8.5583988  62.5284196
  34.9104955   8.0476443  61.9154358  34.6445408   8.2426519  63.3929729
  33.1355422   0.3375921  77.6507014  32.4596059   0.2370050  78.3209389
  33.9583056   0.1815135  78.1143011  24.8834281   6.5747858  70.2719529
  25.4687718   5.8291546  70.4047434  24.6859120   6.8851814  71.1556193
  27.7372936   9.6099105  65.2881972  27.0683312  10.0945233  64.8046012
  27.5985806   9.8568326  66.2025350  31.8778205  11.6442849  71.8864630
  32.4296513  11.8074470  72.6513715  32.2184398  12.2347286  71.2144655
  36.7289079   6.4704106  77.7413285  37.2728983   7.0834064  77.2468239
  36.1475924   7.0283685  78.2580298  35.0146592   9.5924824  68.8728312
  34.8897732   8.7914564  68.3639258  35.6725683  10.0871017  68.3842282
  37.0781501   7.3933844  70.5007862  36.1311836   7.2739195  70.4286189
  37.4264274   6.5056342  70.5834124  34.0827934   7.1886560  66.7012215
  33.9352896   6.2603268  66.8819785  34.9081427   7.2106651  66.2169290
  37.6862056   8.0115119  67.7877087  38.6108603   7.8057980  67.6501539
  37.5177359   7.7631520  68.6966429  34.0789448  -4.9575602  61.6944332
  34.2953063  -4.0750964  61.3933160  33.5983515  -5.3489389  60.9649974
  28.8188670  -1.9989889  68.2715076  28.6733250  -1.6849586  69.1639358
  28.3413873  -1.3804988  67.7185975  32.5311183  -4.5750001  70.3649093
  32.2728961  -3.6532930  70.3633424  31.9996224  -4.9719566  71.0549558
  37.4757372   8.5300787  63.1439179  37.6494250   7.9647209  62.3913031
  37.9686263   9.3301681  62.9618669  23.2934332   0.5415456  71.2102738
  22.7487800   1.3175264  71.3423012  24.1713682   0.8886260  71.0521859
  43.3296763   1.2937210  64.7629479  43.7727909   0.5444535  64.3648602
  42.4523273   1.2847346  64.3803211  38.4632545   7.8467551  60.2436077
  39.1583449   8.4674244  60.4623392  38.8055695   6.9962902  60.5188455
  40.3623968   5.2967257  61.7723408  40.8875292   5.6354529  61.0472728
  40.2746320   4.3614272  61.5886543  32.0244016   9.2101330  73.9013285
  32.3331143   8.9650477  74.7735984  32.8219498   9.4147969  73.4132155
  32.0464628  11.3639240  66.1318661  31.6069619  10.8715619  66.8251518
  32.7972745  10.8212207  65.8910736  24.5256967   7.5550781  66.1343289
  25.3514987   7.2554553  65.7541933  24.1751019   6.7858403  66.5833078
  29.4938501   6.9077249  68.2040963  28.8718510   6.2447954  67.9043191
  30.1643367   6.9338381  67.5214611  22.7265572   5.4737107  67.0932223
  21.8897481   5.0459281  66.9116224  22.6989218   5.6669550  68.0303014
  40.0517874   5.9300160  77.0774606  39.2613417   5.9124299  76.5379105
  39.8151228   6.4688454  77.8323642  40.1715749   2.7792627  74.3907334
  40.2213754   2.6142634  75.3322857  40.0629672   1.9119886  74.0005215
  29.0552007   5.4581172  61.6799423  29.2040128   6.1416637  61.0266096
  29.8618451   5.4386262  62.1948879  37.4619511  -1.2376445  75.7066641
  38.3629374  -1.3769981  75.4150639  37.5367486  -1.0721991  76.6464819
  31.7962316  -3.8609591  74.5519827  30.9265626  -3.5676025  74.2802416
  32.0321797  -3.2769146  75.2727091  41.6733946   5.1989568  74.6349356
  41.3818754   5.5619549  75.4712817  41.0606077   4.4856576  74.4562688
  42.8729628   2.7642448  67.1551926  43.7076519   3.2032252  67.3189487
  43.0088757   2.2881101  66.3360172  39.9221134   0.3222183  73.1029414
  40.3975255   0.5149829  72.2948265  38.9986699   0.3781369  72.8572798
  26.8104640   1.4846350  62.6860492  26.5650682   0.5808680  62.8840702
  26.9800555   1.4863500  61.7439970  34.5001350  -7.6429974  72.0685248
  35.0183294  -6.9068947  71.7431736  34.1456483  -7.3365980  72.9032007
  32.5547413   7.9529303  59.1511171  31.9821380   8.5719490  58.6981643
  33.1280207   8.5028664  59.6851093  38.6222803  -2.8012057  71.3357720
  39.5740226  -2.7013960  71.3569944  38.4526253  -3.5933789  71.8455804
  36.6437182  -5.7156474  71.5217120  36.0487114  -5.4351461  70.8263609
  36.3586879  -5.2262573  72.2933862  35.7744673   8.2366453  60.2819753
  36.7075346   8.1712014  60.4852628  35.6867886   9.0722720  59.8234286
  38.4032689   7.5532323  57.2423701  38.3246321   7.2192187  58.1359458
  39.2242356   8.0454091  57.2415173  41.1010881   0.4194062  70.4500019
  41.0687201  -0.5189937  70.6359703  41.7111504   0.4978099  69.7165844
  32.9394211  -0.7109885  56.4927223  33.8853316  -0.8403676  56.5615641
  32.5608456  -1.4495223  56.9696651  41.2505369  -2.7894894  70.4958302
  40.7344418  -3.5736437  70.3088231  42.1345318  -3.1176177  70.6604822
  46.9187430   1.4810069  69.5906056  47.6490819   1.2195357  70.1513759
  46.3094376   0.7438791  69.6308124  45.0002728  -0.3782068  70.1880507
  44.2735891  -0.5126103  69.5796999  44.5850014  -0.0705239  70.9937225
  32.8232904   3.3407862  77.9527880  33.7435913   3.5186461  78.1467927
  32.7882487   2.3963907  77.8007579  31.1237129  -2.7859908  56.4282108
  30.2168584  -3.0826795  56.5044822  31.4013110  -3.0830090  55.5616395
  25.8194977   1.2508896  70.5950661  26.0380986   2.1826004  70.6138695
  26.2320750   0.8916871  71.3805465  21.9103329   2.1549367  68.8474276
  21.2166800   1.7403320  68.3344231  22.6576320   2.1969903  68.2507695
  38.0468550  -7.0544446  63.7129311  37.4667219  -6.3959642  63.3307363
  37.7804482  -7.8767102  63.3016728  36.4972116  -7.6539389  65.9150631
  36.9971894  -7.5422854  65.1064950  37.1407724  -7.9578336  66.5551439
  30.5554112   0.2539241  78.8018472  30.0721194   1.0539601  79.0082361
  30.6415051   0.2647186  77.8485916  23.8240072   2.0867621  66.7240291
  23.8010760   2.1855308  65.7722174  24.1340708   2.9332771  67.0457457
  26.4827449   4.1443776  70.8386906  27.4370703   4.1127718  70.7716837
  26.2839973   3.6834399  71.6537132  27.0726832   2.7144892  73.4057703
  27.8919721   3.2088970  73.4292541  27.3463639   1.7976860  73.3775271
  36.8293428  -4.8944356  62.7685659  35.9419283  -4.6094705  62.5505854
  37.2447417  -5.0550593  61.9212936  40.1807964  -4.8697835  66.4839998
  40.9568354  -4.3801383  66.7564615  39.4556098  -4.4439781  66.9411868
  42.6180522  -4.1570216  67.5413939  43.2125013  -4.3974480  66.8307247
  42.6907106  -4.8763085  68.1687475  24.8377678   9.6863395  67.8557104
  24.7032146   8.9263796  67.2895102  24.4209740  10.4104295  67.3885892
  35.9736641   4.8700319  56.8633679  36.6772491   5.0750321  57.4791334
  35.2499290   5.4377080  57.1282762  36.8034451   0.6210180  62.9835949
  36.7469653   1.0778731  62.1443581  37.3562794  -0.1399136  62.8058792
  40.6139257  -3.5900088  63.8086069  40.3576192  -3.9903453  64.6394276
  39.9892125  -2.8756294  63.6836208  44.9251595  -0.8504015  66.3157360
  44.3651153  -0.7810826  67.0888922  44.3195099  -1.0263030  65.5956856
  27.9946804  10.5832712  68.0675546  27.8779188  11.5278145  67.9654236
  27.1739250  10.2806274  68.4561345  37.8823339   5.3082848  58.9132139
  38.7168943   4.8764046  58.7309614  37.7207682   5.1364861  59.8409033
  37.5369231   1.8114961  60.2788478  37.4818035   1.6459232  59.3376922
  36.9115286   2.5190994  60.4350668  34.8515138   4.1163873  79.6042041
  35.7206298   4.2904525  79.2428676  34.3721889   4.9358290  79.4817770
  29.0201318  11.2360974  71.2831475  29.9228565  11.2684584  71.5997970
  28.7938688  10.3061425  71.2977810  30.7754920   9.9891960  67.9441553
  29.8250551   9.9893822  67.8305926  31.0787406   9.2424695  67.4277588
  46.5107614  15.8252499  69.0087316  47.1486024  15.7059246  68.3050656
  46.3928457  16.7733343  69.0675268  43.3197320  15.7779927  68.9448840
  42.9815832  15.6620992  68.0569375  44.1887088  15.3771092  68.9249846
  39.1784136  17.6315403  64.9345731  38.6149001  17.5405340  64.1662019
  39.0636531  16.8115308  65.4148224  43.8017103  16.9314779  74.9035046
  43.7905744  16.5367577  74.0315550  43.9637742  16.1980851  75.4968817
  36.7248568  19.1266595  67.7729952  37.5169860  18.7857420  67.3576251
  36.9645218  19.2361570  68.6932105  44.7583694  21.2986371  60.2460196
  44.1071674  21.8840452  59.8594210  45.5528057  21.8292566  60.3055234
  38.6839322  18.3875508  60.6447331  39.4570198  17.8404495  60.5060206
  39.0364720  19.2519758  60.8561792  40.5224364  19.7151891  73.8514230
  40.2314230  20.6197521  73.7360896  41.1581348  19.7568418  74.5658299
  41.4480571  17.0928739  70.4415590  42.0444143  16.8684761  69.7272552
  41.5055543  16.3513485  71.0441037  41.0205599  14.5468174  58.2765780
  41.2731120  14.0249696  57.5149243  40.0830158  14.3834320  58.3792464
  46.0648882  13.5503953  66.0840524  46.8511971  13.1323376  65.7330941
  46.3287587  14.4550045  66.2522172  46.2358960  18.9876803  60.7829181
  45.6004793  19.0611430  61.4950085  45.9056366  19.5770402  60.1048260
  51.4657309  13.4879186  66.9873502  52.1982481  12.9178403  67.2211332
  50.7096665  13.1000786  67.4280008  40.7401888  16.4496280  60.4790155
  40.6238146  15.7741184  61.1471240  40.8504148  15.9628654  59.6622308
  43.0833429  15.9106427  64.1836845  42.7191636  15.3837048  64.8949766
  43.9400545  15.5204896  64.0103330  48.9882730   7.2000760  71.4468111
  48.6566054   8.0696171  71.2229326  48.3928343   6.8837044  72.1262141
  42.7238916  10.9396327  59.1798193  42.8913318  11.8076564  59.5468664
  42.5336085  11.1023609  58.2559482  45.4814249  19.4013306  70.8464024
  45.1814972  20.3038345  70.7379831  45.1365309  19.1345489  71.6985176
  38.9326731  15.8527103  66.8800728  38.0077227  15.7203317  67.0878420
  39.1811144  16.6321322  67.3770670  48.8811393  11.9195846  68.5261461
  47.9728270  11.8511255  68.2320222  48.8298989  12.3967791  69.3543286
  42.7028137  13.3953985  60.1644860  42.5827762  13.8411035  61.0030340
  42.0080725  13.7439302  59.6058398  36.2935542  15.4960376  67.7144517
  36.4227923  15.7494855  68.6283929  35.6132993  16.0888084  67.3949172
  40.4635029  26.1657626  63.8134991  40.3859059  27.1165451  63.8923472
  39.8596673  25.8203499  64.4709918  42.9552259  13.3385492  76.4696358
  42.1785593  13.8979412  76.4599223  43.5942822  13.8242275  76.9911228
  50.7473039  10.1212285  70.3039335  50.1047420  10.4144818  69.6579129
  50.2427968  10.0065205  71.1092531  48.4013203  13.8675458  60.9925194
  49.3131059  14.1002845  60.8172892  47.8922850  14.4512502  60.4300273
  41.2098631  16.1470945  76.0314325  41.9513315  16.6855989  75.7549149
  40.5035617  16.7737234  76.1885877  46.6853971  18.2900086  74.6286487
  47.0937327  17.8482496  73.8841119  45.9631232  17.7152713  74.8820680
  43.0385041  13.2272692  72.0020044  43.8846236  13.6512106  72.1454693
  42.9783678  12.5706317  72.6958607  47.0082785  18.8501276  68.3838776
  46.3791648  19.0146990  67.6814843  46.6208447  19.2642886  69.1549740
  50.8872017  19.7855714  65.7383139  50.2023055  20.1654615  65.1880173
  50.9715867  20.3951041  66.4715087  46.1884486  10.8877061  73.6601217
  45.9445418  11.6419121  73.1235493  46.4644417  11.2662408  74.4948464
  48.1422949  17.4315673  72.3378483  48.3539844  18.0747433  71.6612864
  48.0952697  16.5977990  71.8700413  45.7449178  10.0433494  69.2415055
  44.8833657  10.3414747  69.5331793  45.7711612  10.2603893  68.3096088
  42.5610747  18.5875684  65.6488861  43.0249093  18.8663387  64.8593483
  42.2967545  17.6859129  65.4661951  39.4534828  18.1347166  68.5868624
  40.0236185  18.5634434  67.9486108  40.0442940  17.8529751  69.2852810
  41.4979633  14.7098837  62.4578426  42.2003677  15.1619880  62.9252352
  41.1660262  14.0682656  63.0858319  39.9459995  13.3010593  76.8329635
  39.3158655  13.9826874  77.0665032  39.8396083  13.1893675  75.8882773
  35.2404967  12.9682389  67.7595559  34.4504021  13.2239918  67.2835670
  35.7316215  13.7830727  67.8647600  49.2568777  20.3087629  70.5100840
  50.0786221  19.9067816  70.2283522  49.2531180  20.2055863  71.4616956
  37.1919713  13.3326969  64.7179036  36.3950876  13.4445663  65.2362532
  36.9645305  13.6713621  63.8519927  43.0225380  19.8571672  72.6661551
  43.0869813  20.3192079  73.5019722  42.3136304  19.2269037  72.7943860
  33.5242670  13.2212880  70.1910550  33.7750709  14.1059890  70.4568126
  34.0602219  13.0417481  69.4185642  57.3474770  16.6526377  66.8585812
  56.5938478  16.0833775  66.7029816  57.4822311  16.6189042  67.8056446
  42.7373398  21.5239779  62.5340531  42.6019073  22.3691315  62.9625379
  43.2783210  21.7259057  61.7706465  39.2240738   7.6031359  79.1954886
  38.8307683   7.0497558  79.8702530  40.0406878   7.9141938  79.5861404
  36.1902795  19.0415217  63.1068456  36.7027316  19.8358468  63.2574021
  36.8425508  18.3441508  63.0402058  37.9997680  22.1580974  65.1891209
  38.1764308  23.0798938  65.0012193  38.7954514  21.8439393  65.6185589
  42.1408699   9.0189238  76.7875143  42.8818412   9.6196391  76.7079605
  42.3726621   8.2766876  76.2293185  37.2850037  14.2045606  75.0653372
  37.1703552  13.3030863  75.3660471  36.4294554  14.4509302  74.7138189
  44.3641874  22.1463346  76.6640873  43.9205728  21.3599724  76.3461778
  45.0259088  22.3342496  75.9984764  39.1228995  23.6759147  71.1901552
  39.6736421  23.5476211  70.4178546  38.2840471  23.9754036  70.8396444
  46.4623112  22.4266146  74.6922274  46.4441588  23.2475027  74.2002543
  47.3843032  22.3020221  74.9172415  42.9196167  19.9410275  75.5345783
  43.4524503  19.1798563  75.3045091  42.3910248  19.6483927  76.2769937
  46.0865861   5.0470341  71.0639424  45.7430131   5.9371983  70.9878535
  46.4544824   4.8571999  70.2009009  34.1551712  17.3703872  63.8828027
  34.9926934  17.7800880  63.6661734  34.3329980  16.4303314  63.8528220
  46.0516144  15.0378952  59.5711860  45.5362768  15.8083557  59.8100247
  45.7793453  14.3644088  60.1944921  43.6363255   9.8828653  64.6297098
  42.7804852   9.4935503  64.4502737  44.0490207   9.9620614  63.7696883
  45.1662402   7.4174996  69.0288658  44.6627197   7.3805132  68.2156463
  45.4593009   8.3267739  69.0885314  41.4105288   7.5013726  68.0354839
  42.2758285   7.3056535  67.6760729  41.4782797   7.2724078  68.9624196
  51.0250418  17.7911307  61.5065033  50.2479861  17.4522466  61.0620195
  51.7041899  17.7963930  60.8319998  45.8402447  12.9106044  61.3971641
  45.5352583  13.2252194  62.2481784  46.7932890  12.9887464  61.4398974
  44.2848879  19.0696268  63.0464595  43.7570241  18.3349027  62.7337832
  43.7836382  19.8470944  62.8004563  49.2641725  17.2645288  68.1631641
  48.6065400  17.9544550  68.2511770  50.0682124  17.6541720  68.5065627
  39.0167607   9.7315934  65.4071206  39.5911359   9.5091116  64.6744399
  39.6038589   9.8004629  66.1599808  48.0747184  15.6189661  66.2135583
  48.5879066  16.2519653  66.7157292  48.7248408  15.0190856  65.8478943
  39.3437194  11.7620395  59.4267091  38.5074506  12.0995082  59.7476366
  39.2041964  11.6269375  58.4894228  41.3190275   6.6057183  64.1346276
  40.6654687   6.2906200  63.5102890  41.2770749   5.9832923  64.8606099
  42.4301479  16.8876478  56.0499568  41.5228541  16.6565731  56.2490717
  42.9272511  16.0914097  56.2373549  45.3369558  25.5973985  58.9696254
  44.6631257  25.9005682  59.5781212  45.7235380  26.4003066  58.6201711
  44.5528015  13.0939116  68.4593923  43.6350576  13.3154063  68.3015611
  44.9688159  13.1685427  67.6005631  45.3363063  14.4930532  63.5896604
  46.0834882  15.0051929  63.2803726  45.6054652  14.1714585  64.4500997
  43.6089713  16.9889073  60.5723558  42.7000932  16.7048106  60.6696028
  43.6384797  17.4088151  59.7126865  48.8408980  20.5995662  64.3414725
  48.3871307  19.7586572  64.3979916  48.2102947  21.2357061  64.6789506
  47.7841900  11.5287648  65.5715393  47.0464657  11.0165035  65.9025635
  48.0368673  11.0888030  64.7598670  47.2841920  22.4372159  65.2764544
  47.5764894  22.9977216  64.5576909  47.7940540  22.7300720  66.0317703
  47.8853527   4.3063900  66.1657162  48.1912404   3.4461264  65.8783077
  48.6106132   4.8981521  65.9656156  34.1777883  14.7094587  64.5538760
  33.9802283  14.1163948  63.8289827  33.6224547  14.4046797  65.2714699
  42.1574607  14.6017693  66.6733353  42.2123217  13.6491530  66.5975830
  41.3465809  14.7577133  67.1574652  43.3065801  18.5297817  57.9111636
  42.8685231  17.8133675  57.4517274  44.0476242  18.7573931  57.3496728
  40.0966967  13.2194753  64.4323732  39.2834832  13.5188924  64.8388924
  40.5925961  12.8250442  65.1498214  42.2475545  23.2152510  66.3657997
  42.2051723  23.4413356  65.4366529  43.1638244  22.9815885  66.5143798
  45.6941178  13.6836578  73.2638626  46.0490566  13.9108051  74.1233092
  46.3413310  14.0154954  72.6415881  51.4238915  16.8055014  63.9687955
  51.2856814  16.9956610  63.0409144  51.0675134  17.5674396  64.4256006
  39.5881042  10.7913109  70.0484967  40.2280421  10.6501868  69.3507930
  38.7558572  10.5047622  69.6723569  51.4508295  18.8731541  68.9799226
  51.8844802  18.7806830  69.8282281  52.1639876  18.8489041  68.3419242
  40.3641345  20.0915539  66.1619959  41.1581944  19.5965859  65.9602534
  39.6533038  19.5633402  65.7987665  45.1836190  22.4733635  70.5132327
  45.2373212  23.0424571  71.2810043  44.3150971  22.6435520  70.1486364
  36.6724109  14.2358621  62.2379712  35.7421697  14.1743076  62.4549674
  36.7681581  13.7134574  61.4416353  36.5909658  10.7613434  64.8257954
  36.8516475  11.6758767  64.7167114  37.4126830  10.2937876  64.9754567
  38.0634583  12.1751191  71.9956778  38.7357637  11.9668553  71.3469427
  37.2364370  11.9773277  71.5562011  52.3123845  18.9155241  71.5132112
  52.5059735  19.8201052  71.7591387  52.2124463  18.4562660  72.3470697
  43.9660155   8.8013132  74.0122439  43.3188070   9.5003081  73.9186916
  44.7361171   9.2349276  74.3798687  47.3738953  19.0661984  77.0872992
  47.2224460  18.8372536  76.1703076  47.3643633  20.0232585  77.1004338
  44.1424290  16.6393897  72.0719259  45.0716350  16.7905056  71.8988226
  43.7215320  16.7277918  71.2167905  42.9412621  20.6644561  69.8417797
  42.8023707  20.2963346  70.7143735  42.1527218  21.1792201  69.6701754
  43.5360773  25.7653658  61.1843333  43.7112529  25.2941701  61.9988956
  42.8493561  26.3919424  61.4124594  44.4917837  20.0426164  67.2306634
  44.1567669  20.0026934  68.1264284  43.9921782  19.3770880  66.7577045
  38.4662081  15.4493794  72.7559216  38.3281879  14.7174033  73.3570755
  39.3767004  15.3602694  72.4743403  47.4277028  17.3882198  57.5043694
  46.8106199  16.6629026  57.4076747  46.9593517  18.1491558  57.1610768
  41.0944381  15.1613753  72.2442895  41.8044000  14.5206945  72.2029514
  41.0513689  15.4126648  73.1669076  49.0831160  22.0981107  75.1649474
  49.0243706  21.4140327  74.4980057  49.4850678  22.8400097  74.7130100
  39.8073315  12.1478971  74.0638535  39.2710672  11.6969710  74.7160131
  39.2190024  12.2824880  73.3208999  38.1021859  28.9143020  67.9583193
  38.3418457  29.5461545  68.6362212  37.2591055  28.5631060  68.2448553
  39.2175574  11.6067622  56.6264998  38.3405040  11.4856423  56.2627245
  39.6933327  10.8153701  56.3743887  49.0848567  20.0620690  73.3963454
  48.1975346  19.7246612  73.5189853  49.6547118  19.3303722  73.6332219
  30.7377714  16.3944782  66.7206505  31.4248754  16.0806512  66.1327521
  30.5825843  17.2986147  66.4473757  35.5412436  11.2834979  71.1491529
  35.4570625  10.6760648  70.4141939  34.7195143  11.7743997  71.1501025
  42.6149721  24.7222143  70.3624697  42.5419892  25.5277114  70.8744002
  42.1727114  24.9214109  69.5372719  42.4039500  23.9593913  63.8727519
  41.6207022  24.5015593  63.9665743  43.1032245  24.4767892  64.2721760
  45.7136150   9.7688542  66.5161724  46.2104850   9.0158505  66.1962794
  44.9423132   9.8052859  65.9504933  53.5665908  15.4728908  68.1580016
  53.5555784  16.3553623  67.7873949  52.6983287  15.1200459  67.9634553
  45.0748404  24.6208977  72.5182856  45.7876376  25.2556442  72.4458757
  44.5838433  24.7172843  71.7022858  46.7965931  18.5260230  64.0900148
  45.8622210  18.6461692  63.9204852  46.9742599  17.6232696  63.8260157
  42.2971119  11.9105925  66.2433409  41.9268907  11.3576966  66.9314314
  42.7930212  11.3064059  65.6908409  50.1838482  14.3677549  64.6250182
  50.6498935  15.2005540  64.5510484  50.6345983  13.9022530  65.3295440
  40.1260318  22.3703420  73.3388427  40.8269777  23.0039903  73.4917821
  39.6555433  22.7118152  72.5784066  48.2514713  20.7121370  61.6236334
  48.5274557  20.5977965  62.5330208  47.3819212  20.3138855  61.5848507
  48.1555145   6.7358136  68.6641083  47.2418225   6.9662363  68.8323290
  48.5848247   6.8196580  69.5155115  47.9261604  14.9248028  71.1640977
  47.2733054  15.1723935  70.5093430  48.3041984  14.1112166  70.8303454
  44.8868777  24.9607721  65.2669147  45.0691172  24.1429377  65.7296900
  45.7101763  25.1775413  64.8294037  45.2210943  23.8875906  62.5284196
  45.7498709  23.3768361  61.9154358  45.4839163  23.5718436  63.3929729
  43.9749177  15.6667839  77.6507014  43.2989814  15.5661968  78.3209389
  44.7976811  15.5107053  78.1143011  35.7228036  21.9039775  70.2719529
  36.3081473  21.1583463  70.4047434  35.5252874  22.2143732  71.1556193
  38.5766691  24.9391023  65.2881972  37.9077066  25.4237150  64.8046012
  38.4379561  25.1860243  66.2025350  30.3145690  14.4745376  68.9923973
  30.3529790  13.9408966  69.7861091  29.8085983  13.9480581  68.3734950
  42.7171960  26.9734766  71.8864630  43.2690268  27.1366388  72.6513715
  43.0578153  27.5639204  71.2144655  37.6936453   9.3209916  72.4886515
  37.7577779  10.1824747  72.0763913  37.6303573   8.7083918  71.7558873
  37.1688725  11.3933049  76.1359549  37.7960764  11.0110126  76.7497073
  36.3116644  11.1747251  76.5015242  47.5682834  21.7996024  77.7413285
  48.1122738  22.4125982  77.2468239  46.9869679  22.3575602  78.2580298
  33.9454268  13.2009478  62.0677904  34.2407709  12.2920156  62.0144958
  33.0442304  13.1797217  61.7458906  45.8540347  24.9216742  68.8728312
  45.7291486  24.1206482  68.3639258  46.5119438  25.4162935  68.3842282
  37.4748515  11.2765474  68.0505453  36.7535101  11.8901442  67.9112926
  38.2641771  11.8123239  67.9722098  47.9175255  22.7225762  70.5007862
  46.9705591  22.6031113  70.4286189  48.2658028  21.8348260  70.5834124
  40.2774829   8.6119901  74.3246104  40.8009230   8.8582197  75.0872414
  40.0587162   9.4439936  73.9049242  35.6742110  10.8823575  62.1917229
  35.3454816  10.0020954  62.0092335  36.0281480  10.8271244  63.0793618
  44.9221688  22.5178478  66.7012215  44.7746651  21.5895186  66.8819785
  45.7475182  22.5398569  66.2169290  38.7883933  11.1696545  62.5592707
  39.1280005  11.6982466  61.8371315  39.2356053  11.5076951  63.3351273
  48.5255810  23.3407037  67.7877087  49.4502358  23.1349898  67.6501539
  48.3571114  23.0923438  68.6966429  41.4827374   9.5533596  72.0095775
  41.1424194   8.7541409  72.4116455  40.7766380   9.8535307  71.4372608
  42.1343845   6.6382908  70.4623098  42.9569915   6.1643387  70.3401988
  42.3781909   7.4173392  70.9621784  40.7752080   9.6671167  60.7586000
  41.4960442  10.0452420  60.2549716  40.1517384  10.3860044  60.8620977
  44.9183203  10.3716316  61.6944332  45.1346817  11.2540954  61.3933160
  44.4377270   9.9802529  60.9649974  39.6582424  13.3302029  68.2715076
  39.5127005  13.6442332  69.1639358  39.1807628  13.9486929  67.7185975
  41.5178807  10.3204577  68.3195966  41.5040376   9.4245670  67.9828264
  42.2351235  10.3275241  68.9534252  43.3704938  10.7541917  70.3649093
  43.1122716  11.6758988  70.3633424  42.8389978  10.3572352  71.0549558
  48.3151127  23.8592704  63.1439179  48.4888004  23.2939127  62.3913031
  48.8080018  24.6593599  62.9618669  34.1328086  15.8707373  71.2102738
  33.5881554  16.6467181  71.3423012  35.0107436  16.2178178  71.0521859
  40.9215703   9.2018957  63.5883536  41.0431614   8.2735603  63.7874424
  40.6317745   9.2157643  62.6761852  43.7906893   6.8873868  66.7250256
  43.8128590   6.9513201  65.7702236  44.2074952   6.0478376  66.9190762
  54.1690518  16.6229127  64.7629479  54.6121664  15.8736452  64.3648602
  53.2917028  16.6139264  64.3803211  49.3026299  23.1759469  60.2436077
  49.9977204  23.7966161  60.4623392  49.6449449  22.3254820  60.5188455
  34.9194108  14.9977270  74.1032894  34.1775844  15.1459905  74.6897525
  34.5986852  15.2585535  73.2399644  51.2017722  20.6259174  61.7723408
  51.7269046  20.9646447  61.0472728  51.1140075  19.6906190  61.5886543
  42.8637771  24.5393248  73.9013285  43.1724897  24.2942395  74.7735984
  43.6613253  24.7439886  73.4132155  42.8858383  26.6931157  66.1318661
  42.4463373  26.2007536  66.8251518  43.6366500  26.1504125  65.8910736
  35.3650722  22.8842698  66.1343289  36.1908742  22.5846470  65.7541933
  35.0144774  22.1150321  66.5833078  40.3332255  22.2369167  68.2040963
  39.7112264  21.5739872  67.9043191  41.0037122  22.2630298  67.5214611
  33.5659327  20.8029025  67.0932223  32.7291235  20.3751199  66.9116224
  33.5382972  20.9961468  68.0303014  40.4056783  10.7150955  77.7973469
  40.4544938  11.5913077  77.4151238  40.9479297  10.1728348  77.2245112
  50.8911628  21.2592078  77.0774606  50.1007172  21.2416217  76.5379105
  50.6544983  21.7980372  77.8323642  51.0109503  18.1084544  74.3907334
  51.0607508  17.9434552  75.3322857  50.9023427  17.2411803  74.0005215
  39.8945762  20.7873090  61.6799423  40.0433882  21.4708554  61.0266096
  40.7012205  20.7678180  62.1948879  48.3013266  14.0915472  75.7066641
  49.2023128  13.9521937  75.4150639  48.3761240  14.2569927  76.6464819
  42.6356071  11.4682327  74.5519827  41.7659380  11.7615893  74.2802416
  42.8715551  12.0522772  75.2727091  52.5127700  20.5281486  74.6349356
  52.2212508  20.8911466  75.4712817  51.8999831  19.8148494  74.4562688
  53.7123382  18.0934366  67.1551926  54.5470274  18.5324170  67.3189487
  53.8482511  17.6173019  66.3360172  50.7614888  15.6514100  73.1029414
  51.2369010  15.8441747  72.2948265  49.8380454  15.7073286  72.8572798
  37.6498395  16.8138268  62.6860492  37.4044437  15.9100598  62.8840702
  37.8194309  16.8155418  61.7439970  45.3395105   7.6861944  72.0685248
  45.8577049   8.4222971  71.7431736  44.9850238   7.9925937  72.9032007
  36.9194042  12.5466625  60.1846654  36.2263287  12.6210980  59.5286690
  36.6745794  11.7826969  60.7068171  45.5907699   4.1062226  67.5886144
  45.8709453   3.4385416  68.2146571  46.3758306   4.2991322  67.0760808
  43.3941167  23.2821220  59.1511171  42.8215135  23.9011407  58.6981643
  43.9673961  23.8320582  59.6851093  49.4616557  12.5279860  71.3357720
  50.4133980  12.6277958  71.3569944  49.2920008  11.7358129  71.8455804
  47.4830937   9.6135444  71.5217120  46.8880869   9.8940456  70.8263609
  47.1980633  10.1029345  72.2933862  46.6138427  23.5658370  60.2819753
  47.5469100  23.5003932  60.4852628  46.5261640  24.4014637  59.8234286
  49.2426444  22.8824241  57.2423701  49.1640075  22.5484104  58.1359458
  50.0636111  23.3746009  57.2415173  51.9404635  15.7485980  70.4500019
  51.9080955  14.8101981  70.6359703  52.5505259  15.8270017  69.7165844
  43.7787966  14.6182033  56.4927223  44.7247071  14.4888241  56.5615641
  43.4002211  13.8796695  56.9696651  52.0899124  12.5397024  70.4958302
  51.5738172  11.7555480  70.3088231  52.9739072  12.2115740  70.6604822
  49.7509851   6.2838039  66.4554115  49.5534672   5.9753127  67.3397447
  50.3609556   7.0099678  66.5852045  57.7581185  16.8101987  69.5906056
  58.4884573  16.5487275  70.1513759  57.1488130  16.0730709  69.6308124
  55.8396482  14.9509850  70.1880507  55.1129646  14.8165815  69.5796999
  55.4243769  15.2586678  70.9937225  43.6626658  18.6699779  77.9527880
  44.5829668  18.8478378  78.1467927  43.6276242  17.7255825  77.8007579
  41.9630883  12.5432010  56.4282108  41.0562339  12.2465122  56.5044822
  42.2406864  12.2461828  55.5616395  32.8808823  13.8638373  66.8781155
  32.5611608  13.0103681  66.5855529  32.3342252  14.0786951  67.6339122
  36.6588731  16.5800814  70.5950661  36.8774741  17.5117922  70.6138695
  37.0714505  16.2208788  71.3805465  43.5792949   7.0868899  62.5826350
  42.7693677   6.7415984  62.9581596  44.2677366   6.7776443  63.1713961
  45.5083497   6.1646946  64.2050646  46.0614536   6.5842399  64.8640669
  45.7453583   5.2382694  64.2473602  41.5316596  12.1534020  79.9853410
  41.4313323  13.1028377  79.9165501  41.3138138  11.8252259  79.1129480
  40.7329668   9.4018945  56.5694088  41.5948832   9.7273843  56.8289905
  40.9180012   8.6150441  56.0567153  32.7497083  17.4841284  68.8474276
  32.0560555  17.0695237  68.3344231  33.4970074  17.5261821  68.2507695
  48.8862304   8.2747471  63.7129311  48.3060973   8.9332275  63.3307363
  48.6198237   7.4524816  63.3016728  47.3365871   7.6752529  65.9150631
  47.8365649   7.7869063  65.1064950  47.9801479   7.3713582  66.5551439
  41.3947866  15.5831159  78.8018472  40.9114948  16.3831519  79.0082361
  41.4808805  15.5939103  77.8485916  34.6633826  17.4159538  66.7240291
  34.6404514  17.5147225  65.7722174  34.9734463  18.2624689  67.0457457
  37.3221204  19.4735693  70.8386906  38.2764457  19.4419636  70.7716837
  37.1233727  19.0126317  71.6537132  37.9120586  18.0436809  73.4057703
  38.7313475  18.5380888  73.4292541  38.1857394  17.1268777  73.3775271
  47.6687182  10.4347562  62.7685659  46.7813037  10.7197212  62.5505854
  48.0841171  10.2741325  61.9212936  51.0201718  10.4594083  66.4839998
  51.7962108  10.9490535  66.7564615  50.2949853  10.8852137  66.9411868
  53.4574277  11.1721702  67.5413939  54.0518768  10.9317438  66.8307247
  53.5300861  10.4528832  68.1687475  35.6771433  25.0155313  67.8557104
  35.5425901  24.2555714  67.2895102  35.2603495  25.7396213  67.3885892
  46.8130396  20.1992236  56.8633679  47.5166246  20.4042239  57.4791334
  46.0893044  20.7668998  57.1282762  47.6428206  15.9502097  62.9835949
  47.5863407  16.4070649  62.1443581  48.1956548  15.1892782  62.8058792
  51.4533012  11.7391829  63.8086069  51.1969946  11.3388465  64.6394276
  50.8285880  12.4535623  63.6836208  55.7645350  14.4787903  66.3157360
  55.2044908  14.5481092  67.0888922  55.1588853  14.3028887  65.5956856
  38.8340559  25.9124630  68.0675546  38.7172943  26.8570062  67.9654236
  38.0133005  25.6098191  68.4561345  48.7217093  20.6374765  58.9132139
  49.5562697  20.2055964  58.7309614  48.5601436  20.4656779  59.8409033
  48.3762985  17.1406879  60.2788478  48.3211789  16.9751150  59.3376922
  47.7509041  17.8482912  60.4350668  33.1655500  12.3774943  74.1049900
  33.8114364  11.8673897  74.5937126  32.9572651  13.1143625  74.6793326
  45.6908892  19.4455791  79.6042041  46.5600052  19.6196443  79.2428676
  45.2115644  20.2650207  79.4817770  41.6859111   6.6414988  59.8573797
  41.6737781   7.5856828  60.0142067  42.5782533   6.4585133  59.5633258
  39.8595073  26.5652892  71.2831475  40.7622319  26.5976502  71.5997970
  39.6332443  25.6353343  71.2977810  41.6148675  25.3183878  67.9441553
  40.6644306  25.3185740  67.8305926  41.9181161  24.5716613  67.4277588
  45.5011230   3.2357764  64.1119733  44.7343626   2.6816251  64.2576416
  45.9121935   3.3079633  64.9733885  37.5052991   9.5242560  78.2024915
  38.3684453   9.1679365  78.4128239  36.9318402   9.1856455  78.8900319
  57.3501368  31.1544417  69.0087316  57.9879778  31.0351164  68.3050656
  57.2322211  32.1025261  69.0675268  54.1591074  31.1071845  68.9448840
  53.8209586  30.9912909  68.0569375  55.0280843  30.7063010  68.9249846
  50.0177890  32.9607321  64.9345731  49.4542755  32.8697258  64.1662019
  49.9030285  32.1407226  65.4148224  54.6410857  32.2606696  74.9035046
  54.6299498  31.8659495  74.0315550  54.8031497  31.5272769  75.4968817
  47.5642322  34.4558513  67.7729952  48.3563614  34.1149337  67.3576251
  47.8038972  34.5653488  68.6932105  55.5977449  36.6278289  60.2460196
  54.9465429  37.2132369  59.8594210  56.3921812  37.1584484  60.3055234
  49.5233076  33.7167426  60.6447331  50.2963952  33.1696413  60.5060206
  49.8758475  34.5811675  60.8561792  51.3618119  35.0443808  73.8514230
  51.0707985  35.9489439  73.7360896  51.9975103  35.0860336  74.5658299
  52.2874325  32.4220657  70.4415590  52.8837898  32.1976679  69.7272552
  52.3449297  31.6805402  71.0441037  51.8599354  29.8760092  58.2765780
  52.1124875  29.3541613  57.5149243  50.9223913  29.7126237  58.3792464
  56.9042637  28.8795870  66.0840524  57.6905726  28.4615294  65.7330941
  57.1681341  29.7841963  66.2522172  57.0752714  34.3168721  60.7829181
  56.4398547  34.3903347  61.4950085  56.7450120  34.9062320  60.1048260
  62.3051064  28.8171104  66.9873502  63.0376236  28.2470320  67.2211332
  61.5490420  28.4292704  67.4280008  51.5795643  31.7788198  60.4790155
  51.4631901  31.1033101  61.1471240  51.6897902  31.2920572  59.6622308
  53.9227184  31.2398345  64.1836845  53.5585391  30.7128966  64.8949766
  54.7794299  30.8496814  64.0103330  59.8276484  22.5292678  71.4468111
  59.4959809  23.3988089  71.2229326  59.2322098  22.2128962  72.1262141
  53.5632671  26.2688245  59.1798193  53.7307073  27.1368481  59.5468664
  53.3729840  26.4315526  58.2559482  56.3208004  34.7305224  70.8464024
  56.0208727  35.6330263  70.7379831  55.9759063  34.4637407  71.6985176
  49.7720485  31.1819021  66.8800728  48.8470982  31.0495235  67.0878420
  50.0204898  31.9613240  67.3770670  59.7205147  27.2487764  68.5261461
  58.8122025  27.1803172  68.2320222  59.6692743  27.7259709  69.3543286
  53.5421891  28.7245902  60.1644860  53.4221517  29.1702953  61.0030340
  52.8474480  29.0731220  59.6058398  47.1329296  30.8252294  67.7144517
  47.2621677  31.0786773  68.6283929  46.4526748  31.4180002  67.3949172
  53.7946013  28.6677409  76.4696358  53.0179347  29.2271330  76.4599223
  54.4336576  29.1534192  76.9911228  61.5866794  25.4504202  70.3039335
  60.9441174  25.7436735  69.6579129  61.0821722  25.3357123  71.1092531
  59.2406958  29.1967375  60.9925194  60.1524814  29.4294762  60.8172892
  58.7316605  29.7804420  60.4300273  52.0492386  31.4762863  76.0314325
  52.7907070  32.0147907  75.7549149  51.3429371  32.1029152  76.1885877
  57.5247725  33.6192003  74.6286487  57.9331081  33.1774414  73.8841119
  56.8024987  33.0444631  74.8820680  53.8778795  28.5564610  72.0020044
  54.7239990  28.9804024  72.1454693  53.8177433  27.8998234  72.6958607
  57.8476540  34.1793194  68.3838776  57.2185402  34.3438908  67.6814843
  57.4602202  34.5934803  69.1549740  61.7265772  35.1147632  65.7383139
  61.0416810  35.4946533  65.1880173  61.8109621  35.7242958  66.4715087
  57.0278241  26.2168978  73.6601217  56.7839172  26.9711039  73.1235493
  57.3038171  26.5954326  74.4948464  58.9816703  32.7607591  72.3378483
  59.1933599  33.4039351  71.6612864  58.9346452  31.9269907  71.8700413
  56.5842932  25.3725411  69.2415055  55.7227411  25.6706665  69.5331793
  56.6105367  25.5895810  68.3096088  53.4004502  33.9167602  65.6488861
  53.8642847  34.1955305  64.8593483  53.1361300  33.0151047  65.4661951
  50.2928583  33.4639084  68.5868624  50.8629940  33.8926352  67.9486108
  50.8836695  33.1821668  69.2852810  52.3373388  30.0390754  62.4578426
  53.0397431  30.4911798  62.9252352  52.0054016  29.3974573  63.0858319
  50.7853749  28.6302511  76.8329635  50.1552410  29.3118792  77.0665032
  50.6789837  28.5185593  75.8882773  46.0798722  28.2974307  67.7595559
  45.2897776  28.5531836  67.2835670  46.5709969  29.1122645  67.8647600
  60.0962531  35.6379546  70.5100840  60.9179975  35.2359733  70.2283522
  60.0924934  35.5347780  71.4616956  48.0313467  28.6618886  64.7179036
  47.2344630  28.7737581  65.2362532  47.8039059  29.0005539  63.8519927
  53.8619135  35.1863590  72.6661551  53.9263567  35.6483997  73.5019722
  53.1530059  34.5560954  72.7943860  44.3636425  28.5504797  70.1910550
  44.6144463  29.4351807  70.4568126  44.8995973  28.3709399  69.4185642
  68.1868524  31.9818295  66.8585812  67.4332233  31.4125693  66.7029816
  68.3216066  31.9480959  67.8056446  53.5767152  36.8531697  62.5340531
  53.4412827  37.6983233  62.9625379  54.1176965  37.0550975  61.7706465
  50.0634492  22.9323277  79.1954886  49.6701438  22.3789475  79.8702530
  50.8800632  23.2433855  79.5861404  47.0296550  34.3707135  63.1068456
  47.5421070  35.1650385  63.2574021  47.6819263  33.6733425  63.0402058
  48.8391435  37.4872891  65.1891209  49.0158063  38.4090856  65.0012193
  49.6348268  37.1731311  65.6185589  52.9802453  24.3481156  76.7875143
  53.7212166  24.9488309  76.7079605  53.2120376  23.6058794  76.2293185
  48.1243791  29.5337523  75.0653372  48.0097306  28.6322780  75.3660471
  47.2688309  29.7801220  74.7138189  55.2035629  37.4755264  76.6640873
  54.7599483  36.6891642  76.3461778  55.8652842  37.6634414  75.9984764
  49.9622750  39.0051065  71.1901552  50.5130175  38.8768128  70.4178546
  49.1234226  39.3045954  70.8396444  57.3016867  37.7558063  74.6922274
  57.2835342  38.5766944  74.2002543  58.2236787  37.6312139  74.9172415
  53.7589921  35.2702193  75.5345783  54.2918258  34.5090481  75.3045091
  53.2304002  34.9775845  76.2769937  56.9259616  20.3762259  71.0639424
  56.5823885  21.2663901  70.9878535  57.2938579  20.1863917  70.2009009
  44.9945467  32.6995789  63.8828027  45.8320689  33.1092798  63.6661734
  45.1723734  31.7595232  63.8528220  56.8909899  30.3670870  59.5711860
  56.3756522  31.1375475  59.8100247  56.6187207  29.6936006  60.1944921
  54.4757010  25.2120571  64.6297098  53.6198606  24.8227421  64.4502737
  54.8883961  25.2912532  63.7696883  56.0056156  22.7466914  69.0288658
  55.5020952  22.7097049  68.2156463  56.2986763  23.6559657  69.0885314
  52.2499042  22.8305644  68.0354839  53.1152039  22.6348452  67.6760729
  52.3176551  22.6015996  68.9624196  61.8644173  33.1203225  61.5065033
  61.0873616  32.7814384  61.0620195  62.5435654  33.1255848  60.8319998
  56.6796202  28.2397962  61.3971641  56.3746337  28.5544111  62.2481784
  57.6326644  28.3179382  61.4398974  55.1242634  34.3988185  63.0464595
  54.5963995  33.6640945  62.7337832  54.6230136  35.1762862  62.8004563
  60.1035480  32.5937206  68.1631641  59.4459154  33.2836467  68.2511770
  60.9075879  32.9833638  68.5065627  49.8561361  25.0607852  65.4071206
  50.4305113  24.8383033  64.6744399  50.4432344  25.1296546  66.1599808
  58.9140939  30.9481579  66.2135583  59.4272820  31.5811570  66.7157292
  59.5642162  30.3482774  65.8478943  50.1830948  27.0912313  59.4267091
  49.3468261  27.4286999  59.7476366  50.0435718  26.9561293  58.4894228
  52.1584029  21.9349101  64.1346276  51.5048441  21.6198118  63.5102890
  52.1164503  21.3124841  64.8606099  53.2695234  32.2168396  56.0499568
  52.3622296  31.9857649  56.2490717  53.7666266  31.4206015  56.2373549
  55.3921769  28.4231034  68.4593923  54.4744331  28.6445981  68.3015611
  55.8081913  28.4977345  67.6005631  56.1756817  29.8222450  63.5896604
  56.9228636  30.3343847  63.2803726  56.4448407  29.5006503  64.4500997
  54.4483467  32.3180991  60.5723558  53.5394687  32.0340023  60.6696028
  54.4778551  32.7380069  59.7126865  59.6802735  35.9287580  64.3414725
  59.2265062  35.0878490  64.3979916  59.0496701  36.5648978  64.6789506
  58.6235654  26.8579566  65.5715393  57.8858411  26.3456952  65.9025635
  58.8762428  26.4179948  64.7598670  58.1235674  37.7664077  65.2764544
  58.4158648  38.3269134  64.5576909  58.6334295  38.0592638  66.0317703
  58.7247282  19.6355818  66.1657162  59.0306158  18.7753181  65.8783077
  59.4499886  20.2273438  65.9656156  45.0171638  30.0386505  64.5538760
  44.8196038  29.4455865  63.8289827  44.4618302  29.7338715  65.2714699
  52.9968361  29.9309611  66.6733353  53.0516971  28.9783448  66.5975830
  52.1859563  30.0869050  67.1574652  54.1459555  33.8589734  57.9111636
  53.7078985  33.1425593  57.4517274  54.8869996  34.0865849  57.3496728
  50.9360721  28.5486671  64.4323732  50.1228587  28.8480841  64.8388924
  51.4319715  28.1542360  65.1498214  53.0869299  38.5444428  66.3657997
  53.0445478  38.7705274  65.4366529  54.0031998  38.3107802  66.5143798
  56.5334933  29.0128495  73.2638626  56.8884321  29.2399968  74.1233092
  57.1807064  29.3446872  72.6415881  62.2632670  32.1346931  63.9687955
  62.1250569  32.3248527  63.0409144  61.9068889  32.8966314  64.4256006
  50.4274796  26.1205026  70.0484967  51.0674175  25.9793786  69.3507930
  49.5952327  25.8339540  69.6723569  62.2902050  34.2023458  68.9799226
  62.7238556  34.1098747  69.8282281  63.0033630  34.1780959  68.3419242
  51.2035100  35.4207457  66.1619959  51.9975698  34.9257777  65.9602534
  50.4926792  34.8925320  65.7987665  56.0229944  37.8025552  70.5132327
  56.0766967  38.3716489  71.2810043  55.1544726  37.9727437  70.1486364
  47.5117863  29.5650539  62.2379712  46.5815452  29.5034994  62.4549674
  47.6075335  29.0426491  61.4416353  47.4303412  26.0905351  64.8257954
  47.6910230  27.0050685  64.7167114  48.2520585  25.6229794  64.9754567
  48.9028338  27.5043109  71.9956778  49.5751391  27.2960471  71.3469427
  48.0758124  27.3065195  71.5562011  63.1517599  34.2447159  71.5132112
  63.3453489  35.1492969  71.7591387  63.0518217  33.7854578  72.3470697
  54.8053910  24.1305049  74.0122439  54.1581825  24.8294999  73.9186916
  55.5754925  24.5641193  74.3798687  58.2132708  34.3953902  77.0872992
  58.0618214  34.1664453  76.1703076  58.2037387  35.3524503  77.1004338
  54.9818044  31.9685814  72.0719259  55.9110104  32.1196974  71.8988226
  54.5609074  32.0569835  71.2167905  53.7806376  35.9936479  69.8417797
  53.6417462  35.6255263  70.7143735  52.9920972  36.5084118  69.6701754
  55.3311591  35.3718082  67.2306634  54.9961424  35.3318851  68.1264284
  54.8315537  34.7062797  66.7577045  49.3055835  30.7785712  72.7559216
  49.1675633  30.0465950  73.3570755  50.2160759  30.6894612  72.4743403
  58.2670783  32.7174116  57.5043694  57.6499953  31.9920944  57.4076747
  57.7987271  33.4783476  57.1610768  51.9338136  30.4905671  72.2442895
  52.6437754  29.8498863  72.2029514  51.8907444  30.7418566  73.1669076
  59.9224914  37.4273024  75.1649474  59.8637461  36.7432244  74.4980057
  60.3244433  38.1692014  74.7130100  50.6467070  27.4770889  74.0638535
  50.1104427  27.0261627  74.7160131  50.0583778  27.6116798  73.3208999
  50.0569329  26.9359540  56.6264998  49.1798795  26.8148341  56.2627245
  50.5327082  26.1445618  56.3743887  59.9242322  35.3912608  73.3963454
  59.0369100  35.0538530  73.5189853  60.4940873  34.6595639  73.6332219
  41.5771469  31.7236700  66.7206505  42.2642509  31.4098430  66.1327521
  41.4219597  32.6278065  66.4473757  46.3806191  26.6126896  71.1491529
  46.2964380  26.0052566  70.4141939  45.5588897  27.1035915  71.1501025
  53.4543475  40.0514060  70.3624697  53.3813647  40.8569032  70.8744002
  53.0120868  40.2506026  69.5372719  53.2433255  39.2885831  63.8727519
  52.4600777  39.8307511  63.9665743  53.9426000  39.8059810  64.2721760
  56.5529905  25.0980460  66.5161724  57.0498604  24.3450422  66.1962794
  55.7816886  25.1344777  65.9504933  64.4059662  30.8020826  68.1580016
  64.3949538  31.6845541  67.7873949  63.5377042  30.4492376  67.9634553
  55.9142159  39.9500895  72.5182856  56.6270131  40.5848359  72.4458757
  55.4232187  40.0464761  71.7022858  57.6359686  33.8552147  64.0900148
  56.7015964  33.9753610  63.9204852  57.8136354  32.9524614  63.8260157
  53.1364874  27.2397843  66.2433409  52.7662661  26.6868883  66.9314314
  53.6323966  26.6355976  65.6908409  61.0232237  29.6969466  64.6250182
  61.4892689  30.5297458  64.5510484  61.4739737  29.2314448  65.3295440
  50.9654072  37.6995338  73.3388427  51.6663532  38.3331821  73.4917821
  50.4949187  38.0410070  72.5784066  59.0908468  36.0413288  61.6236334
  59.3668312  35.9269882  62.5330208  58.2212967  35.6430773  61.5848507
  58.9948900  22.0650053  68.6641083  58.0811979  22.2954280  68.8323290
  59.4242001  22.1488498  69.5155115  58.7655358  30.2539945  71.1640977
  58.1126808  30.5015853  70.5093430  59.1435738  29.4404084  70.8303454
  55.7262532  40.2899639  65.2669147  55.9084927  39.4721295  65.7296900
  56.5495518  40.5067331  64.8294037  56.0604697  39.2167824  62.5284196
  56.5892464  38.7060278  61.9154358  56.3232917  38.9010354  63.3929729
  54.8142931  30.9959756  77.6507014  54.1383568  30.8953886  78.3209389
  55.6370565  30.8398970  78.1143011  46.5621790  37.2331693  70.2719529
  47.1475227  36.4875381  70.4047434  46.3646629  37.5435650  71.1556193
  41.1539445  29.8037293  68.9923973  41.1923544  29.2700884  69.7861091
  40.6479738  29.2772499  68.3734950  53.5565714  42.3026684  71.8864630
  54.1084022  42.4658305  72.6513715  53.8971907  42.8931122  71.2144655
  48.5330207  24.6501834  72.4886515  48.5971534  25.5116665  72.0763913
  48.4697327  24.0375835  71.7558873  48.0082480  26.7224966  76.1359549
  48.6354519  26.3402044  76.7497073  47.1510399  26.5039168  76.5015242
  58.4076588  37.1287941  77.7413285  58.9516492  37.7417900  77.2468239
  57.8263433  37.6867520  78.2580298  44.7848023  28.5301395  62.0677904
  45.0801464  27.6212074  62.0144958  43.8836058  28.5089135  61.7458906
  56.6934101  40.2508659  68.8728312  56.5685241  39.4498399  68.3639258
  57.3513192  40.7454853  68.3842282  48.3142270  26.6057392  68.0505453
  47.5928855  27.2193360  67.9112926  49.1035525  27.1415157  67.9722098
  58.7569010  38.0517680  70.5007862  57.8099345  37.9323031  70.4286189
  59.1051783  37.1640178  70.5834124  51.1168583  23.9411818  74.3246104
  51.6402985  24.1874115  75.0872414  50.8980916  24.7731853  73.9049242
  46.5135864  26.2115493  62.1917229  46.1848570  25.3312872  62.0092335
  46.8675235  26.1563162  63.0793618  55.7615443  37.8470396  66.7012215
  55.6140405  36.9187103  66.8819785  56.5868936  37.8690486  66.2169290
  49.6277687  26.4988463  62.5592707  49.9673760  27.0274384  61.8371315
  50.0749808  26.8368869  63.3351273  59.3649565  38.6698954  67.7877087
  60.2896112  38.4641816  67.6501539  59.1964868  38.4215356  68.6966429
  52.3221128  24.8825514  72.0095775  51.9817948  24.0833327  72.4116455
  51.6160134  25.1827224  71.4372608  52.9737600  21.9674826  70.4623098
  53.7963669  21.4935304  70.3401988  53.2175663  22.7465310  70.9621784
  51.6145834  24.9963084  60.7586000  52.3354197  25.3744337  60.2549716
  50.9911139  25.7151961  60.8620977  55.7576957  25.7008233  61.6944332
  55.9740572  26.5832871  61.3933160  55.2771024  25.3094447  60.9649974
  50.4976179  28.6593947  68.2715076  50.3520759  28.9734250  69.1639358
  50.0201382  29.2778847  67.7185975  52.3572562  25.6496495  68.3195966
  52.3434130  24.7537588  67.9828264  53.0744990  25.6567158  68.9534252
  54.2098692  26.0833835  70.3649093  53.9516470  27.0050905  70.3633424
  53.6783733  25.6864269  71.0549558  59.1544881  39.1884622  63.1439179
  59.3281759  38.6231044  62.3913031  59.6473772  39.9885517  62.9618669
  44.9721841  31.1999291  71.2102738  44.4275309  31.9759099  71.3423012
  45.8501191  31.5470096  71.0521859  51.7609457  24.5310875  63.5883536
  51.8825369  23.6027521  63.7874424  51.4711500  24.5449561  62.6761852
  54.6300648  22.2165785  66.7250256  54.6522345  22.2805118  65.7702236
  55.0468707  21.3770294  66.9190762  65.0084272  31.9521045  64.7629479
  65.4515418  31.2028370  64.3648602  64.1310782  31.9431181  64.3803211
  60.1420053  38.5051386  60.2436077  60.8370958  39.1258079  60.4623392
  60.4843204  37.6546738  60.5188455  45.7587863  30.3269187  74.1032894
  45.0169599  30.4751823  74.6897525  45.4380607  30.5877453  73.2399644
  53.7031525  39.8685166  73.9013285  54.0118652  39.6234312  74.7735984
  54.5007007  40.0731804  73.4132155  53.7252137  42.0223075  66.1318661
  53.2857128  41.5299454  66.8251518  54.4760254  41.4796043  65.8910736
  51.1726010  37.5661084  68.2040963  50.5506019  36.9031789  67.9043191
  51.8430876  37.5922216  67.5214611  44.4053081  36.1320942  67.0932223
  43.5684990  35.7043117  66.9116224  44.3776727  36.3253386  68.0303014
  51.2450537  26.0442872  77.7973469  51.2938692  26.9204995  77.4151238
  51.7873051  25.5020265  77.2245112  61.7305383  36.5883996  77.0774606
  60.9400926  36.5708134  76.5379105  61.4938737  37.1272289  77.8323642
  61.8503258  33.4376462  74.3907334  61.9001263  33.2726469  75.3322857
  61.7417181  32.5703721  74.0005215  50.7339516  36.1165008  61.6799423
  50.8827637  36.8000472  61.0266096  51.5405960  36.0970098  62.1948879
  59.1407020  29.4207390  75.7066641  60.0416883  29.2813855  75.4150639
  59.2154995  29.5861845  76.6464819  53.4749825  26.7974245  74.5519827
  52.6053135  27.0907811  74.2802416  53.7109306  27.3814690  75.2727091
  63.3521455  35.8573403  74.6349356  63.0606263  36.2203384  75.4712817
  62.7393586  35.1440412  74.4562688  64.5517137  33.4226283  67.1551926
  65.3864028  33.8616087  67.3189487  64.6876266  32.9464936  66.3360172
  61.6008643  30.9806018  73.1029414  62.0762764  31.1733664  72.2948265
  60.6774208  31.0365204  72.8572798  48.4892149  32.1430185  62.6860492
  48.2438191  31.2392515  62.8840702  48.6588064  32.1447336  61.7439970
  56.1788859  23.0153862  72.0685248  56.6970803  23.7514889  71.7431736
  55.8243992  23.3217855  72.9032007  47.7587797  27.8758543  60.1846654
  47.0657042  27.9502898  59.5286690  47.5139549  27.1118886  60.7068171
  56.4301453  19.4354144  67.5886144  56.7103207  18.7677333  68.2146571
  57.2152060  19.6283240  67.0760808  60.3010312  27.8571778  71.3357720
  61.2527735  27.9569876  71.3569944  60.1313762  27.0650047  71.8455804
  58.3224691  24.9427361  71.5217120  57.7274623  25.2232374  70.8263609
  58.0374388  25.4321262  72.2933862  57.4532182  38.8950288  60.2819753
  58.3862855  38.8295850  60.4852628  57.3655395  39.7306555  59.8234286
  60.0820198  38.2116159  57.2423701  60.0033830  37.8776022  58.1359458
  60.9029865  38.7037926  57.2415173  62.7798390  31.0777898  70.4500019
  62.7474710  30.1393899  70.6359703  63.3899013  31.1561935  69.7165844
  54.6181720  29.9473951  56.4927223  55.5640825  29.8180159  56.5615641
  54.2395965  29.2088613  56.9696651  62.9292878  27.8688941  70.4958302
  62.4131927  27.0847398  70.3088231  63.8132827  27.5407658  70.6604822
  60.5903605  21.6129957  66.4554115  60.3928426  21.3045045  67.3397447
  61.2003311  22.3391596  66.5852045  68.5974939  32.1393905  69.5906056
  69.3278328  31.8779193  70.1513759  67.9881885  31.4022627  69.6308124
  66.6790237  30.2801767  70.1880507  65.9523400  30.1457732  69.5796999
  66.2637523  30.5878596  70.9937225  54.5020413  33.9991697  77.9527880
  55.4223422  34.1770296  78.1467927  54.4669996  33.0547742  77.8007579
  52.8024638  27.8723927  56.4282108  51.8956093  27.5757040  56.5044822
  53.0800619  27.5753745  55.5616395  43.7202578  29.1930291  66.8781155
  43.4005362  28.3395599  66.5855529  43.1736006  29.4078869  67.6339122
  47.4982486  31.9092732  70.5950661  47.7168495  32.8409839  70.6138695
  47.9108259  31.5500706  71.3805465  54.4186703  22.4160817  62.5826350
  53.6087432  22.0707902  62.9581596  55.1071120  22.1068361  63.1713961
  56.3477252  21.4938864  64.2050646  56.9008290  21.9134317  64.8640669
  56.5847338  20.5674612  64.2473602  52.3710351  27.4825937  79.9853410
  52.2707078  28.4320294  79.9165501  52.1531893  27.1544176  79.1129480
  51.5723422  24.7310862  56.5694088  52.4342586  25.0565761  56.8289905
  51.7573766  23.9442358  56.0567153  43.5890838  32.8133202  68.8474276
  42.8954309  32.3987155  68.3344231  44.3363829  32.8553739  68.2507695
  59.7256059  23.6039389  63.7129311  59.1454728  24.2624193  63.3307363
  59.4591991  22.7816733  63.3016728  58.1759625  23.0044447  65.9150631
  58.6759403  23.1160981  65.1064950  58.8195233  22.7005499  66.5551439
  52.2341621  30.9123076  78.8018472  51.7508703  31.7123436  79.0082361
  52.3202560  30.9231021  77.8485916  45.5027581  32.7451456  66.7240291
  45.4798269  32.8439143  65.7722174  45.8128217  33.5916607  67.0457457
  48.1614958  34.8027611  70.8386906  49.1158212  34.7711553  70.7716837
  47.9627482  34.3418235  71.6537132  48.7514341  33.3728727  73.4057703
  49.5707230  33.8672806  73.4292541  49.0251148  32.4560695  73.3775271
  58.5080937  25.7639479  62.7685659  57.6206792  26.0489130  62.5505854
  58.9234926  25.6033243  61.9212936  61.8595473  25.7886000  66.4839998
  62.6355863  26.2782453  66.7564615  61.1343607  26.2144054  66.9411868
  64.2968031  26.5013619  67.5413939  64.8912522  26.2609355  66.8307247
  64.3694615  25.7820750  68.1687475  57.6524150  35.5284154  56.8633679
  58.3560000  35.7334156  57.4791334  56.9286799  36.0960916  57.1282762
  58.4821960  31.2794015  62.9835949  58.4257162  31.7362567  62.1443581
  59.0350303  30.5184700  62.8058792  62.2926766  27.0683747  63.8086069
  62.0363701  26.6680383  64.6394276  61.6679634  27.7827541  63.6836208
  66.6039104  29.8079820  66.3157360  66.0438662  29.8773010  67.0888922
  65.9982608  29.6320805  65.5956856  49.6734313  41.2416547  68.0675546
  49.5566697  42.1861980  67.9654236  48.8526759  40.9390109  68.4561345
  59.5610848  35.9666683  58.9132139  60.3956452  35.5347882  58.7309614
  59.3995191  35.7948697  59.8409033  59.2156740  32.4698796  60.2788478
  59.1605544  32.3043068  59.3376922  58.5902795  33.1774829  60.4350668
  44.0049255  27.7066861  74.1049900  44.6508118  27.1965815  74.5937126
  43.7966406  28.4435542  74.6793326  56.5302647  34.7747708  79.6042041
  57.3993807  34.9488361  79.2428676  56.0509398  35.5942125  79.4817770
  52.5252865  21.9706905  59.8573797  52.5131535  22.9148745  60.0142067
  53.4176287  21.7877051  59.5633258  50.6988827  41.8944809  71.2831475
  51.6016074  41.9268420  71.5997970  50.4726197  40.9645260  71.2977810
  52.4542429  40.6475796  67.9441553  51.5038060  40.6477657  67.8305926
  52.7574915  39.9008530  67.4277588  56.3404985  18.5649682  64.1119733
  55.5737381  18.0108169  64.2576416  56.7515690  18.6371551  64.9733885
  48.3446746  24.8534478  78.2024915  49.2078207  24.4971283  78.4128239
  47.7712156  24.5148373  78.8900319  73.1444818  44.1463021  66.9873502
  73.8769990  43.5762238  67.2211332  72.3884174  43.7584622  67.4280008
  70.6670239  37.8584595  71.4468111  70.3353563  38.7280006  71.2229326
  70.0715852  37.5420879  72.1262141  64.6339768  43.9969327  76.4696358
  63.8573102  44.5563247  76.4599223  65.2730331  44.4826110  76.9911228
  72.4260548  40.7796120  70.3039335  71.7834929  41.0728653  69.6579129
  71.9215477  40.6649040  71.1092531  62.8886140  46.8054781  76.0314325
  63.6300824  47.3439824  75.7549149  62.1823126  47.4321069  76.1885877
  67.8671995  41.5460896  73.6601217  67.6232927  42.3002957  73.1235493
  68.1431926  41.9246244  74.4948464  67.4236687  40.7017329  69.2415055
  66.5621166  40.9998583  69.5331793  67.4499121  40.9187728  68.3096088
  61.6247504  43.9594429  76.8329635  60.9946164  44.6410710  77.0665032
  61.5183592  43.8477510  75.8882773  56.9192476  43.6266225  67.7595559
  56.1291530  43.8823753  67.2835670  57.4103724  44.4414563  67.8647600
  55.2030179  43.8796715  70.1910550  55.4538218  44.7643725  70.4568126
  55.7389728  43.7001317  69.4185642  79.0262279  47.3110212  66.8585812
  78.2725987  46.7417610  66.7029816  79.1609820  47.2772877  67.8056446
  60.9028247  38.2615195  79.1954886  60.5095192  37.7081393  79.8702530
  61.7194387  38.5725773  79.5861404  63.8196208  39.6773074  76.7875143
  64.5605921  40.2780227  76.7079605  64.0514130  38.9350711  76.2293185
  67.7653370  35.7054177  71.0639424  67.4217640  36.5955818  70.9878535
  68.1332333  35.5155834  70.2009009  66.8449911  38.0758832  69.0288658
  66.3414706  38.0388967  68.2156463  67.1380518  38.9851574  69.0885314
  63.0892797  38.1597561  68.0354839  63.9545794  37.9640370  67.6760729
  63.1570306  37.9307913  68.9624196  60.6955116  40.3899769  65.4071206
  61.2698868  40.1674951  64.6744399  61.2826098  40.4588464  66.1599808
  69.5641036  34.9647736  66.1657162  69.8699913  34.1045099  65.8783077
  70.2893641  35.5565356  65.9656156  73.1026424  47.4638849  63.9687955
  72.9644323  47.6540445  63.0409144  72.7462643  48.2258232  64.4256006
  61.2668551  41.4496944  70.0484967  61.9067930  41.3085703  69.3507930
  60.4346081  41.1631457  69.6723569  58.2697167  41.4197269  64.8257954
  58.5303984  42.3342602  64.7167114  59.0914339  40.9521712  64.9754567
  59.7422092  42.8335026  71.9956778  60.4145146  42.6252388  71.3469427
  58.9151879  42.6357112  71.5562011  65.6447664  39.4596967  74.0122439
  64.9975579  40.1586917  73.9186916  66.4148680  39.8933111  74.3798687
  69.0526462  49.7245819  77.0872992  68.9011969  49.4956371  76.1703076
  69.0431142  50.6816421  77.1004338  70.7618669  52.7564942  75.1649474
  70.7031215  52.0724162  74.4980057  71.1638187  53.4983932  74.7130100
  61.4860824  42.8062806  74.0638535  60.9498181  42.3553545  74.7160131
  60.8977533  42.9408715  73.3208999  57.2199945  41.9418814  71.1491529
  57.1358134  41.3344484  70.4141939  56.3982652  42.4327832  71.1501025
  69.8342654  37.3941971  68.6641083  68.9205734  37.6246198  68.8323290
  70.2635756  37.4780415  69.5155115  65.6536686  46.3251674  77.6507014
  64.9777323  46.2245803  78.3209389  66.4764319  46.1690888  78.1143011
  59.3723962  39.9793751  72.4886515  59.4365288  40.8408582  72.0763913
  59.3091082  39.3667753  71.7558873  58.8476234  42.0516884  76.1359549
  59.4748273  41.6693961  76.7497073  57.9904153  41.8331086  76.5015242
  69.2470343  52.4579859  77.7413285  69.7910247  53.0709817  77.2468239
  68.6657188  53.0159438  78.2580298  59.1536024  41.9349310  68.0505453
  58.4322610  42.5485277  67.9112926  59.9429280  42.4707074  67.9722098
  61.9562338  39.2703736  74.3246104  62.4796739  39.5166033  75.0872414
  61.7374671  40.1023771  73.9049242  57.3529619  41.5407411  62.1917229
  57.0242325  40.6604790  62.0092335  57.7068989  41.4855079  63.0793618
  60.4671442  41.8280381  62.5592707  60.8067514  42.3566302  61.8371315
  60.9143562  42.1660787  63.3351273  63.1614883  40.2117431  72.0095775
  62.8211703  39.4125244  72.4116455  62.4553889  40.5119142  71.4372608
  63.8131354  37.2966744  70.4623098  64.6357424  36.8227222  70.3401988
  64.0569418  38.0757227  70.9621784  61.3369933  43.9885864  68.2715076
  61.1914514  44.3026167  69.1639358  60.8595137  44.6070765  67.7185975
  63.1966316  40.9788412  68.3195966  63.1827885  40.0829506  67.9828264
  63.9138744  40.9859076  68.9534252  65.0492447  41.4125753  70.3649093
  64.7910225  42.3342823  70.3633424  64.5177487  41.0156187  71.0549558
  65.4694402  37.5457703  66.7250256  65.4916099  37.6097036  65.7702236
  65.8862461  36.7062212  66.9190762  75.8478027  47.2812963  64.7629479
  76.2909173  46.5320288  64.3648602  74.9704537  47.2723099  64.3803211
  62.0844292  41.3734790  77.7973469  62.1332447  42.2496913  77.4151238
  62.6266806  40.8312183  77.2245112  72.5699137  51.9175913  77.0774606
  71.7794681  51.9000052  76.5379105  72.3332492  52.4564207  77.8323642
  69.9800775  44.7499308  75.7066641  70.8810637  44.6105772  75.4150639
  70.0548749  44.9153762  76.6464819  64.3143580  42.1266162  74.5519827
  63.4446889  42.4199728  74.2802416  64.5503060  42.7106607  75.2727091
  74.1915209  51.1865321  74.6349356  73.9000017  51.5495302  75.4712817
  73.5787340  50.4732329  74.4562688  67.0182614  38.3445779  72.0685248
  67.5364558  39.0806806  71.7431736  66.6637747  38.6509773  72.9032007
  67.2695208  34.7646062  67.5886144  67.5496962  34.0969251  68.2146571
  68.0545815  34.9575157  67.0760808  71.1404066  43.1863696  71.3357720
  72.0921489  43.2861793  71.3569944  70.9707517  42.3941964  71.8455804
  69.1618446  40.2719279  71.5217120  68.5668378  40.5524292  70.8263609
  68.8768142  40.7613180  72.2933862  73.7686633  43.1980859  70.4958302
  73.2525681  42.4139316  70.3088231  74.6526581  42.8699576  70.6604822
  71.4297359  36.9421874  66.4554115  71.2322181  36.6336963  67.3397447
  72.0397065  37.6683513  66.5852045  79.4368694  47.4685822  69.5906056
  80.1672082  47.2071110  70.1513759  78.8275639  46.7314544  69.6308124
  77.5183991  45.6093685  70.1880507  76.7917155  45.4749650  69.5796999
  77.1031278  45.9170514  70.9937225  65.3414167  49.3283615  77.9527880
  66.2617177  49.5062214  78.1467927  65.3063751  48.3839660  77.8007579
  54.5596332  44.5222208  66.8781155  54.2399117  43.6687516  66.5855529
  54.0129761  44.7370786  67.6339122  63.2104105  42.8117855  79.9853410
  63.1100832  43.7612212  79.9165501  62.9925647  42.4836094  79.1129480
  63.0735375  46.2414994  78.8018472  62.5902457  47.0415354  79.0082361
  63.1596314  46.2522939  77.8485916  75.1361786  41.8305537  67.5413939
  75.7306277  41.5901273  66.8307247  75.2088370  41.1112668  68.1687475
  77.4432859  45.1371738  66.3157360  76.8832417  45.2064927  67.0888922
  76.8376362  44.9612723  65.5956856  67.3696401  50.1039626  79.6042041
  68.2387561  50.2780278  79.2428676  66.8903153  50.9234043  79.4817770
  67.1798739  33.8941600  64.1119733  66.4131135  33.3400086  64.2576416
  67.5909444  33.9663469  64.9733885  59.1840500  40.1826396  78.2024915
  60.0471962  39.8263200  78.4128239  58.6105911  39.8440290  78.8900319
  79.0288877  61.8128252  69.0087316  79.6667287  61.6934999  68.3050656
  78.9109720  62.7609096  69.0675268  76.3198366  62.9190532  74.9035046
  76.3087007  62.5243330  74.0315550  76.4819006  62.1856604  75.4968817
  77.2764958  67.2862124  60.2460196  76.6252938  67.8716205  59.8594210
  78.0709321  67.8168319  60.3055234  73.0405628  65.7027644  73.8514230
  72.7495494  66.6073274  73.7360896  73.6762612  65.7444171  74.5658299
  73.9661834  63.0804492  70.4415590  74.5625407  62.8560514  69.7272552
  74.0236806  62.3389238  71.0441037  78.7540223  64.9752556  60.7829181
  78.1186056  65.0487183  61.4950085  78.4237629  65.5646155  60.1048260
  83.9838573  59.4754939  66.9873502  84.7163745  58.9054156  67.2211332
  83.2277928  59.0876539  67.4280008  81.5063993  53.1876513  71.4468111
  81.1747318  54.0571924  71.2229326  80.9109607  52.8712797  72.1262141
  77.9995513  65.3889059  70.8464024  77.6996236  66.2914098  70.7379831
  77.6546572  65.1221242  71.6985176  81.3992656  57.9071599  68.5261461
  80.4909534  57.8387008  68.2320222  81.3480252  58.3843544  69.3543286
  75.4733522  59.3261245  76.4696358  74.6966856  59.8855165  76.4599223
  76.1124085  59.8118028  76.9911228  83.2654303  56.1088038  70.3039335
  82.6228683  56.4020571  69.6579129  82.7609231  55.9940958  71.1092531
  80.9194467  59.8551211  60.9925194  81.8312323  60.0878598  60.8172892
  80.4104114  60.4388255  60.4300273  73.7279895  62.1346698  76.0314325
  74.4694579  62.6731742  75.7549149  73.0216880  62.7612987  76.1885877
  79.2035234  64.2775839  74.6286487  79.6118590  63.8358249  73.8841119
  78.4812496  63.7028466  74.8820680  75.5566304  59.2148445  72.0020044
  76.4027499  59.6387859  72.1454693  75.4964942  58.5582070  72.6958607
  79.5264049  64.8377029  68.3838776  78.8972911  65.0022743  67.6814843
  79.1389711  65.2518639  69.1549740  83.4053281  65.7731467  65.7383139
  82.7204319  66.1530368  65.1880173  83.4897130  66.3826794  66.4715087
  78.7065750  56.8752814  73.6601217  78.4626681  57.6294874  73.1235493
  78.9825680  57.2538161  74.4948464  80.6604212  63.4191426  72.3378483
  80.8721108  64.0623186  71.6612864  80.6133961  62.5853743  71.8700413
  78.2630441  56.0309247  69.2415055  77.4014920  56.3290500  69.5331793
  78.2892876  56.2479646  68.3096088  71.9716092  64.1222919  68.5868624
  72.5417449  64.5510187  67.9486108  72.5624204  63.8405504  69.2852810
  72.4641258  59.2886346  76.8329635  71.8339919  59.9702627  77.0665032
  72.3577346  59.1769428  75.8882773  81.7750040  66.2963382  70.5100840
  82.5967484  65.8943569  70.2283522  81.7712443  66.1931616  71.4616956
  75.5406644  65.8447425  72.6661551  75.6051076  66.3067832  73.5019722
  74.8317568  65.2144790  72.7943860  89.8656033  62.6402130  66.8585812
  89.1119742  62.0709528  66.7029816  90.0003575  62.6064795  67.8056446
  71.7422001  53.5907112  79.1954886  71.3488947  53.0373311  79.8702530
  72.5588141  53.9017691  79.5861404  74.6589962  55.0064991  76.7875143
  75.3999675  55.6072144  76.7079605  74.8907885  54.2642629  76.2293185
  69.8031300  60.1921359  75.0653372  69.6884815  59.2906616  75.3660471
  68.9475818  60.4385055  74.7138189  76.8823138  68.1339099  76.6640873
  76.4386992  67.3475477  76.3461778  77.5440351  68.3218249  75.9984764
  78.9804376  68.4141899  74.6922274  78.9622851  69.2350780  74.2002543
  79.9024296  68.2895974  74.9172415  75.4377430  65.9286028  75.5345783
  75.9705767  65.1674316  75.3045091  74.9091511  65.6359680  76.2769937
  78.6047125  51.0346094  71.0639424  78.2611394  51.9247736  70.9878535
  78.9726088  50.8447752  70.2009009  77.6843665  53.4050749  69.0288658
  77.1808461  53.3680885  68.2156463  77.9774272  54.3143492  69.0885314
  83.5431682  63.7787060  61.5065033  82.7661125  63.4398219  61.0620195
  84.2223163  63.7839683  60.8319998  81.7822989  63.2521041  68.1631641
  81.1246663  63.9420303  68.2511770  82.5863388  63.6417473  68.5065627
  80.5928448  61.6065414  66.2135583  81.1060329  62.2395406  66.7157292
  81.2429671  61.0066609  65.8478943  77.8550822  71.5849738  58.9696254
  77.1812521  71.8881435  59.5781212  78.2416644  72.3878819  58.6201711
  76.1270976  62.9764826  60.5723558  75.2182196  62.6923859  60.6696028
  76.1566060  63.3963904  59.7126865  81.3590244  66.5871415  64.3414725
  80.9052571  65.7462325  64.3979916  80.7284210  67.2232814  64.6789506
  80.3023163  57.5163401  65.5715393  79.5645920  57.0040788  65.9025635
  80.5549937  57.0763783  64.7598670  79.8023183  68.4247912  65.2764544
  80.0946157  68.9852969  64.5576909  80.3121804  68.7176473  66.0317703
  80.4034791  50.2939653  66.1657162  80.7093667  49.4337017  65.8783077
  81.1287395  50.8857274  65.9656156  78.2122442  59.6712331  73.2638626
  78.5671830  59.8983804  74.1233092  78.8594573  60.0030707  72.6415881
  83.9420179  62.7930767  63.9687955  83.8038077  62.9832363  63.0409144
  83.5856398  63.5550149  64.4256006  83.9689559  64.8607294  68.9799226
  84.4026065  64.7682583  69.8282281  84.6821139  64.8364794  68.3419242
  77.7017453  68.4609388  70.5132327  77.7554476  69.0300324  71.2810043
  76.8332235  68.6311273  70.1486364  70.5815847  58.1626944  71.9956778
  71.2538900  57.9544306  71.3469427  69.7545633  57.9649030  71.5562011
  84.8305108  64.9030994  71.5132112  85.0240998  65.8076805  71.7591387
  84.7305726  64.4438413  72.3470697  76.4841419  54.7888885  74.0122439
  75.8369334  55.4878834  73.9186916  77.2542434  55.2225029  74.3798687
  79.8920217  65.0537737  77.0872992  79.7405723  64.8248289  76.1703076
  79.8824896  66.0108338  77.1004338  76.6605553  62.6269650  72.0719259
  77.5897613  62.7780809  71.8988226  76.2396583  62.7153671  71.2167905
  75.4593885  66.6520314  69.8417797  75.3204971  66.2839099  70.7143735
  74.6708481  67.1667954  69.6701754  77.0099100  66.0301917  67.2306634
  76.6748933  65.9902687  68.1264284  76.5103046  65.3646633  66.7577045
  70.9843344  61.4369547  72.7559216  70.8463142  60.7049786  73.3570755
  71.8948268  61.3478447  72.4743403  73.6125645  61.1489506  72.2442895
  74.3225263  60.5082698  72.2029514  73.5694953  61.4002401  73.1669076
  81.6012423  68.0856860  75.1649474  81.5424970  67.4016080  74.4980057
  82.0031942  68.8275850  74.7130100  72.3254579  58.1354724  74.0638535
  71.7891936  57.6845463  74.7160131  71.7371287  58.2700633  73.3208999
  81.6029831  66.0496443  73.3963454  80.7156609  65.7122365  73.5189853
  82.1728382  65.3179475  73.6332219  78.2317414  55.7564295  66.5161724
  78.7286113  55.0034258  66.1962794  77.4604395  55.7928612  65.9504933
  86.0847171  61.4604661  68.1580016  86.0737047  62.3429376  67.7873949
  85.2164551  61.1076212  67.9634553  77.5929668  70.6084730  72.5182856
  78.3057640  71.2432195  72.4458757  77.1019696  70.7048596  71.7022858
  79.3147194  64.5135983  64.0900148  78.3803473  64.6337445  63.9204852
  79.4923863  63.6108449  63.8260157  82.7019746  60.3553302  64.6250182
  83.1680198  61.1881293  64.5510484  83.1527246  59.8898283  65.3295440
  72.6441581  68.3579173  73.3388427  73.3451041  68.9915656  73.4917821
  72.1736696  68.6993905  72.5784066  80.7695977  66.6997123  61.6236334
  81.0455821  66.5853718  62.5330208  79.9000476  66.3014608  61.5848507
  80.6736409  52.7233889  68.6641083  79.7599488  52.9538116  68.8323290
  81.1029510  52.8072333  69.5155115  80.4442867  60.9123781  71.1640977
  79.7914317  61.1599688  70.5093430  80.8223247  60.0987919  70.8303454
  77.4050041  70.9483474  65.2669147  77.5872435  70.1305130  65.7296900
  78.2283027  71.1651166  64.8294037  77.7392206  69.8751659  62.5284196
  78.2679973  69.3644114  61.9154358  78.0020426  69.5594189  63.3929729
  76.4930440  61.6543592  77.6507014  75.8171077  61.5537721  78.3209389
  77.3158074  61.4982806  78.1143011  75.2353223  72.9610519  71.8864630
  75.7871531  73.1242141  72.6513715  75.5759416  73.5514957  71.2144655
  69.6869989  57.3808802  76.1359549  70.3142028  56.9985879  76.7497073
  68.8297908  57.1623004  76.5015242  80.0864097  67.7871777  77.7413285
  80.6304001  68.4001735  77.2468239  79.5050942  68.3451355  78.2580298
  78.3721610  70.9092495  68.8728312  78.2472750  70.1082235  68.3639258
  79.0300701  71.4038688  68.3842282  80.4356519  68.7101515  70.5007862
  79.4886854  68.5906866  70.4286189  80.7839292  67.8224013  70.5834124
  72.7956092  54.5995654  74.3246104  73.3190494  54.8457950  75.0872414
  72.5768425  55.4315689  73.9049242  77.4402952  68.5054231  66.7012215
  77.2927914  67.5770939  66.8819785  78.2656445  68.5274322  66.2169290
  81.0437074  69.3282790  67.7877087  81.9683621  69.1225651  67.6501539
  80.8752377  69.0799191  68.6966429  74.0008637  55.5409349  72.0095775
  73.6605457  54.7417162  72.4116455  73.2947643  55.8411060  71.4372608
  75.8886201  56.7417670  70.3649093  75.6303979  57.6634741  70.3633424
  75.3571242  56.3448105  71.0549558  80.8332390  69.8468457  63.1439179
  81.0069268  69.2814880  62.3913031  81.3261281  70.6469352  62.9618669
  86.6871781  62.6104880  64.7629479  87.1302927  61.8612205  64.3648602
  85.8098291  62.6015017  64.3803211  81.8207562  69.1635222  60.2436077
  82.5158467  69.7841914  60.4623392  82.1630713  68.3130573  60.5188455
  83.7198986  66.6134927  61.7723408  84.2450310  66.9522200  61.0472728
  83.6321338  65.6781943  61.5886543  75.3819034  70.5269001  73.9013285
  75.6906161  70.2818148  74.7735984  76.1794516  70.7315639  73.4132155
  72.9238046  56.7026708  77.7973469  72.9726201  57.5788830  77.4151238
  73.4660560  56.1604101  77.2245112  83.4092892  67.2467831  77.0774606
  82.6188435  67.2291970  76.5379105  83.1726246  67.7856125  77.8323642
  83.5290767  64.0960297  74.3907334  83.5788772  63.9310305  75.3322857
  83.4204690  63.2287556  74.0005215  80.8194529  60.0791225  75.7066641
  81.7204392  59.9397690  75.4150639  80.8942504  60.2445680  76.6464819
  75.1537334  57.4558080  74.5519827  74.2840644  57.7491646  74.2802416
  75.3896815  58.0398525  75.2727091  85.0308964  66.5157239  74.6349356
  84.7393772  66.8787219  75.4712817  84.4181095  65.8024247  74.4562688
  86.2304646  64.0810119  67.1551926  87.0651537  64.5199923  67.3189487
  86.3663775  63.6048772  66.3360172  83.2796152  61.6389853  73.1029414
  83.7550273  61.8317500  72.2948265  82.3561717  61.6949039  72.8572798
  77.8576368  53.6737697  72.0685248  78.3758312  54.4098724  71.7431736
  77.5031501  53.9801690  72.9032007  75.9122431  69.2696973  59.1511171
  75.3396398  69.8887161  58.6981643  76.4855225  69.8196335  59.6851093
  81.9797821  58.5155613  71.3357720  82.9315244  58.6153711  71.3569944
  81.8101271  57.7233882  71.8455804  80.0012200  55.6011197  71.5217120
  79.4062132  55.8816209  70.8263609  79.7161897  56.0905098  72.2933862
  79.1319691  69.5534124  60.2819753  80.0650364  69.4879685  60.4852628
  79.0442904  70.3890390  59.8234286  81.7607707  68.8699994  57.2423701
  81.6821339  68.5359857  58.1359458  82.5817374  69.3621762  57.2415173
  84.4585899  61.7361733  70.4500019  84.4262219  60.7977734  70.6359703
  85.0686522  61.8145770  69.7165844  84.6080387  58.5272777  70.4958302
  84.0919436  57.7431233  70.3088231  85.4920336  58.1991493  70.6604822
  82.2691114  52.2713792  66.4554115  82.0715935  51.9628880  67.3397447
  82.8790820  52.9975431  66.5852045  90.2762448  62.7977740  69.5906056
  91.0065837  62.5363028  70.1513759  89.6669394  62.0606462  69.6308124
  88.3577746  60.9385603  70.1880507  87.6310909  60.8041568  69.5796999
  87.9425032  61.2462431  70.9937225  76.1807922  64.6575532  77.9527880
  77.1010931  64.8354131  78.1467927  76.1457505  63.7131578  77.8007579
  74.0497860  58.1409773  79.9853410  73.9494587  59.0904130  79.9165501
  73.8319402  57.8128012  79.1129480  81.4043568  54.2623224  63.7129311
  80.8242237  54.9208028  63.3307363  81.1379500  53.4400569  63.3016728
  79.8547134  53.6628282  65.9150631  80.3546912  53.7744816  65.1064950
  80.4982742  53.3589335  66.5551439  73.9129130  61.5706912  78.8018472
  73.4296212  62.3707272  79.0082361  73.9990069  61.5814856  77.8485916
  69.8402467  65.4611446  70.8386906  70.7945721  65.4295389  70.7716837
  69.6414991  65.0002070  71.6537132  70.4301849  64.0312562  73.4057703
  71.2494738  64.5256641  73.4292541  70.7038657  63.1144530  73.3775271
  80.1868446  56.4223315  62.7685659  79.2994301  56.7072965  62.5505854
  80.6022435  56.2617078  61.9212936  83.5382982  56.4469836  66.4839998
  84.3143372  56.9366288  66.7564615  82.8131116  56.8727890  66.9411868
  85.9755540  57.1597455  67.5413939  86.5700031  56.9193191  66.8307247
  86.0482124  56.4404585  68.1687475  79.3311659  66.1867989  56.8633679
  80.0347509  66.3917992  57.4791334  78.6074308  66.7544751  57.1282762
  80.1609469  61.9377851  62.9835949  80.1044671  62.3946402  62.1443581
  80.7137812  61.1768535  62.8058792  83.9714275  57.7267582  63.8086069
  83.7151210  57.3264218  64.6394276  83.3467143  58.4411376  63.6836208
  88.2826613  60.4663656  66.3157360  87.7226171  60.5356845  67.0888922
  87.6770117  60.2904640  65.5956856  81.2398357  66.6250518  58.9132139
  82.0743961  66.1931717  58.7309614  81.0782699  66.4532532  59.8409033
  80.8944249  63.1282632  60.2788478  80.8393053  62.9626903  59.3376922
  80.2690304  63.8358665  60.4350668  78.2090156  65.4331544  79.6042041
  79.0781316  65.6072196  79.2428676  77.7296907  66.2525960  79.4817770
  70.0234255  55.5118313  78.2024915  70.8865716  55.1555118  78.4128239
  69.4499665  55.1732208  78.8900319  89.8682632  77.1420170  69.0087316
  90.5061042  77.0226917  68.3050656  89.7503475  78.0901014  69.0675268
  86.6772338  77.0947598  68.9448840  86.3390849  76.9788662  68.0569375
  87.5462106  76.6938763  68.9249846  82.5359154  78.9483074  64.9345731
  81.9724019  78.8573011  64.1662019  82.4211549  78.1282979  65.4148224
  87.1592121  78.2482449  74.9035046  87.1480762  77.8535248  74.0315550
  87.3212760  77.5148522  75.4968817  80.0823586  80.4434266  67.7729952
  80.8744877  80.1025090  67.3576251  80.3220236  80.5529241  68.6932105
  88.1158712  82.6154042  60.2460196  87.4646692  83.2008122  59.8594210
  88.9103075  83.1460237  60.3055234  82.0414340  79.7043179  60.6447331
  82.8145216  79.1572166  60.5060206  82.3939738  80.5687428  60.8561792
  83.8799382  81.0319561  73.8514230  83.5889248  81.9365192  73.7360896
  84.5156366  81.0736089  74.5658299  84.8055589  78.4096410  70.4415590
  85.4019161  78.1852432  69.7272552  84.8630560  77.6681155  71.0441037
  84.3780617  75.8635845  58.2765780  84.6306138  75.3417366  57.5149243
  83.4405176  75.7001991  58.3792464  89.4223900  74.8671623  66.0840524
  90.2086989  74.4491047  65.7330941  89.6862604  75.7717716  66.2522172
  89.5933978  80.3044474  60.7829181  88.9579810  80.3779100  61.4950085
  89.2631384  80.8938073  60.1048260  94.8232327  74.8046857  66.9873502
  95.5557499  74.2346073  67.2211332  94.0671683  74.4168457  67.4280008
  84.0976906  77.7663951  60.4790155  83.9813164  77.0908854  61.1471240
  84.2079166  77.2796325  59.6622308  86.4408447  77.2274098  64.1836845
  86.0766654  76.7004719  64.8949766  87.2975563  76.8372567  64.0103330
  92.3457748  68.5168431  71.4468111  92.0141072  69.3863842  71.2229326
  91.7503361  68.2004715  72.1262141  86.0813934  72.2563998  59.1798193
  86.2488336  73.1244234  59.5468664  85.8911103  72.4191280  58.2559482
  88.8389267  80.7180977  70.8464024  88.5389990  81.6206016  70.7379831
  88.4940327  80.4513160  71.6985176  82.2901749  77.1694774  66.8800728
  81.3652245  77.0370988  67.0878420  82.5386162  77.9488993  67.3770670
  92.2386411  73.2363517  68.5261461  91.3303288  73.1678925  68.2320222
  92.1874007  73.7135462  69.3543286  86.0603155  74.7121655  60.1644860
  85.9402780  75.1578706  61.0030340  85.3655743  75.0606973  59.6058398
  79.6510560  76.8128047  67.7144517  79.7802941  77.0662526  68.6283929
  78.9708011  77.4055755  67.3949172  83.8210047  87.4825297  63.8134991
  83.7434077  88.4333122  63.8923472  83.2171691  87.1371170  64.4709918
  86.3127277  74.6553163  76.4696358  85.5360611  75.2147083  76.4599223
  86.9517840  75.1409945  76.9911228  94.1048057  71.4379955  70.3039335
  93.4622438  71.7312488  69.6579129  93.6002986  71.3232876  71.1092531
  91.7588221  75.1843129  60.9925194  92.6706077  75.4170515  60.8172892
  91.2497868  75.7680173  60.4300273  84.5673649  77.4638616  76.0314325
  85.3088333  78.0023660  75.7549149  83.8610635  78.0904905  76.1885877
  90.0428989  79.6067756  74.6286487  90.4512345  79.1650167  73.8841119
  89.3206250  79.0320384  74.8820680  86.3960059  74.5440363  72.0020044
  87.2421254  74.9679777  72.1454693  86.3358696  73.8873987  72.6958607
  90.3657803  80.1668947  68.3838776  89.7366666  80.3314661  67.6814843
  89.9783465  80.5810557  69.1549740  94.2447035  81.1023385  65.7383139
  93.5598073  81.4822286  65.1880173  94.3290885  81.7118711  66.4715087
  89.5459504  72.2044731  73.6601217  89.3020436  72.9586792  73.1235493
  89.8219435  72.5830079  74.4948464  91.4997967  78.7483344  72.3378483
  91.7114862  79.3915104  71.6612864  91.4527715  77.9145660  71.8700413
  89.1024196  71.3601164  69.2415055  88.2408675  71.6582418  69.5331793
  89.1286630  71.5771563  68.3096088  85.9185765  79.9043355  65.6488861
  86.3824111  80.1831058  64.8593483  85.6542563  79.0026800  65.4661951
  82.8109846  79.4514837  68.5868624  83.3811203  79.8802105  67.9486108
  83.4017958  79.1697421  69.2852810  84.8554651  76.0266507  62.4578426
  85.5578695  76.4787551  62.9252352  84.5235280  75.3850326  63.0858319
  83.3035013  74.6178264  76.8329635  82.6733673  75.2994545  77.0665032
  83.1971101  74.5061346  75.8882773  78.5979985  74.2850060  67.7595559
  77.8079039  74.5407589  67.2835670  79.0891233  75.0998398  67.8647600
  92.6143795  81.6255299  70.5100840  93.4361239  81.2235487  70.2283522
  92.6106198  81.5223533  71.4616956  80.5494731  74.6494639  64.7179036
  79.7525894  74.7613334  65.2362532  80.3220323  74.9881292  63.8519927
  86.3800398  81.1739343  72.6661551  86.4444831  81.6359750  73.5019722
  85.6711322  80.5436707  72.7943860  76.8817688  74.5380551  70.1910550
  77.1325727  75.4227560  70.4568126  77.4177237  74.3585152  69.4185642
 100.7049788  77.9694048  66.8585812  99.9513496  77.4001446  66.7029816
 100.8397329  77.9356712  67.8056446  86.0948416  82.8407450  62.5340531
  85.9594091  83.6858986  62.9625379  86.6358228  83.0426728  61.7706465
  82.5815756  68.9199030  79.1954886  82.1882701  68.3665228  79.8702530
  83.3981896  69.2309608  79.5861404  79.5477813  80.3582888  63.1068456
  80.0602334  81.1526138  63.2574021  80.2000526  79.6609179  63.0402058
  81.3572698  83.4748644  65.1891209  81.5339326  84.3966609  65.0012193
  82.1529531  83.1607064  65.6185589  85.4983717  70.3356909  76.7875143
  86.2393430  70.9364062  76.7079605  85.7301639  69.5934547  76.2293185
  80.6425055  75.5213276  75.0653372  80.5278570  74.6198533  75.3660471
  79.7869572  75.7676973  74.7138189  87.7216892  83.4631017  76.6640873
  87.2780746  82.6767395  76.3461778  88.3834106  83.6510167  75.9984764
  82.4804013  84.9926818  71.1901552  83.0311439  84.8643881  70.4178546
  81.6415489  85.2921707  70.8396444  89.8198130  83.7433816  74.6922274
  89.8016606  84.5642698  74.2002543  90.7418050  83.6187892  74.9172415
  86.2771184  81.2577946  75.5345783  86.8099521  80.4966234  75.3045091
  85.7485266  80.9651598  76.2769937  89.4440879  66.3638012  71.0639424
  89.1005149  67.2539654  70.9878535  89.8119842  66.1739670  70.2009009
  77.5126730  78.6871542  63.8828027  78.3501952  79.0968551  63.6661734
  77.6904998  77.7470985  63.8528220  89.4091162  76.3546623  59.5711860
  88.8937786  77.1251228  59.8100247  89.1368471  75.6811759  60.1944921
  86.9938273  71.1996324  64.6297098  86.1379870  70.8103174  64.4502737
  87.4065225  71.2788285  63.7696883  88.5237420  68.7342667  69.0288658
  88.0202215  68.6972802  68.2156463  88.8168027  69.6435410  69.0885314
  84.7680306  68.8181397  68.0354839  85.6333302  68.6224205  67.6760729
  84.8357815  68.5891749  68.9624196  94.3825436  79.1078978  61.5065033
  93.6054879  78.7690137  61.0620195  95.0616917  79.1131601  60.8319998
  89.1977465  74.2273715  61.3971641  88.8927601  74.5419864  62.2481784
  90.1507907  74.3055135  61.4398974  87.6423897  80.3863938  63.0464595
  87.1145259  79.6516698  62.7337832  87.1411400  81.1638615  62.8004563
  92.6216743  78.5812959  68.1631641  91.9640418  79.2712220  68.2511770
  93.4257142  78.9709391  68.5065627  82.3742625  71.0483605  65.4071206
  82.9486377  70.8258786  64.6744399  82.9613607  71.1172299  66.1599808
  91.4322202  76.9357332  66.2135583  91.9454084  77.5687323  66.7157292
  92.0823426  76.3358527  65.8478943  82.7012212  73.0788066  59.4267091
  81.8649524  73.4162752  59.7476366  82.5616982  72.9437046  58.4894228
  84.6765293  67.9224854  64.1346276  84.0229705  67.6073871  63.5102890
  84.6345767  67.3000594  64.8606099  85.7876497  78.2044149  56.0499568
  84.8803559  77.9733402  56.2490717  86.2847529  77.4081768  56.2373549
  88.6944576  86.9141656  58.9696254  88.0206275  87.2173353  59.5781212
  89.0810398  87.7170736  58.6201711  87.9103033  74.4106787  68.4593923
  86.9925594  74.6321734  68.3015611  88.3263176  74.4853098  67.6005631
  88.6938081  75.8098203  63.5896604  89.4409900  76.3219600  63.2803726
  88.9629670  75.4882256  64.4500997  86.9664731  78.3056744  60.5723558
  86.0575950  78.0215776  60.6696028  86.9959815  78.7255822  59.7126865
  92.1983998  81.9163333  64.3414725  91.7446325  81.0754243  64.3979916
  91.5677965  82.5524731  64.6789506  91.1416918  72.8455319  65.5715393
  90.4039675  72.3332705  65.9025635  91.3943691  72.4055701  64.7598670
  90.6416937  83.7539830  65.2764544  90.9339912  84.3144887  64.5576909
  91.1515558  84.0468391  66.0317703  91.2428545  65.6231571  66.1657162
  91.5487422  64.7628935  65.8783077  91.9681150  66.2149191  65.9656156
  77.5352901  76.0262258  64.5538760  77.3377301  75.4331618  63.8289827
  76.9799565  75.7214468  65.2714699  85.5149625  75.9185364  66.6733353
  85.5698235  74.9659201  66.5975830  84.7040827  76.0744803  67.1574652
  86.6640819  79.8465487  57.9111636  86.2260249  79.1301346  57.4517274
  87.4051259  80.0741602  57.3496728  83.4541985  74.5362424  64.4323732
  82.6409850  74.8356594  64.8388924  83.9500979  74.1418113  65.1498214
  85.6050563  84.5320181  66.3657997  85.5626741  84.7581027  65.4366529
  86.5213262  84.2983555  66.5143798  89.0516196  75.0004248  73.2638626
  89.4065584  75.2275722  74.1233092  89.6988328  75.3322625  72.6415881
  94.7813933  78.1222684  63.9687955  94.6431832  78.3124280  63.0409144
  94.4250152  78.8842067  64.4256006  82.9456060  72.1080779  70.0484967
  83.5855439  71.9669539  69.3507930  82.1133590  71.8215293  69.6723569
  94.8083313  80.1899211  68.9799226  95.2419820  80.0974500  69.8282281
  95.5214894  80.1656712  68.3419242  83.7216363  81.4083210  66.1619959
  84.5156962  80.9133530  65.9602534  83.0108056  80.8801073  65.7987665
  88.5411208  83.7901305  70.5132327  88.5948230  84.3592242  71.2810043
  87.6725989  83.9603190  70.1486364  80.0299127  75.5526292  62.2379712
  79.0996715  75.4910747  62.4549674  80.1256599  75.0302244  61.4416353
  79.9484676  72.0781104  64.8257954  80.2091493  72.9926438  64.7167114
  80.7701848  71.6105547  64.9754567  81.4209601  73.4918862  71.9956778
  82.0932655  73.2836224  71.3469427  80.5939388  73.2940948  71.5562011
  95.6698863  80.2322912  71.5132112  95.8634753  81.1368722  71.7591387
  95.5699481  79.7730331  72.3470697  87.3235173  70.1180803  74.0122439
  86.6763088  70.8170752  73.9186916  88.0936189  70.5516946  74.3798687
  90.7313971  80.3829655  77.0872992  90.5799478  80.1540206  76.1703076
  90.7218651  81.3400256  77.1004338  87.4999308  77.9561567  72.0719259
  88.4291368  78.1072727  71.8988226  87.0790338  78.0445588  71.2167905
  86.2987639  81.9812232  69.8417797  86.1598725  81.6131016  70.7143735
  85.5102236  82.4959871  69.6701754  86.8935791  87.0821328  61.1843333
  87.0687547  86.6109371  61.9988956  86.2068579  87.7087095  61.4124594
  87.8492855  81.3593835  67.2306634  87.5142687  81.3194605  68.1264284
  87.3496800  80.6938550  66.7577045  81.8237099  76.7661465  72.7559216
  81.6856896  76.0341703  73.3570755  82.7342022  76.6770365  72.4743403
  90.7852046  78.7049869  57.5043694  90.1681217  77.9796697  57.4076747
  90.3168535  79.4659229  57.1610768  84.4519399  76.4781424  72.2442895
  85.1619018  75.8374616  72.2029514  84.4088707  76.7294319  73.1669076
  92.4406178  83.4148777  75.1649474  92.3818724  82.7307997  74.4980057
  92.8425696  84.1567767  74.7130100  83.1648333  73.4646642  74.0638535
  82.6285690  73.0137380  74.7160131  82.5765042  73.5992551  73.3208999
  81.4596877  90.2310691  67.9583193  81.6993475  90.8629215  68.6362212
  80.6166073  89.8798731  68.2448553  82.5750592  72.9235293  56.6264998
  81.6980058  72.8024094  56.2627245  83.0508345  72.1321371  56.3743887
  92.4423585  81.3788361  73.3963454  91.5550364  81.0414283  73.5189853
  93.0122136  80.6471392  73.6332219  78.8987454  72.6002649  71.1491529
  78.8145643  71.9928319  70.4141939  78.0770161  73.0911668  71.1501025
  85.9724739  86.0389814  70.3624697  85.8994910  86.8444785  70.8744002
  85.5302132  86.2381779  69.5372719  85.7614518  85.2761584  63.8727519
  84.9782040  85.8183264  63.9665743  86.4607263  85.7935563  64.2721760
  89.0711168  71.0856213  66.5161724  89.5679868  70.3326175  66.1962794
  88.2998150  71.1220530  65.9504933  96.9240926  76.7896579  68.1580016
  96.9130802  77.6721294  67.7873949  96.0558305  76.4368129  67.9634553
  88.4323422  85.9376648  72.5182856  89.1451394  86.5724112  72.4458757
  87.9413451  86.0340514  71.7022858  90.1540949  79.8427900  64.0900148
  89.2197228  79.9629363  63.9204852  90.3317617  78.9400367  63.8260157
  85.6546137  73.2273596  66.2433409  85.2843925  72.6744636  66.9314314
  86.1505229  72.6231729  65.6908409  93.5413500  75.6845220  64.6250182
  94.0073953  76.5173211  64.5510484  93.9921001  75.2190201  65.3295440
  83.4835336  83.6871091  73.3388427  84.1844795  84.3207574  73.4917821
  83.0130451  84.0285823  72.5784066  91.6089731  82.0289041  61.6236334
  91.8849575  81.9145635  62.5330208  90.7394230  81.6306526  61.5848507
  91.5130163  68.0525806  68.6641083  90.5993243  68.2830033  68.8323290
  91.9423265  68.1364251  69.5155115  91.2836622  76.2415698  71.1640977
  90.6308072  76.4891606  70.5093430  91.6617001  75.4279837  70.8303454
  88.2443795  86.2775392  65.2669147  88.4266190  85.4597048  65.7296900
  89.0676781  86.4943084  64.8294037  88.5785961  85.2043577  62.5284196
  89.1073727  84.6936031  61.9154358  88.8414181  84.8886107  63.3929729
  87.3324195  76.9835510  77.6507014  86.6564832  76.8829639  78.3209389
  88.1551828  76.8274723  78.1143011  79.0803054  83.2207446  70.2719529
  79.6656490  82.4751134  70.4047434  78.8827892  83.5311403  71.1556193
  81.9341709  86.2558693  65.2881972  81.2652084  86.7404821  64.8046012
  81.7954579  86.5027914  66.2025350  86.0746977  88.2902437  71.8864630
  86.6265285  88.4534058  72.6513715  86.4153171  88.8806875  71.2144655
  81.0511471  70.6377587  72.4886515  81.1152797  71.4992418  72.0763913
  80.9878591  70.0251588  71.7558873  80.5263743  72.7100719  76.1359549
  81.1535782  72.3277797  76.7497073  79.6691662  72.4914921  76.5015242
  90.9257852  83.1163694  77.7413285  91.4697756  83.7293653  77.2468239
  90.3444697  83.6743273  78.2580298  89.2115365  86.2384412  68.8728312
  89.0866504  85.4374152  68.3639258  89.8694456  86.7330606  68.3842282
  80.8323533  72.5933145  68.0505453  80.1110119  73.2069113  67.9112926
  81.6216789  73.1290910  67.9722098  91.2750273  84.0393433  70.5007862
  90.3280609  83.9198784  70.4286189  91.6233046  83.1515931  70.5834124
  83.6349847  69.9287571  74.3246104  84.1584248  70.1749868  75.0872414
  83.4162180  70.7607606  73.9049242  79.0317128  72.1991246  62.1917229
  78.7029834  71.3188625  62.0092335  79.3856498  72.1438915  63.0793618
  88.2796706  83.8346149  66.7012215  88.1321669  82.9062856  66.8819785
  89.1050200  83.8566240  66.2169290  82.1458951  72.4864216  62.5592707
  82.4855023  73.0150137  61.8371315  82.5931071  72.8244622  63.3351273
  91.8830828  84.6574708  67.7877087  92.8077376  84.4517569  67.6501539
  91.7146132  84.4091109  68.6966429  84.8402392  70.8701267  72.0095775
  84.4999212  70.0709080  72.4116455  84.1341398  71.1702977  71.4372608
  85.4918863  67.9550579  70.4623098  86.3144933  67.4811057  70.3401988
  85.7356927  68.7341063  70.9621784  84.1327098  70.9838837  60.7586000
  84.8535460  71.3620090  60.2549716  83.5092402  71.7027714  60.8620977
  88.2758221  71.6883986  61.6944332  88.4921835  72.5708624  61.3933160
  87.7952288  71.2970200  60.9649974  83.0157442  74.6469700  68.2715076
  82.8702023  74.9610003  69.1639358  82.5382646  75.2654600  67.7185975
  84.8753825  71.6372248  68.3195966  84.8615394  70.7413341  67.9828264
  85.5926253  71.6442911  68.9534252  86.7279956  72.0709588  70.3649093
  86.4697734  72.9926659  70.3633424  86.1964996  71.6740022  71.0549558
  91.6726144  85.1760375  63.1439179  91.8463022  84.6106797  62.3913031
  92.1655036  85.9761270  62.9618669  77.4903104  77.1875044  71.2102738
  76.9456572  77.9634852  71.3423012  78.3682454  77.5345849  71.0521859
  84.2790721  70.5186628  63.5883536  84.4006632  69.5903274  63.7874424
  83.9892763  70.5325314  62.6761852  87.1481911  68.2041538  66.7250256
  87.1703608  68.2680871  65.7702236  87.5649970  67.3646047  66.9190762
  97.5265536  77.9396798  64.7629479  97.9696682  77.1904123  64.3648602
  96.6492046  77.9306934  64.3803211  92.6601317  84.4927139  60.2436077
  93.3552222  85.1133832  60.4623392  93.0024467  83.6422491  60.5188455
  78.2769126  76.3144940  74.1032894  77.5350862  76.4627576  74.6897525
  77.9561870  76.5753206  73.2399644  94.5592740  81.9426845  61.7723408
  95.0844064  82.2814118  61.0472728  94.4715093  81.0073860  61.5886543
  86.2212789  85.8560919  73.9013285  86.5299915  85.6110065  74.7735984
  87.0188271  86.0607557  73.4132155  86.2433401  88.0098828  66.1318661
  85.8038391  87.5175207  66.8251518  86.9941518  87.4671796  65.8910736
  78.7225740  84.2010369  66.1343289  79.5483760  83.9014141  65.7541933
  78.3719792  83.4317991  66.5833078  83.6907273  83.5536837  68.2040963
  83.0687282  82.8907542  67.9043191  84.3612140  83.5797969  67.5214611
  76.9234345  82.1196696  67.0932223  76.0866253  81.6918870  66.9116224
  76.8957990  82.3129139  68.0303014  83.7631800  72.0318625  77.7973469
  83.8119956  72.9080748  77.4151238  84.3054315  71.4896018  77.2245112
  94.2486646  82.5759749  77.0774606  93.4582190  82.5583887  76.5379105
  94.0120001  83.1148042  77.8323642  94.3684521  79.4252215  74.3907334
  94.4182526  79.2602222  75.3322857  94.2598445  78.5579474  74.0005215
  83.2520780  82.1040761  61.6799423  83.4008900  82.7876225  61.0266096
  84.0587223  82.0845851  62.1948879  91.6588284  75.4083143  75.7066641
  92.5598146  75.2689608  75.4150639  91.7336258  75.5737598  76.6464819
  85.9931089  72.7849998  74.5519827  85.1234398  73.0783564  74.2802416
  86.2290569  73.3690443  75.2727091  95.8702718  81.8449156  74.6349356
  95.5787526  82.2079137  75.4712817  95.2574849  81.1316165  74.4562688
  97.0698400  79.4102036  67.1551926  97.9045292  79.8491840  67.3189487
  97.2057529  78.9340689  66.3360172  94.1189906  76.9681771  73.1029414
  94.5944028  77.1609417  72.2948265  93.1955472  77.0240957  72.8572798
  81.0073413  78.1305938  62.6860492  80.7619455  77.2268268  62.8840702
  81.1769327  78.1323089  61.7439970  88.6970123  69.0029615  72.0685248
  89.2152067  69.7390642  71.7431736  88.3425256  69.3093608  72.9032007
  80.2769060  73.8634296  60.1846654  79.5838305  73.9378651  59.5286690
  80.0320812  73.0994639  60.7068171  88.9482717  65.4229897  67.5886144
  89.2284471  64.7553086  68.2146571  89.7333324  65.6158993  67.0760808
  86.7516185  84.5988891  59.1511171  86.1790153  85.2179078  58.6981643
  87.3248979  85.1488253  59.6851093  92.8191575  73.8447531  71.3357720
  93.7708998  73.9445629  71.3569944  92.6495026  73.0525800  71.8455804
  90.8405955  70.9303114  71.5217120  90.2455887  71.2108127  70.8263609
  90.5555651  71.4197015  72.2933862  89.9713445  84.8826041  60.2819753
  90.9044118  84.8171603  60.4852628  89.8836658  85.7182308  59.8234286
  92.6001462  84.1991912  57.2423701  92.5215093  83.8651775  58.1359458
  93.4211129  84.6913679  57.2415173  95.2979653  77.0653651  70.4500019
  95.2655973  76.1269652  70.6359703  95.9080277  77.1437688  69.7165844
  87.1362984  75.9349704  56.4927223  88.0822089  75.8055912  56.5615641
  86.7577229  75.1964366  56.9696651  95.4474142  73.8564694  70.4958302
  94.9313190  73.0723151  70.3088231  96.3314090  73.5283411  70.6604822
  93.1084868  67.6005710  66.4554115  92.9109690  67.2920798  67.3397447
  93.7184574  68.3267349  66.5852045 101.1156203  78.1269658  69.5906056
 101.8459591  77.8654946  70.1513759 100.5063148  77.3898380  69.6308124
  99.1971500  76.2677520  70.1880507  98.4704664  76.1333485  69.5796999
  98.7818787  76.5754349  70.9937225  87.0201676  79.9867450  77.9527880
  87.9404686  80.1646049  78.1467927  86.9851259  79.0423495  77.8007579
  85.3205901  73.8599680  56.4282108  84.4137356  73.5632793  56.5044822
  85.5981882  73.5629498  55.5616395  80.0163749  77.8968485  70.5950661
  80.2349759  78.8285592  70.6138695  80.4289523  77.5376459  71.3805465
  86.9367967  68.4036570  62.5826350  86.1268695  68.0583655  62.9581596
  87.6252384  68.0944114  63.1713961  88.8658515  67.4814617  64.2050646
  89.4189554  67.9010070  64.8640669  89.1028601  66.5550365  64.2473602
  84.8891614  73.4701690  79.9853410  84.7888341  74.4196047  79.9165501
  84.6713156  73.1419929  79.1129480  84.0904686  70.7186615  56.5694088
  84.9523850  71.0441514  56.8289905  84.2755030  69.9318111  56.0567153
  76.1072101  78.8008955  68.8474276  75.4135573  78.3862908  68.3344231
  76.8545092  78.8429492  68.2507695  92.2437322  69.5915142  63.7129311
  91.6635991  70.2499946  63.3307363  91.9773255  68.7692486  63.3016728
  90.6940889  68.9920200  65.9150631  91.1940667  69.1036734  65.1064950
  91.3376496  68.6881252  66.5551439  84.7522884  76.8998829  78.8018472
  84.2689966  77.6999189  79.0082361  84.8383823  76.9106774  77.8485916
  78.0208844  78.7327209  66.7240291  77.9979532  78.8314896  65.7722174
  78.3309480  79.5792360  67.0457457  80.6796222  80.7903364  70.8386906
  81.6339475  80.7587306  70.7716837  80.4808745  80.3293988  71.6537132
  81.2695604  79.3604480  73.4057703  82.0888493  79.8548559  73.4292541
  81.5432412  78.4436448  73.3775271  91.0262200  71.7515232  62.7685659
  90.1388055  72.0364883  62.5505854  91.4416189  71.5908996  61.9212936
  94.3776736  71.7761753  66.4839998  95.1537126  72.2658206  66.7564615
  93.6524870  72.2019807  66.9411868  96.8149295  72.4889372  67.5413939
  97.4093786  72.2485108  66.8307247  96.8875879  71.7696503  68.1687475
  79.0346451  86.3322983  67.8557104  78.9000919  85.5723384  67.2895102
  78.6178513  87.0563883  67.3885892  90.1705414  81.5159907  56.8633679
  90.8741264  81.7209909  57.4791334  89.4468062  82.0836669  57.1282762
  91.0003224  77.2669768  62.9835949  90.9438425  77.7238320  62.1443581
  91.5531566  76.5060453  62.8058792  94.8108030  73.0559500  63.8086069
  94.5544964  72.6556136  64.6394276  94.1860898  73.7703294  63.6836208
  99.1220368  75.7955573  66.3157360  98.5619926  75.8648763  67.0888922
  98.5163871  75.6196558  65.5956856  82.1915577  87.2292300  68.0675546
  82.0747961  88.1737733  67.9654236  81.3708023  86.9265862  68.4561345
  92.0792111  81.9542436  58.9132139  92.9137715  81.5223635  58.7309614
  91.9176454  81.7824450  59.8409033  91.7338003  78.4574549  60.2788478
  91.6786807  78.2918821  59.3376922  91.1084059  79.1650582  60.4350668
  76.5230518  73.6942614  74.1049900  77.1689382  73.1841568  74.5937126
  76.3147669  74.4311295  74.6793326  89.0483910  80.7623461  79.6042041
  89.9175070  80.9364114  79.2428676  88.5690662  81.5817878  79.4817770
  85.0434129  67.9582658  59.8573797  85.0312799  68.9024498  60.0142067
  85.9357551  67.7752804  59.5633258  83.2170091  87.8820562  71.2831475
  84.1197337  87.9144173  71.5997970  82.9907461  86.9521013  71.2977810
  84.9723693  86.6351549  67.9441553  84.0219324  86.6353410  67.8305926
  85.2756179  85.8884283  67.4277588  88.8586248  64.5525435  64.1119733
  88.0918644  63.9983922  64.2576416  89.2696953  64.6247304  64.9733885
  80.8628009  70.8410231  78.2024915  81.7259471  70.4847036  78.4128239
  80.2893420  70.5024126  78.8900319 100.7076386  92.4712087  69.0087316
 101.3454796  92.3518835  68.3050656 100.5897229  93.4192931  69.0675268
  97.5166092  92.4239515  68.9448840  97.1784604  92.3080580  68.0569375
  98.3855861  92.0230680  68.9249846  93.3752908  94.2774992  64.9345731
  92.8117773  94.1864929  64.1662019  93.2605303  93.4574896  65.4148224
  97.9985875  93.5774367  74.9035046  97.9874516  93.1827165  74.0315550
  98.1606515  92.8440440  75.4968817  90.9217340  95.7726183  67.7729952
  91.7138632  95.4317008  67.3576251  91.1613990  95.8821158  68.6932105
  98.9552467  97.9445959  60.2460196  98.3040447  98.5300040  59.8594210
  99.7496830  98.4752154  60.3055234  92.8808094  95.0335097  60.6447331
  93.6538970  94.4864084  60.5060206  93.2333493  95.8979346  60.8561792
  94.7193137  96.3611479  73.8514230  94.4283003  97.2657110  73.7360896
  95.3550121  96.4028007  74.5658299  95.6449343  93.7388327  70.4415590
  96.2412916  93.5144350  69.7272552  95.7024315  92.9973073  71.0441037
  95.2174372  91.1927763  58.2765780  95.4699893  90.6709284  57.5149243
  94.2798931  91.0293908  58.3792464 100.2617655  90.1963541  66.0840524
 101.0480744  89.7782964  65.7330941 100.5256359  91.1009633  66.2522172
 100.4327732  95.6336391  60.7829181  99.7973565  95.7071018  61.4950085
 100.1025138  96.2229990  60.1048260 105.6626082  90.1338774  66.9873502
 106.3951254  89.5637991  67.2211332 104.9065437  89.7460375  67.4280008
  94.9370661  93.0955869  60.4790155  94.8206919  92.4200772  61.1471240
  95.0472920  92.6088243  59.6622308  97.2802201  92.5566016  64.1836845
  96.9160409  92.0296637  64.8949766  98.1369317  92.1664485  64.0103330
 103.1851502  83.8460348  71.4468111 102.8534827  84.7155759  71.2229326
 102.5897116  83.5296632  72.1262141  96.9207688  87.5855915  59.1798193
  97.0882091  88.4536152  59.5468664  96.7304858  87.7483197  58.2559482
  99.6783022  96.0472894  70.8464024  99.3783745  96.9497933  70.7379831
  99.3334081  95.7805078  71.6985176  93.1295503  92.4986691  66.8800728
  92.2046000  92.3662905  67.0878420  93.3779916  93.2780910  67.3770670
 103.0780165  88.5655435  68.5261461 102.1697043  88.4970843  68.2320222
 103.0267761  89.0427380  69.3543286  96.8996909  90.0413573  60.1644860
  96.7796535  90.4870624  61.0030340  96.2049498  90.3898891  59.6058398
  90.4904314  92.1419965  67.7144517  90.6196695  92.3954444  68.6283929
  89.8101765  92.7347673  67.3949172  97.1521031  89.9845080  76.4696358
  96.3754365  90.5439000  76.4599223  97.7911594  90.4701863  76.9911228
 104.9441812  86.7671873  70.3039335 104.3016192  87.0604406  69.6579129
 104.4396740  86.6524793  71.1092531 102.5981976  90.5135046  60.9925194
 103.5099832  90.7462433  60.8172892 102.0891623  91.0972090  60.4300273
  95.4067404  92.7930534  76.0314325  96.1482088  93.3315578  75.7549149
  94.7004389  93.4196822  76.1885877 100.8822743  94.9359674  74.6286487
 101.2906099  94.4942085  73.8841119 100.1600005  94.3612302  74.8820680
  97.2353813  89.8732281  72.0020044  98.0815008  90.2971694  72.1454693
  97.1752451  89.2165905  72.6958607 101.2051558  95.4960865  68.3838776
 100.5760420  95.6606579  67.6814843 100.8177220  95.9102474  69.1549740
 100.3853259  87.5336649  73.6601217 100.1414190  88.2878710  73.1235493
 100.6613189  87.9121997  74.4948464 102.3391721  94.0775262  72.3378483
 102.5508617  94.7207021  71.6612864 102.2921470  93.2437578  71.8700413
  99.9417950  86.6893082  69.2415055  99.0802429  86.9874336  69.5331793
  99.9680385  86.9063481  68.3096088  96.7579520  95.2335273  65.6488861
  97.2217865  95.5122976  64.8593483  96.4936318  94.3318717  65.4661951
  93.6503601  94.7806754  68.5868624  94.2204958  95.2094023  67.9486108
  94.2411713  94.4989339  69.2852810  95.6948406  91.3558425  62.4578426
  96.3972449  91.8079469  62.9252352  95.3629034  90.7142244  63.0858319
  94.1428767  89.9470182  76.8329635  93.5127428  90.6286463  77.0665032
  94.0364855  89.8353263  75.8882773  89.4373740  89.6141978  67.7595559
  88.6472794  89.8699506  67.2835670  89.9284987  90.4290316  67.8647600
  91.3888485  89.9786557  64.7179036  90.5919648  90.0905251  65.2362532
  91.1614077  90.3173209  63.8519927  97.2194153  96.5031260  72.6661551
  97.2838585  96.9651667  73.5019722  96.5105077  95.8728625  72.7943860
  87.7211443  89.8672468  70.1910550  87.9719481  90.7519478  70.4568126
  88.2570991  89.6877070  69.4185642  96.9342170  98.1699368  62.5340531
  96.7987845  99.0150903  62.9625379  97.4751983  98.3718645  61.7706465
  93.4209510  84.2490948  79.1954886  93.0276456  83.6957146  79.8702530
  94.2375650  84.5601526  79.5861404  90.3871568  95.6874806  63.1068456
  90.8996088  96.4818056  63.2574021  91.0394281  94.9901096  63.0402058
  92.1966452  98.8040562  65.1891209  92.3733081  99.7258527  65.0012193
  92.9923286  98.4898981  65.6185589  96.3377471  85.6648827  76.7875143
  97.0787184  86.2655980  76.7079605  96.5695394  84.9226464  76.2293185
  91.4818809  90.8505194  75.0653372  91.3672324  89.9490451  75.3660471
  90.6263327  91.0968891  74.7138189  93.3197768 100.3218736  71.1901552
  93.8705193 100.1935799  70.4178546  92.4809244 100.6213625  70.8396444
  97.1164939  96.5869864  75.5345783  97.6493276  95.8258152  75.3045091
  96.5879020  96.2943515  76.2769937 100.2834634  81.6929930  71.0639424
  99.9398903  82.5831571  70.9878535 100.6513597  81.5031587  70.2009009
  88.3520485  94.0163460  63.8828027  89.1895707  94.4260468  63.6661734
  88.5298752  93.0762902  63.8528220 100.2484917  91.6838541  59.5711860
  99.7331540  92.4543145  59.8100247  99.9762225  91.0103677  60.1944921
  97.8332028  86.5288241  64.6297098  96.9773624  86.1395092  64.4502737
  98.2458979  86.6080202  63.7696883  99.3631174  84.0634585  69.0288658
  98.8595970  84.0264720  68.2156463  99.6561781  84.9727327  69.0885314
  95.6074060  84.1473314  68.0354839  96.4727057  83.9516123  67.6760729
  95.6751569  83.9183666  68.9624196 100.0371220  89.5565633  61.3971641
  99.7321355  89.8711782  62.2481784 100.9901662  89.6347053  61.4398974
  98.4817652  95.7155856  63.0464595  97.9539013  94.9808616  62.7337832
  97.9805154  96.4930532  62.8004563 103.4610498  93.9104877  68.1631641
 102.8034172  94.6004138  68.2511770 104.2650897  94.3001309  68.5065627
  93.2136379  86.3775522  65.4071206  93.7880131  86.1550704  64.6744399
  93.8007362  86.4464217  66.1599808 102.2715957  92.2649249  66.2135583
 102.7847838  92.8979241  66.7157292 102.9217180  91.6650445  65.8478943
  93.5405966  88.4079983  59.4267091  92.7043279  88.7454670  59.7476366
  93.4010736  88.2728963  58.4894228  95.5159047  83.2516771  64.1346276
  94.8623459  82.9365788  63.5102890  95.4739521  82.6292512  64.8606099
  96.6270252  93.5336066  56.0499568  95.7197314  93.3025320  56.2490717
  97.1241284  92.7373686  56.2373549  98.7496787  89.7398705  68.4593923
  97.8319349  89.9613652  68.3015611  99.1656931  89.8145015  67.6005631
  99.5331835  91.1390121  63.5896604 100.2803654  91.6511518  63.2803726
  99.8023425  90.8174173  64.4500997  97.8058485  93.6348661  60.5723558
  96.8969705  93.3507694  60.6696028  97.8353569  94.0547740  59.7126865
 101.9810672  88.1747237  65.5715393 101.2433429  87.6624623  65.9025635
 102.2337446  87.7347618  64.7598670 102.0822300  80.9523489  66.1657162
 102.3881176  80.0920852  65.8783077 102.8074904  81.5441109  65.9656156
  88.3746656  91.3554175  64.5538760  88.1771055  90.7623536  63.8289827
  87.8193320  91.0506386  65.2714699  96.3543379  91.2477282  66.6733353
  96.4091989  90.2951118  66.5975830  95.5434581  91.4036721  67.1574652
  97.5034573  95.1757405  57.9111636  97.0654003  94.4593264  57.4517274
  98.2445014  95.4033520  57.3496728  94.2935739  89.8654342  64.4323732
  93.4803605  90.1648512  64.8388924  94.7894733  89.4710030  65.1498214
  96.4444317  99.8612099  66.3657997  96.4020496 100.0872945  65.4366529
  97.3607016  99.6275473  66.5143798  99.8909951  90.3296166  73.2638626
 100.2459339  90.5567639  74.1233092 100.5382082  90.6614543  72.6415881
 105.6207688  93.4514602  63.9687955 105.4825586  93.6416198  63.0409144
 105.2643907  94.2133985  64.4256006  93.7849814  87.4372697  70.0484967
  94.4249193  87.2961456  69.3507930  92.9527345  87.1507210  69.6723569
  94.5610118  96.7375128  66.1619959  95.3550716  96.2425448  65.9602534
  93.8501810  96.2092991  65.7987665  90.8692881  90.8818209  62.2379712
  89.9390469  90.8202665  62.4549674  90.9650353  90.3594162  61.4416353
  90.7878430  87.4073022  64.8257954  91.0485248  88.3218355  64.7167114
  91.6095603  86.9397465  64.9754567  92.2603356  88.8210779  71.9956778
  92.9326409  88.6128141  71.3469427  91.4333142  88.6232865  71.5562011
  98.1628928  85.4472720  74.0122439  97.5156843  86.1462670  73.9186916
  98.9329943  85.8808864  74.3798687  98.3393062  93.2853485  72.0719259
  99.2685122  93.4364645  71.8988226  97.9184092  93.3737506  71.2167905
  97.1381394  97.3104150  69.8417797  96.9992480  96.9422934  70.7143735
  96.3495990  97.8251789  69.6701754  98.6886609  96.6885752  67.2306634
  98.3536442  96.6486522  68.1264284  98.1890555  96.0230468  66.7577045
  92.6630853  92.0953382  72.7559216  92.5250651  91.3633621  73.3570755
  93.5735776  92.0062282  72.4743403 101.6245801  94.0341787  57.5043694
 101.0074971  93.3088615  57.4076747 101.1562289  94.7951147  57.1610768
  95.2913154  91.8073342  72.2442895  96.0012772  91.1666534  72.2029514
  95.2482462  92.0586236  73.1669076  94.0042088  88.7938559  74.0638535
  93.4679445  88.3429298  74.7160131  93.4158796  88.9284468  73.3208999
  93.4144347  88.2527211  56.6264998  92.5373813  88.1316012  56.2627245
  93.8902100  87.4613289  56.3743887  84.9346487  93.0404371  66.7206505
  85.6217527  92.7266101  66.1327521  84.7794615  93.9445735  66.4473757
  89.7381209  87.9294567  71.1491529  89.6539398  87.3220237  70.4141939
  88.9163915  88.4203585  71.1501025  99.9104923  86.4148131  66.5161724
 100.4073622  85.6618093  66.1962794  99.1391904  86.4512447  65.9504933
 100.9934703  95.1719818  64.0900148 100.0590982  95.2921280  63.9204852
 101.1711372  94.2692285  63.8260157  96.4939892  88.5565514  66.2433409
  96.1237679  88.0036554  66.9314314  96.9898984  87.9523647  65.6908409
 104.3807255  91.0137137  64.6250182 104.8467707  91.8465129  64.5510484
 104.8314755  90.5482119  65.3295440  94.3229090  99.0163009  73.3388427
  95.0238550  99.6499492  73.4917821  93.8524205  99.3577740  72.5784066
 102.3523918  83.3817724  68.6641083 101.4386997  83.6121951  68.8323290
 102.7817019  83.4656168  69.5155115 102.1230376  91.5707616  71.1640977
 101.4701826  91.8183524  70.5093430 102.5010756  90.7571754  70.8303454
  98.1717949  92.3127427  77.6507014  97.4958586  92.2121557  78.3209389
  98.9945583  92.1566641  78.1143011  89.9196808  98.5499364  70.2719529
  90.5050245  97.8043052  70.4047434  89.7221647  98.8603320  71.1556193
  92.7735463 101.5850611  65.2881972  92.1045839 102.0696739  64.8046012
  92.6348333 101.8319832  66.2025350  84.5114463  91.1204964  68.9923973
  84.5498562  90.5868555  69.7861091  84.0054756  90.5940169  68.3734950
  91.8905225  85.9669504  72.4886515  91.9546552  86.8284335  72.0763913
  91.8272345  85.3543506  71.7558873  91.3657498  88.0392637  76.1359549
  91.9929537  87.6569714  76.7497073  90.5085417  87.8206839  76.5015242
  88.1423040  89.8469066  62.0677904  88.4376482  88.9379745  62.0144958
  87.2411076  89.8256806  61.7458906  91.6717287  87.9225063  68.0505453
  90.9503873  88.5361030  67.9112926  92.4610543  88.4582827  67.9722098
  94.4743601  85.2579489  74.3246104  94.9978003  85.5041786  75.0872414
  94.2555934  86.0899524  73.9049242  89.8710882  87.5283164  62.1917229
  89.5423588  86.6480543  62.0092335  90.2250253  87.4730832  63.0793618
  92.9852705  87.8156134  62.5592707  93.3248778  88.3442055  61.8371315
  93.4324826  88.1536540  63.3351273  95.6796146  86.1993184  72.0095775
  95.3392966  85.4000997  72.4116455  94.9735152  86.4994895  71.4372608
  96.3312618  83.2842497  70.4623098  97.1538687  82.8102975  70.3401988
  96.5750681  84.0632980  70.9621784  94.9720852  86.3130755  60.7586000
  95.6929215  86.6912008  60.2549716  94.3486156  87.0319632  60.8620977
  99.1151975  87.0175904  61.6944332  99.3315590  87.9000542  61.3933160
  98.6346042  86.6262118  60.9649974  93.8551197  89.9761617  68.2715076
  93.7095777  90.2901920  69.1639358  93.3776400  90.5946518  67.7185975
  95.7147579  86.9664165  68.3195966  95.7009148  86.0705259  67.9828264
  96.4320008  86.9734829  68.9534252  97.5673710  87.4001506  70.3649093
  97.3091488  88.3218576  70.3633424  97.0358751  87.0031940  71.0549558
  88.3296859  92.5166962  71.2102738  87.7850327  93.2926770  71.3423012
  89.2076209  92.8637766  71.0521859  95.1184475  85.8478546  63.5883536
  95.2400387  84.9195192  63.7874424  94.8286518  85.8617232  62.6761852
  97.9875666  83.5333456  66.7250256  98.0097363  83.5972789  65.7702236
  98.4043725  82.6937965  66.9190762  89.1162881  91.6436858  74.1032894
  88.3744617  91.7919493  74.6897525  88.7955625  91.9045124  73.2399644
  89.5619494  99.5302287  66.1343289  90.3877514  99.2306059  65.7541933
  89.2113546  98.7609909  66.5833078  94.5301027  98.8828755  68.2040963
  93.9081037  98.2199460  67.9043191  95.2005894  98.9089887  67.5214611
  87.7628099  97.4488613  67.0932223  86.9260008  97.0210788  66.9116224
  87.7351745  97.6421057  68.0303014  94.6025555  87.3610543  77.7973469
  94.6513710  88.2372666  77.4151238  95.1448069  86.8187936  77.2245112
  94.0914534  97.4332678  61.6799423  94.2402655  98.1168143  61.0266096
  94.8980978  97.4137768  62.1948879 102.4982038  90.7375061  75.7066641
 103.3991901  90.5981525  75.4150639 102.5730013  90.9029515  76.6464819
  96.8324843  88.1141915  74.5519827  95.9628153  88.4075481  74.2802416
  97.0684324  88.6982360  75.2727091 104.9583661  92.2973689  73.1029414
 105.4337782  92.4901335  72.2948265 104.0349226  92.3532875  72.8572798
  91.8467167  93.4597856  62.6860492  91.6013209  92.5560186  62.8840702
  92.0163082  93.4615006  61.7439970  99.5363877  84.3321532  72.0685248
 100.0545821  85.0682559  71.7431736  99.1819010  84.6385526  72.9032007
  91.1162815  89.1926214  60.1846654  90.4232060  89.2670568  59.5286690
  90.8714567  88.4286557  60.7068171  99.7876471  80.7521815  67.5886144
 100.0678225  80.0845004  68.2146571 100.5727078  80.9450910  67.0760808
 103.6585330  89.1739449  71.3357720 104.6102753  89.2737547  71.3569944
 103.4888780  88.3817717  71.8455804 101.6799709  86.2595032  71.5217120
 101.0849641  86.5400045  70.8263609 101.3949406  86.7488933  72.2933862
 106.1373408  92.3945569  70.4500019 106.1049728  91.4561569  70.6359703
 106.7474031  92.4729605  69.7165844  97.9756738  91.2641622  56.4927223
  98.9215843  91.1347830  56.5615641  97.5970983  90.5256283  56.9696651
 106.2867896  89.1856612  70.4958302 105.7706945  88.4015069  70.3088231
 107.1707845  88.8575329  70.6604822 103.9478623  82.9297628  66.4554115
 103.7503444  82.6212716  67.3397447 104.5578329  83.6559266  66.5852045
  97.8595431  95.3159368  77.9527880  98.7798440  95.4937967  78.1467927
  97.8245014  94.3715413  77.8007579  96.1599656  89.1891598  56.4282108
  95.2531111  88.8924711  56.5044822  96.4375637  88.8921416  55.5616395
  87.0777596  90.5097961  66.8781155  86.7580380  89.6563269  66.5855529
  86.5311024  90.7246539  67.6339122  90.8557503  93.2260402  70.5950661
  91.0743513  94.1577510  70.6138695  91.2683277  92.8668377  71.3805465
  97.7761721  83.7328488  62.5826350  96.9662450  83.3875573  62.9581596
  98.4646138  83.4236031  63.1713961  99.7052270  82.8106534  64.2050646
 100.2583308  83.2301988  64.8640669  99.9422356  81.8842283  64.2473602
  95.7285369  88.7993608  79.9853410  95.6282096  89.7487965  79.9165501
  95.5106911  88.4711847  79.1129480  94.9298440  86.0478533  56.5694088
  95.7917604  86.3733431  56.8289905  95.1148784  85.2610029  56.0567153
  86.9465856  94.1300873  68.8474276  86.2529327  93.7154826  68.3344231
  87.6938847  94.1721409  68.2507695 103.0831077  84.9207060  63.7129311
 102.5029746  85.5791864  63.3307363 102.8167009  84.0984404  63.3016728
 101.5334643  84.3212117  65.9150631 102.0334421  84.4328652  65.1064950
 102.1770251  84.0173170  66.5551439  95.5916639  92.2290747  78.8018472
  95.1083721  93.0291107  79.0082361  95.6777578  92.2398692  77.8485916
  88.8602598  94.0619127  66.7240291  88.8373287  94.1606814  65.7722174
  89.1703235  94.9084277  67.0457457  91.5189976  96.1195282  70.8386906
  92.4733230  96.0879224  70.7716837  91.3202500  95.6585905  71.6537132
  92.1089358  94.6896398  73.4057703  92.9282247  95.1840476  73.4292541
  92.3826166  93.7728366  73.3775271 101.8655955  87.0807150  62.7685659
 100.9781810  87.3656801  62.5505854 102.2809944  86.9200913  61.9212936
 105.2170491  87.1053671  66.4839998 105.9930881  87.5950123  66.7564615
 104.4918625  87.5311725  66.9411868 107.6543049  87.8181290  67.5413939
 108.2487540  87.5777026  66.8307247 107.7269633  87.0988421  68.1687475
  89.8740205 101.6614901  67.8557104  89.7394673 100.9015302  67.2895102
  89.4572267 102.3855801  67.3885892 101.0099168  96.8451825  56.8633679
 101.7135018  97.0501827  57.4791334 100.2861817  97.4128587  57.1282762
 101.8396978  92.5961686  62.9835949 101.7832180  93.0530237  62.1443581
 102.3925321  91.8352370  62.8058792 105.6501784  88.3851418  63.8086069
 105.3938719  87.9848053  64.6394276 105.0254652  89.0995212  63.6836208
 102.5731758  93.7866467  60.2788478 102.5180562  93.6210739  59.3376922
 101.9477813  94.4942500  60.4350668  87.3624273  89.0234532  74.1049900
  88.0083136  88.5133485  74.5937126  87.1541424  89.7603213  74.6793326
  95.8827883  83.2874576  59.8573797  95.8706553  84.2316416  60.0142067
  96.7751305  83.1044722  59.5633258  99.6980003  79.8817353  64.1119733
  98.9312398  79.3275839  64.2576416 100.1090708  79.9539222  64.9733885
  91.7021764  86.1702149  78.2024915  92.5653225  85.8138953  78.4128239
  91.1287174  85.8316043  78.8900319  39.1784137  -5.3622474  51.6591038
  38.6149002  -5.4532537  50.8907326  39.0636532  -6.1822570  52.1393530
  36.7248569  -3.8671282  54.4975258  37.5169861  -4.2080458  54.0821558
  36.9645219  -3.7576307  55.4177412  44.7583696  -1.6951506  46.9705503
  44.1071675  -1.1097426  46.5839517  45.5528058  -1.1645311  47.0300540
  38.6839323  -4.6062369  47.3692637  39.4570199  -5.1533382  47.2305513
  39.0364722  -3.7418120  47.5807099  40.5224365  -3.2785987  60.5759536
  40.2314231  -2.3740356  60.4606203  41.1581350  -3.2369459  61.2903606
  41.4480572  -5.9009138  57.1660896  42.0444144  -6.1253116  56.4517859
  41.5055544  -6.6424393  57.7686344  46.2358961  -4.0061074  47.5074487
  45.6004794  -3.9326448  48.2195392  45.9056367  -3.4167476  46.8293566
  40.7401889  -6.5441597  47.2035462  40.6238147  -7.2196694  47.8716546
  40.8504149  -7.0309223  46.3867615  45.4814250  -3.5924571  57.5709330
  45.1814974  -2.6899533  57.4625137  45.1365310  -3.8592388  58.4230483
  38.9326732  -7.1410775  53.6046035  38.0077228  -7.2734560  53.8123726
  39.1811145  -6.3616555  54.1015977  36.2935543  -7.4977501  54.4389824
  36.4227924  -7.2443022  55.3529235  35.6132994  -6.9049793  54.1194479
  40.4635030   3.1719749  50.5380298  40.3859060   4.1227574  50.6168778
  39.8596674   2.8265621  51.1955224  41.2098632  -6.8466932  62.7559632
  41.9513317  -6.3081888  62.4794455  40.5035618  -6.2200643  62.9131184
  46.6853972  -4.7037792  61.3531793  47.0937328  -5.1455381  60.6086426
  45.9631233  -5.2785164  61.6065986  47.0082787  -4.1436601  55.1084082
  46.3791649  -3.9790887  54.4060150  46.6208449  -3.7294992  55.8795046
  50.8872019  -3.2082163  52.4628446  50.2023057  -2.8283262  51.9125479
  50.9715868  -2.5986837  53.1960394  42.5610748  -4.4062193  52.3734167
  43.0249094  -4.1274490  51.5838790  42.2967547  -5.3078748  52.1907258
  39.4534830  -4.8590712  55.3113931  40.0236187  -4.4303443  54.6731415
  40.0442941  -5.1408127  56.0098116  49.2568778  -2.6850249  57.2346147
  50.0786222  -3.0870062  56.9528828  49.2531181  -2.7882015  58.1862263
  43.0225382  -3.1366206  59.3906857  43.0869814  -2.6745798  60.2265029
  42.3136305  -3.7668841  59.5189167  42.7373399  -1.4698098  49.2585838
  42.6019074  -0.6246562  49.6870685  43.2783212  -1.2678820  48.4951771
  36.1902797  -3.9522660  49.8313763  36.7027317  -3.1579410  49.9819327
  36.8425509  -4.6496370  49.7647364  37.9997681  -0.8356904  51.9136516
  38.1764310   0.0861061  51.7257500  38.7954515  -1.1498485  52.3430896
  44.3641876  -0.8474532  63.3886180  43.9205730  -1.6338153  63.0707084
  45.0259089  -0.6595381  62.7230070  39.1228997   0.6821270  57.9146858
  39.6736422   0.5538333  57.1423852  38.2840473   0.9816159  57.5641751
  46.4623114  -0.5671732  61.4167581  46.4441589   0.2537149  60.9247850
  47.3843034  -0.6917656  61.6417722  42.9196168  -3.0527602  62.2591089
  43.4524505  -3.8139314  62.0290397  42.3910249  -3.3453950  63.0015244
  34.1551713  -5.6234006  50.6073333  34.9926935  -5.2136997  50.3907041
  34.3329981  -6.5634564  50.5773527  44.2848880  -3.9241610  49.7709901
  43.7570242  -4.6588850  49.4583139  43.7836383  -3.1466933  49.5249870
  42.4301481  -6.1061399  42.7744874  41.5228542  -6.3372146  42.9736023
  42.9272513  -6.9023780  42.9618856  45.3369560   2.6036108  45.6941561
  44.6631258   2.9067805  46.3026518  45.7235382   3.4065188  45.3447018
  43.6089714  -6.0048805  47.2968864  42.7000933  -6.2889772  47.3941334
  43.6384798  -5.5849726  46.4372171  48.8408982  -2.3942215  51.0660032
  48.3871309  -3.2351305  51.1225223  48.2102948  -1.7580817  51.4034812
  47.2841921  -0.5565718  52.0009850  47.5764895   0.0039339  51.2822216
  47.7940541  -0.2637157  52.7563009  43.3065802  -4.4640061  44.6356943
  42.8685232  -5.1804202  44.1762580  44.0476243  -4.2363946  44.0742034
  42.2475546   0.2214633  53.0903303  42.2051725   0.4475479  52.1611835
  43.1638245  -0.0121993  53.2389105  40.3641347  -2.9022338  52.8865266
  41.1581945  -3.3972018  52.6847841  39.6533039  -3.4304475  52.5232972
  45.1836191  -0.5204243  57.2377634  45.2373213   0.0486694  58.0055350
  44.3150973  -0.3502358  56.8731671  47.3738955  -3.9275893  63.8118299
  47.2224461  -4.1565342  62.8948383  47.3643634  -2.9705292  63.8249644
  44.1424291  -6.3543981  58.7964566  45.0716351  -6.2032821  58.6233533
  43.7215321  -6.2659960  57.9413212  42.9412623  -2.3293316  56.5663103
  42.8023708  -2.6974532  57.4389041  42.1527219  -1.8145677  56.3947061
  43.5360775   2.7715780  47.9088640  43.7112530   2.3003823  48.7234262
  42.8493563   3.3981546  48.1369900  44.4917838  -2.9511714  53.9551941
  44.1567670  -2.9910944  54.8509591  43.9921784  -3.6166998  53.4822351
  38.4662082  -7.5444084  59.4804522  38.3281880  -8.2763845  60.0816061
  39.3767005  -7.6335183  59.1988710  49.0831161  -0.8956771  61.8894781
  49.0243707  -1.5797551  61.2225364  49.4850680  -0.1537781  61.4375407
  38.1021860   5.9205143  54.6828500  38.3418458   6.5523667  55.3607518
  37.2591056   5.5693183  54.9693859  49.0848568  -2.9317187  60.1208761
  48.1975347  -3.2691265  60.2435160  49.6547120  -3.6634156  60.3577526
  42.6149722   1.7284265  57.0870004  42.5419893   2.5339237  57.5989308
  42.1727115   1.9276231  56.2618025  42.4039501   0.9656035  50.5972825
  41.6207023   1.5077716  50.6911050  43.1032247   1.4830015  50.9967067
  45.0748405   1.6271099  59.2428163  45.7876378   2.2618564  59.1704064
  44.5838434   1.7234965  58.4268164  46.7965932  -4.4677648  50.8145454
  45.8622211  -4.3476185  50.6450159  46.9742601  -5.3705181  50.5505464
  40.1260319  -0.6234457  60.0633733  40.8269778   0.0102026  60.2163128
  39.6555434  -0.2819726  59.3029373  48.2514715  -2.2816507  48.3481640
  48.5274559  -2.3959913  49.2575514  47.3819213  -2.6799022  48.3093813
  44.8868779   1.9669844  51.9914454  45.0691173   1.1491499  52.4542206
  45.7101765   2.1837536  51.5539344  45.2210944   0.8938029  49.2529502
  45.7498711   0.3830483  48.6399665  45.4839164   0.5780559  50.1175036
  35.7228037  -1.0898102  56.9964836  36.3081474  -1.8354414  57.1292740
  35.5252875  -0.7794145  57.8801500  38.5766692   1.9453145  52.0127278
  37.9077067   2.4299273  51.5291318  38.4379562   2.1922366  52.9270657
  42.7171961   3.9796889  58.6109937  43.2690269   4.1428510  59.3759022
  43.0578154   4.5701327  57.9389962  47.5682835  -1.1941854  64.4658591
  48.1122739  -0.5811895  63.9713546  46.9869680  -0.6362275  64.9825604
  45.8540348   1.9278864  55.5973619  45.7291487   1.1268604  55.0884564
  46.5119439   2.4225058  55.1087589  47.9175256  -0.2712116  57.2253169
  46.9705592  -0.3906764  57.1531496  48.2658030  -1.1589617  57.3079430
  44.9221690  -0.4759399  53.4257521  44.7746652  -1.4042692  53.6065091
  45.7475183  -0.4539309  52.9414596  48.5255812   0.3469159  54.5122394
  49.4502359   0.1412021  54.3746845  48.3571115   0.0985561  55.4211736
  48.3151128   0.8654827  49.8684485  48.4888005   0.3001249  49.1158338
  48.8080019   1.6655722  49.6863975  34.1328088  -7.1230504  57.9348044
  33.5881556  -6.3470696  58.0668319  35.0107437  -6.7759700  57.7767166
  49.3026300   0.1821591  46.9681384  49.9977205   0.8028284  47.1868698
  49.6449450  -0.6683058  47.2433762  51.2017723  -2.3678703  48.4968715
  51.7269047  -2.0291430  47.7718035  51.1140076  -3.3031688  48.3131849
  42.8637772   1.5455370  60.6258591  43.1724899   1.3004517  61.4981291
  43.6613254   1.7502009  60.1377461  42.8858384   3.6993280  52.8563968
  42.4463374   3.2069659  53.5496824  43.6366501   3.1566248  52.6156043
  35.3650723  -0.1095179  52.8588596  36.1908743  -0.4091407  52.4787239
  35.0144775  -0.8787557  53.3078384  40.3332256  -0.7568711  54.9286269
  39.7112266  -1.4198006  54.6288497  41.0037123  -0.7307579  54.2459917
  33.5659328  -2.1908853  53.8177529  32.7291236  -2.6186678  53.6361531
  33.5382974  -1.9976409  54.7548321  50.8911629  -1.7345800  63.8019912
  50.1007173  -1.7521661  63.2624412  50.6544984  -1.1957506  64.5568949
  39.8945763  -2.2064787  48.4044730  40.0433884  -1.5229323  47.7511403
  40.7012207  -2.2259697  48.9194186  52.5127701  -2.4656392  61.3594663
  52.2212510  -2.1026411  62.1958124  51.8999833  -3.1789383  61.1807995
  37.6498396  -6.1799610  49.4105799  37.4044438  -7.0837280  49.6086009
  37.8194311  -6.1782459  48.4685277  43.3941169   0.2883343  45.8756477
  42.8215136   0.9073530  45.4226949  43.9673962   0.8382705  46.4096399
  46.6138429   0.5720493  47.0065060  47.5469102   0.5066055  47.2097935
  46.5261641   1.4076760  46.5479592  49.2426445  -0.1113637  43.9669007
  49.1640077  -0.4453773  44.8604765  50.0636112   0.3808131  43.9660480
  43.6626660  -4.3238098  64.6773187  44.5829669  -4.1459499  64.8713233
  43.6276243  -5.2682053  64.5252886  36.6588732  -6.4137063  57.3195968
  36.8774742  -5.4819956  57.3384002  37.0714506  -6.7729089  58.1050772
  32.7497085  -5.5096593  55.5719583  32.0560556  -5.9242640  55.0589537
  33.4970076  -5.4676056  54.9753002  41.3947868  -7.4106719  65.5263779
  40.9114949  -6.6106359  65.7327668  41.4808807  -7.3998774  64.5731223
  34.6633827  -5.5778339  53.4485598  34.6404515  -5.4790652  52.4967481
  34.9734464  -4.7313188  53.7702764  37.3221205  -3.5202184  57.5632212
  38.2764459  -3.5518242  57.4962144  37.1233729  -3.9811560  58.3782438
  37.9120587  -4.9501068  60.1303010  38.7313476  -4.4556989  60.1537847
  38.1857395  -5.8669100  60.1020578  35.6771434   2.0217435  54.5802410
  35.5425902   1.2617836  54.0140408  35.2603496   2.7458335  54.1131199
  46.8130397  -2.7945641  43.5878985  47.5166247  -2.5895639  44.2036641
  46.0893046  -2.2268879  43.8528069  38.8340560   2.9186752  54.7920853
  38.7172944   3.8632185  54.6899543  38.0133006   2.6160314  55.1806652
  48.7217094  -2.3563112  45.6377446  49.5562698  -2.7881913  45.4554920
  48.5601437  -2.5281098  46.5654340  45.6908894  -3.5482087  66.3287348
  46.5600053  -3.3741435  65.9673983  45.2115645  -2.7287670  66.2063077
  39.8595074   3.5715014  58.0076781  40.7622321   3.6038624  58.3243276
  39.6332444   2.6415465  58.0223117  41.6148676   2.3246001  54.6686860
  40.6644307   2.3247862  54.5551232  41.9181162   1.5778735  54.1522895
  57.3501369   8.1606539  55.7332622  57.9879779   8.0413287  55.0295962
  57.2322212   9.1087383  55.7920574  54.1591076   8.1133967  55.6694147
  53.8209587   7.9975032  54.7814682  55.0280844   7.7125132  55.6495153
  50.0177891   9.9669444  51.6591038  49.4542757   9.8759381  50.8907326
  49.9030286   9.1469348  52.1393530  54.6410859   9.2668819  61.6280353
  54.6299499   8.8721617  60.7560856  54.8031498   8.5334892  62.2214124
  47.5642323  11.4620635  54.4975258  48.3563615  11.1211460  54.0821558
  47.8038974  11.5715610  55.4177412  55.5977450  13.6340411  46.9705503
  54.9465430  14.2194492  46.5839517  56.3921813  14.1646606  47.0300540
  49.5233077  10.7229549  47.3692637  50.2963953  10.1758536  47.2305513
  49.8758476  11.5873798  47.5807099  51.3618120  12.0505931  60.5759536
  51.0707986  12.9551562  60.4606203  51.9975104  12.0922458  61.2903606
  52.2874327   9.4282779  57.1660896  52.8837899   9.2038802  56.4517859
  52.3449298   8.6867525  57.7686344  51.8599355   6.8822215  45.0011087
  52.1124876   6.3603736  44.2394550  50.9223914   6.7188360  45.1037771
  56.9042638   5.8857993  52.8085830  57.6905727   5.4677416  52.4576247
  57.1681342   6.7904085  52.9767479  57.0752715  11.3230843  47.5074487
  56.4398548  11.3965470  48.2195392  56.7450122  11.9124442  46.8293566
  62.3051065   5.8233226  53.7118809  63.0376237   5.2532443  53.9456638
  61.5490421   5.4354827  54.1525314  51.5795644   8.7850321  47.2035462
  51.4631902   8.1095224  47.8716546  51.6897904   8.2982695  46.3867615
  53.9227185   8.2460468  50.9082151  53.5585392   7.7191089  51.6195073
  54.7794301   7.8558937  50.7348637  59.8276485  -0.4645200  58.1713417
  59.4959810   0.4050211  57.9474632  59.2322099  -0.7808916  58.8507448
  53.5632672   3.2750367  45.9043500  53.7307074   4.1430604  46.2713971
  53.3729841   3.4377649  44.9804789  56.3208005  11.7367346  57.5709330
  56.0208728  12.6392385  57.4625137  55.9759064  11.4699530  58.4230483
  49.7720486   8.1881143  53.6046035  48.8470983   8.0557357  53.8123726
  50.0204900   8.9675362  54.1015977  59.7205149   4.2549886  55.2506768
  58.8122026   4.1865295  54.9565528  59.6692745   4.7321831  56.0788593
  53.5421893   5.7308025  46.8890167  53.4221518   6.1765076  47.7275647
  52.8474481   6.0793343  46.3303705  47.1329297   7.8314417  54.4389824
  47.2621679   8.0848896  55.3529235  46.4526749   8.4242125  54.1194479
  51.3028785  18.5011667  50.5380298  51.2252814  19.4519492  50.6168778
  50.6990428  18.1557539  51.1955224  53.7946015   5.6739532  63.1941665
  53.0179349   6.2333452  63.1844529  54.4336578   6.1596315  63.7156535
  61.5866795   2.4566325  57.0284641  60.9441175   2.7498858  56.3824436
  61.0821724   2.3419245  57.8337838  59.2406959   6.2029498  47.7170501
  60.1524815   6.4356885  47.5418198  58.7316606   6.7866542  47.1545579
  52.0492387   8.4824985  62.7559632  52.7907071   9.0210029  62.4794455
  51.3429372   9.1091274  62.9131184  57.5247726  10.6254126  61.3531793
  57.9331082  10.1836536  60.6086426  56.8024988  10.0506753  61.6065986
  53.8778797   5.5626733  58.7265350  54.7239992   5.9866146  58.8699999
  53.8177434   4.9060357  59.4203913  57.8476541  11.1855317  55.1084082
  57.2185404  11.3501031  54.4060150  57.4602203  11.5996926  55.8795046
  61.7265773  12.1209754  52.4628446  61.0416811  12.5008656  51.9125479
  61.8109622  12.7305081  53.1960394  57.0278242   3.2231101  60.3846524
  56.7839174   3.9773162  59.8480800  57.3038172   3.6016449  61.2193771
  58.9816705   9.7669713  59.0623789  59.1933600  10.4101473  58.3858171
  58.9346453   8.9332030  58.5945720  56.5842934   2.3787534  55.9660362
  55.7227413   2.6768788  56.2577099  56.6105368   2.5957933  55.0341394
  53.4004503  10.9229725  52.3734167  53.8642849  11.2017428  51.5838790
  53.1361301  10.0213169  52.1907258  50.2928584  10.4701206  55.3113931
  50.8629941  10.8988475  54.6731415  50.8836696  10.1883791  56.0098116
  52.3373389   7.0452877  49.1823732  53.0397432   7.4973921  49.6497659
  52.0054018   6.4036696  49.8103626  50.7853751   5.6364634  63.5574942
  50.1552411   6.3180914  63.7910339  50.6789838   5.5247715  62.6128080
  46.0798723   5.3036430  54.4840866  45.2897777   5.5593958  54.0080977
  46.5709970   6.1184767  54.5892906  60.0962533  12.6441669  57.2346147
  60.9179976  12.2421856  56.9528828  60.0924935  12.5409903  58.1862263
  48.0313468   5.6681009  51.4424343  47.2344632   5.7799703  51.9607838
  47.8039061   6.0067661  50.5765233  53.8619136  12.1925712  59.3906857
  53.9263569  12.6546119  60.2265029  53.1530060  11.5623077  59.5189167
  44.3636426   5.5566920  56.9155857  44.6144464   6.4413930  57.1813433
  44.8995974   5.3771522  56.1430949  68.1868526   8.9880417  53.5831118
  67.4332234   8.4187815  53.4275123  68.3216067   8.9543082  54.5301753
  53.5767154  13.8593820  49.2585838  53.4412828  14.7045355  49.6870685
  54.1176966  14.0613097  48.4951771  50.0634493  -0.0614601  65.9200193
  49.6701439  -0.6148402  66.5947837  50.8800634   0.2495978  66.3106710
  47.0296551  11.3769258  49.8313763  47.5421072  12.1712508  49.9819327
  47.6819264  10.6795548  49.7647364  48.8391436  14.4935014  51.9136516
  49.0158064  15.4152979  51.7257500  49.6348269  14.1793433  52.3430896
  52.9802454   1.3543279  63.5120449  53.7212168   1.9550432  63.4324912
  53.2120377   0.6120916  62.9538492  48.1243792   6.5399646  61.7898679
  48.0097307   5.6384903  62.0905778  47.2688310   6.7863343  61.4383496
  55.2035630  14.4817386  63.3886180  54.7599484  13.6953765  63.0707084
  55.8652844  14.6696537  62.7230070  49.9622751  16.0113188  57.9146858
  50.5130176  15.8830251  57.1423852  49.1234227  16.3108077  57.5641751
  57.3016868  14.7620186  61.4167581  57.2835343  15.5829067  60.9247850
  58.2236788  14.6374261  61.6417722  53.7589922  12.2764316  62.2591089
  54.2918259  11.5152604  62.0290397  53.2304003  11.9837967  63.0015244
  44.9945468   9.7057912  50.6073333  45.8320690  10.1154920  50.3907041
  45.1723736   8.7657354  50.5773527  56.8909900   7.3732993  46.2957166
  56.3756523   8.1437597  46.5345554  56.6187208   6.6998129  46.9190228
  54.4757011   2.2182693  51.3542405  53.6198607   1.8289544  51.1748043
  54.8883963   2.2974654  50.4942190  56.0056158  -0.2470963  55.7533964
  55.5020953  -0.2840828  54.9401770  56.2986764   0.6621779  55.8130621
  52.2499044  -0.1632234  54.7600146  53.1152040  -0.3589425  54.4006036
  52.3176552  -0.3921882  55.6869503  61.8644174  10.1265347  48.2310340
  61.0873617   9.7876507  47.7865502  62.5435655  10.1317970  47.5565305
  56.6796203   5.2460085  48.1216947  56.3746339   5.5606234  48.9727091
  57.6326645   5.3241505  48.1644280  55.1242635  11.4050308  49.7709901
  54.5963997  10.6703068  49.4583139  54.6230138  12.1824984  49.5249870
  60.1035481   9.5999328  54.8876948  59.4459155  10.2898590  54.9757076
  60.9075880   9.9895760  55.2310934  49.8561363   2.0669974  52.1316513
  50.4305114   1.8445156  51.3989706  50.4432345   2.1358669  52.8845114
  58.9140940   7.9543701  52.9380889  59.4272822   8.5873693  53.4402599
  59.5642164   7.3544897  52.5724249  50.1830950   4.0974435  46.1512398
  49.3468262   4.4349122  46.4721673  50.0435719   3.9623415  45.2139535
  52.1584030  -1.0588777  50.8591582  51.5048443  -1.3739760  50.2348197
  52.1164504  -1.6813036  51.5851405  53.2695235   9.2230518  42.7744874
  52.3622297   8.9919772  42.9736023  53.7666267   8.4268138  42.9618856
  56.1763314  17.9328025  45.6941561  55.5025013  18.2359722  46.3026518
  56.5629136  18.7357106  45.3447018  55.3921771   5.4293157  55.1839230
  54.4744332   5.6508104  55.0260918  55.8081914   5.5039467  54.3250937
  56.1756818   6.8284572  50.3141910  56.9228637   7.3405970  50.0049032
  56.4448408   6.5068625  51.1746304  54.4483469   9.3243113  47.2968864
  53.5394688   9.0402146  47.3941334  54.4778552   9.7442192  46.4372171
  59.6802736  12.9349703  51.0660032  59.2265063  12.0940613  51.1225223
  59.0496703  13.5711101  51.4034812  58.6235656   3.8641689  52.2960699
  57.8858412   3.3519075  52.6270942  58.8762429   3.4242070  51.4843976
  58.1235675  14.7726199  52.0009850  58.4158650  15.3331256  51.2822216
  58.6334296  15.0654760  52.7563009  45.0171639   7.0448627  51.2784067
  44.8196039   6.4517988  50.5535133  44.4618303   6.7400837  51.9960005
  52.9968363   6.9371734  53.3978660  53.0516972   5.9845570  53.3221136
  52.1859565   7.0931173  53.8819958  54.1459556  10.8651857  44.6356943
  53.7078986  10.1487716  44.1762580  54.8869997  11.0927972  44.0742034
  50.9360723   5.5548793  51.1569039  50.1228588   5.8542964  51.5634231
  51.4319717   5.1604482  51.8743521  53.0869300  15.5506550  53.0903303
  53.0445479  15.7767397  52.1611835  54.0031999  15.3169925  53.2389105
  56.5334934   6.0190618  59.9883933  56.8884322   6.2462091  60.8478398
  57.1807065   6.3508995  59.3661188  62.2632671   9.1409054  50.6933262
  62.1250570   9.3310650  49.7654451  61.9068890   9.9028437  51.1501313
  50.4274797   3.1267149  56.7730274  51.0674177   2.9855908  56.0753237
  49.5952328   2.8401662  56.3968876  62.2902051  11.2085581  55.7044533
  62.7238557  11.1160870  56.5527587  63.0033631  11.1843081  55.0664549
  51.2035101  12.4269579  52.8865266  51.9975700  11.9319900  52.6847841
  50.4926794  11.8987443  52.5232972  56.0229946  14.8087675  57.2377634
  56.0766968  15.3778611  58.0055350  55.1544727  14.9789560  56.8731671
  47.5117865   6.5712661  48.9625019  46.5815453   6.5097117  49.1794981
  47.6075337   6.0488614  48.1661660  47.4303414   3.0967474  51.5503260
  47.6910231   4.0112807  51.4412421  48.2520586   2.6291917  51.6999873
  48.9028339   4.5105231  58.7202085  49.5751392   4.3022593  58.0714734
  48.0758126   4.3127317  58.2807317  63.1517600  11.2509281  58.2377419
  63.3453490  12.1555092  58.4836693  63.0518219  10.7916701  59.0716004
  54.8053911   1.1367172  60.7367746  54.1581826   1.8357122  60.6432222
  55.5754926   1.5703316  61.1043994  58.2132709  11.4016024  63.8118299
  58.0618215  11.1726576  62.8948383  58.2037388  12.3586626  63.8249644
  54.9818045   8.9747937  58.7964566  55.9110105   9.1259097  58.6233533
  54.5609075   9.0631958  57.9413212  53.7806377  12.9998601  56.5663103
  53.6417463  12.6317386  57.4389041  52.9920973  13.5146241  56.3947061
  54.3754529  18.1007698  47.9088640  54.5506285  17.6295741  48.7234262
  53.6887317  18.7273464  48.1369900  55.3311592  12.3780204  53.9551941
  54.9961425  12.3380974  54.8509591  54.8315538  11.7124920  53.4822351
  49.3055836   7.7847834  59.4804522  49.1675634   7.0528073  60.0816061
  50.2160760   7.6956734  59.1988710  58.2670784   9.7236238  44.2289001
  57.6499955   8.9983067  44.1322053  57.7987272  10.4845599  43.8856075
  51.9338137   7.4967793  58.9688202  52.6437756   6.8560986  58.9274820
  51.8907445   7.7480688  59.8914383  59.9224916  14.4335147  61.8894781
  59.8637462  13.7494367  61.2225364  60.3244434  15.1754137  61.4375407
  50.6467071   4.4833011  60.7883841  50.1104428   4.0323750  61.4405438
  50.0583779   4.6178920  60.0454306  48.9415614  21.2497061  54.6828500
  49.1812213  21.8815585  55.3607518  48.0984811  20.8985101  54.9693859
  50.0569330   3.9421663  43.3510305  49.1798796   3.8210464  42.9872552
  50.5327083   3.1507741  43.0989194  59.9242323  12.3974731  60.1208761
  59.0369102  12.0600653  60.2435160  60.4940874  11.6657762  60.3577526
  41.5771470   8.7298822  53.4451812  42.2642510   8.4160553  52.8572827
  41.4219599   9.6340187  53.1719063  46.3806192   3.6189019  57.8736836
  46.2964381   3.0114689  57.1387246  45.5588899   4.1098037  57.8746332
  53.4543476  17.0576183  57.0870004  53.3813648  17.8631155  57.5989308
  53.0120869  17.2568149  56.2618025  53.2433256  16.2947953  50.5972825
  52.4600778  16.8369633  50.6911050  53.9426001  16.8121933  50.9967067
  56.5529906   2.1042583  53.2407031  57.0498606   1.3512545  52.9208101
  55.7816888   2.1406899  52.6750240  64.4059663   7.8082948  54.8825322
  64.3949540   8.6907664  54.5119255  63.5377043   7.4554499  54.6879859
  55.9142160  16.9563017  59.2428163  56.6270132  17.5910482  59.1704064
  55.4232188  17.0526883  58.4268164  57.6359687  10.8614270  50.8145454
  56.7015965  10.9815732  50.6450159  57.8136355   9.9586737  50.5505464
  53.1364875   4.2459966  52.9678715  52.7662662   3.6931006  53.6559621
  53.6323967   3.6418099  52.4153715  61.0232238   6.7031589  51.3495488
  61.4892690   7.5359581  51.2755791  61.4739739   6.2376571  52.0540747
  50.9654073  14.7057461  60.0633733  51.6663533  15.3393944  60.2163128
  50.4949188  15.0472192  59.3029373  59.0908469  13.0475410  48.3481640
  59.3668313  12.9332005  49.2575514  58.2212968  12.6492895  48.3093813
  58.9948901  -0.9287824  55.3886390  58.0811981  -0.6983597  55.5568597
  59.4242002  -0.8449380  56.2400422  58.7655359   7.2602068  57.8886284
  58.1126810   7.5077975  57.2338736  59.1435739   6.4466206  57.5548761
  55.7262533  17.2961761  51.9914454  55.9084928  16.4783417  52.4542206
  56.5495519  17.5129453  51.5539344  56.0604699  16.2229946  49.2529502
  56.5892465  15.7122401  48.6399665  56.3232918  15.9072477  50.1175036
  54.8142932   8.0021879  64.3752321  54.1383569   7.9016008  65.0454696
  55.6370566   7.8461093  64.8388318  46.5621791  14.2393816  56.9964836
  47.1475228  13.4937504  57.1292740  46.3646630  14.5497772  57.8801500
  49.4160447  17.2745063  52.0127278  48.7470822  17.7591191  51.5291318
  49.2773316  17.5214283  52.9270657  41.1539446   6.8099416  55.7169279
  41.1923546   6.2763007  56.5106397  40.6479739   6.2834621  55.0980256
  53.5565715  19.3088807  58.6109937  54.1084023  19.4720428  59.3759022
  53.8971909  19.8993244  57.9389962  48.5330208   1.6563956  59.2131821
  48.5971535   2.5178787  58.8009219  48.4697329   1.0437958  58.4804180
  48.0082481   3.7287089  62.8604856  48.6354520   3.3464166  63.4742380
  47.1510400   3.5101291  63.2260548  58.4076590  14.1350064  64.4658591
  58.9516494  14.7480022  63.9713546  57.8263434  14.6929642  64.9825604
  44.7848024   5.5363518  48.7923211  45.0801465   4.6274196  48.7390264
  43.8836060   5.5151257  48.4704213  56.6934103  17.2570782  55.5973619
  56.5685242  16.4560522  55.0884564  57.3513194  17.7516975  55.1087589
  48.3142271   3.6119515  54.7750759  47.5928857   4.2255482  54.6358232
  49.1035527   4.1477279  54.6967405  58.7569011  15.0579802  57.2253169
  57.8099346  14.9385153  57.1531496  59.1051784  14.1702300  57.3079430
  51.1168584   0.9473941  61.0491411  51.6402986   1.1936238  61.8117720
  50.8980918   1.7793976  60.6294548  46.5135865   3.2177616  48.9162536
  46.1848571   2.3374995  48.7337642  46.8675236   3.1625284  49.8038925
  55.7615444  14.8532518  53.4257521  55.6140407  13.9249226  53.6065091
  56.5868938  14.8752609  52.9414596  49.6277689   3.5050585  49.2838013
  49.9673761   4.0336507  48.5616622  50.0749809   3.8430992  50.0596580
  59.3649566  15.6761077  54.5122394  60.2896114  15.4703938  54.3746845
  59.1964869  15.4277478  55.4211736  52.3221129   1.8887636  58.7341081
  51.9817950   1.0895449  59.1361761  51.6160136   2.1889347  58.1617915
  52.9737601  -1.0263051  57.1868404  53.7963670  -1.5002573  57.0647295
  53.2175665  -0.2472568  57.6867091  51.6145836   2.0025207  47.4831306
  52.3354198   2.3806460  46.9795023  50.9911140   2.7214084  47.5866284
  55.7576959   2.7070356  48.4189638  55.9740573   3.5894994  48.1178467
  55.2771026   2.3156569  47.6895280  50.4976180   5.6656069  54.9960383
  50.3520761   5.9796372  55.8884665  50.0201384   6.2840970  54.4431282
  52.3572563   2.6558617  55.0441273  52.3434132   1.7599711  54.7073571
  53.0744991   2.6629281  55.6779559  54.2098694   3.0895957  57.0894400
  53.9516471   4.0113028  57.0878731  53.6783734   2.6926392  57.7794864
  59.1544882  16.1946745  49.8684485  59.3281760  15.6293167  49.1158338
  59.6473773  16.9947639  49.6863975  44.9721842   8.2061414  57.9348044
  44.4275310   8.9821222  58.0668319  45.8501192   8.5532218  57.7767166
  51.7609459   1.5372998  50.3128843  51.8825370   0.6089644  50.5119730
  51.4711501   1.5511683  49.4007158  54.6300649  -0.7772092  53.4495563
  54.6522346  -0.7132759  52.4947542  55.0468708  -1.6167583  53.6436069
  65.0084273   8.9583167  51.4874785  65.4515419   8.2090493  51.0893908
  64.1310784   8.9493304  51.1048517  60.1420055  15.5113509  46.9681384
  60.8370959  16.1320202  47.1868698  60.4843205  14.6608860  47.2433762
  45.7587864   7.3331310  60.8278201  45.0169600   7.4813945  61.4142832
  45.4380608   7.5939576  59.9644951  62.0411478  12.9613214  48.4968715
  62.5662802  13.3000487  47.7718035  61.9533830  12.0260230  48.3131849
  53.7031527  16.8747288  60.6258591  54.0118653  16.6296435  61.4981291
  54.5007009  17.0793927  60.1377461  53.7252139  19.0285198  52.8563968
  53.2857129  18.5361576  53.5496824  54.4760256  18.4858165  52.6156043
  46.2044478  15.2196739  52.8588596  47.0302498  14.9200510  52.4787239
  45.8538530  14.4504361  53.3078384  51.1726011  14.5723207  54.9286269
  50.5506020  13.9093912  54.6288497  51.8430878  14.5984339  54.2459917
  44.4053083  13.1383065  53.8177529  43.5684991  12.7105239  53.6361531
  44.3776728  13.3315508  54.7548321  51.2450538   3.0504995  64.5218775
  51.2938694   3.9267118  64.1396545  51.7873052   2.5082388  63.9490419
  61.7305384  13.5946118  63.8019912  60.9400928  13.5770257  63.2624412
  61.4938739  14.1334412  64.5568949  61.8503259  10.4438584  61.1152641
  61.9001264  10.2788592  62.0568164  61.7417182   9.5765844  60.7250522
  50.7339518  13.1227130  48.4044730  50.8827638  13.8062595  47.7511403
  51.5405961  13.1032220  48.9194186  59.1407021   6.4269513  62.4311948
  60.0416884   6.2875977  62.1395946  59.2154996   6.5923967  63.3710125
  53.4749827   3.8036367  61.2765134  52.6053136   4.0969933  61.0047723
  53.7109307   4.3876812  61.9972398  63.3521456  12.8635526  61.3594663
  63.0606264  13.2265507  62.1958124  62.7393587  12.1502534  61.1807995
  64.5517138  10.4288406  53.8797233  65.3864030  10.8678210  54.0434793
  64.6876267   9.9527059  53.0605479  61.6008644   7.9868141  59.8274721
  62.0762766   8.1795787  59.0193572  60.6774209   8.0427326  59.5818104
  48.4892151   9.1492308  49.4105799  48.2438193   8.2454638  49.6086009
  48.6588065   9.1509458  48.4685277  56.1788861   0.0215984  58.7930554
  56.6970804   0.7577011  58.4677043  55.8243993   0.3279977  59.6277314
  47.7587798   4.8820665  46.9091960  47.0657043   4.9565020  46.2531996
  47.5139550   4.1181009  47.4313477  54.2334923  15.6175261  45.8756477
  53.6608890  16.2365448  45.4226949  54.8067717  16.1674622  46.4096399
  60.3010313   4.8633901  58.0603026  61.2527736   4.9631998  58.0815250
  60.1313763   4.0712169  58.5701111  58.3224693   1.9489484  58.2462427
  57.7274625   2.2294497  57.5508916  58.0374389   2.4383385  59.0179168
  57.4532183  15.9012411  47.0065060  58.3862856  15.8357972  47.2097935
  57.3655396  16.7368678  46.5479592  60.0820200  15.2178281  43.9669007
  60.0033831  14.8838145  44.8604765  60.9029866  15.7100049  43.9660480
  62.7798391   8.0840020  57.1745326  62.7474711   7.1456021  57.3605010
  63.3899014   8.1624057  56.4411151  54.6181722   6.9536073  43.2172530
  55.5640826   6.8242281  43.2860948  54.2395967   6.2150735  43.6941958
  62.9292879   4.8751064  57.2203609  62.4131928   4.0909520  57.0333538
  63.8132828   4.5469780  57.3850128  68.5974941   9.1456027  56.3151363
  69.3278329   8.8841315  56.8759066  67.9881886   8.4084749  56.3553431
  66.6790238   7.2863890  56.9125814  65.9523401   7.1519855  56.3042305
  66.2637525   7.5940718  57.7182532  54.5020414  11.0053820  64.6773187
  55.4223424  11.1832419  64.8713233  54.4669997  10.0609865  64.5252886
  52.8024639   4.8786050  43.1527415  51.8956094   4.5819162  43.2290129
  53.0800620   4.5815868  42.2861701  43.7202579   6.1992413  53.6026461
  43.4005364   5.3457721  53.3100835  43.1736007   6.4140991  54.3584429
  47.4982487   8.9154854  57.3195968  47.7168497   9.8471962  57.3384002
  47.9108261   8.5562829  58.1050772  54.4186705  -0.5777061  49.3071656
  53.6087433  -0.9229976  49.6826902  55.1071122  -0.8869517  49.8959268
  52.3710352   4.4888060  66.7098717  52.2707079   5.4382417  66.6410808
  52.1531894   4.1606299  65.8374787  51.5723423   1.7372985  43.2939394
  52.4342587   2.0627883  43.5535212  51.7573768   0.9504481  42.7812460
  43.5890839   9.8195325  55.5719583  42.8954311   9.4049277  55.0589537
  44.3363830   9.8615861  54.9753002  59.7256060   0.6101511  50.4374617
  59.1454729   1.2686315  50.0552670  59.4591993  -0.2121144  50.0262035
  58.1759626   0.0106569  52.6395938  58.6759405   0.1223104  51.8310256
  58.8195234  -0.2932378  53.2796746  52.2341622   7.9185199  65.5263779
  51.7508704   8.7185559  65.7327668  52.3202561   7.9293144  64.5731223
  45.5027582   9.7513578  53.4485598  45.4798270   9.8501266  52.4967481
  45.8128218  10.5978729  53.7702764  48.1614960  11.8089733  57.5632212
  49.1158213  11.7773676  57.4962144  47.9627483  11.3480357  58.3782438
  48.7514342  10.3790850  60.1303010  49.5707231  10.8734928  60.1537847
  49.0251149   9.4622818  60.1020578  58.5080938   2.7701602  49.4930966
  57.6206793   3.0551252  49.2751160  58.9234927   2.6095365  48.6458242
  61.8595474   2.7948123  53.2085305  62.6355864   3.2844575  53.4809922
  61.1343608   3.2206177  53.6657174  64.2968033   3.5075742  54.2659245
  64.8912524   3.2671478  53.5552554  64.3694616   2.7882873  54.8932782
  46.5165188  17.3509353  54.5802410  46.3819656  16.5909754  54.0140408
  46.0997251  18.0750253  54.1131199  57.6524151  12.5346277  43.5878985
  58.3560002  12.7396279  44.2036641  56.9286800  13.1023038  43.8528069
  58.4821962   8.2856138  49.7081256  58.4257163   8.7424689  48.8688888
  59.0350304   7.5246822  49.5304098  62.2926768   4.0745870  50.5331375
  62.0363702   3.6742505  51.3639583  61.6679636   4.7889664  50.4081514
  66.6039105   6.8141943  53.0402667  66.0438663   6.8835132  53.8134229
  65.9982609   6.6382928  52.3202163  49.6734314  18.2478670  54.7920853
  49.5566698  19.1924102  54.6899543  48.8526761  17.9452232  55.1806652
  59.5610849  12.9728806  45.6377446  60.3956453  12.5410004  45.4554920
  59.3995192  12.8010819  46.5654340  59.2156741   9.4760919  47.0033785
  59.1605545   9.3105190  46.0622229  58.5902796  10.1836952  47.1595975
  44.0049256   4.7128983  60.8295207  44.6508120   4.2027937  61.3182432
  43.7966407   5.4497665  61.4038632  56.5302648  11.7809831  66.3287348
  57.3993808  11.9550483  65.9673983  56.0509400  12.6004248  66.2063077
  52.5252866  -1.0230972  46.5819103  52.5131536  -0.0789132  46.7387374
  53.4176288  -1.2060827  46.2878564  50.6988828  18.9006932  58.0076781
  51.6016075  18.9330542  58.3243276  50.4726199  17.9707383  58.0223117
  52.4542430  17.6537918  54.6686860  51.5038061  17.6539780  54.5551232
  52.7574917  16.9070653  54.1522895  48.3446747   1.8596600  64.9270221
  49.2078209   1.5033405  65.1373546  47.7712158   1.5210495  65.6145626
  68.1895124  23.4898457  55.7332622  68.8273534  23.3705204  55.0295962
  68.0715967  24.4379301  55.7920574  64.9984830  23.4425885  55.6694147
  64.6603342  23.3266950  54.7814682  65.8674598  23.0417050  55.6495153
  65.4804613  24.5960737  61.6280353  65.4693254  24.2013535  60.7560856
  65.6425253  23.8626809  62.2214124  58.4036078  26.7912553  54.4975258
  59.1957370  26.4503378  54.0821558  58.6432728  26.9007528  55.4177412
  62.2011874  27.3797848  60.5759536  61.9101740  28.2843479  60.4606203
  62.8368859  27.4214376  61.2903606  63.1268081  24.7574697  57.1660896
  63.7231653  24.5330719  56.4517859  63.1843053  24.0159442  57.7686344
  62.6993110  22.2114132  45.0011087  62.9518630  21.6895654  44.2394550
  61.7617669  22.0480278  45.1037771  67.7436392  21.2149911  52.8085830
  68.5299482  20.7969334  52.4576247  68.0075097  22.1196003  52.9767479
  73.1444820  21.1525144  53.7118809  73.8769992  20.5824361  53.9456638
  72.3884175  20.7646744  54.1525314  64.7620939  23.5752385  50.9082151
  64.3979147  23.0483006  51.6195073  65.6188055  23.1850854  50.7348637
  70.6670240  14.8646718  58.1713417  70.3353565  15.7342129  57.9474632
  70.0715853  14.5483002  58.8507448  64.4026426  18.6042285  45.9043500
  64.5700829  19.4722521  46.2713971  64.2123595  18.7669567  44.9804789
  60.6114241  23.5173061  53.6046035  59.6864737  23.3849275  53.8123726
  60.8598654  24.2967280  54.1015977  70.5598903  19.5841804  55.2506768
  69.6515781  19.5157213  54.9565528  70.5086499  20.0613749  56.0788593
  64.3815647  21.0599943  46.8890167  64.2615272  21.5056993  47.7275647
  63.6868236  21.4085260  46.3303705  57.9723052  23.1606334  54.4389824
  58.1015433  23.4140813  55.3529235  57.2920503  23.7534042  54.1194479
  64.6339769  21.0031450  63.1941665  63.8573103  21.5625370  63.1844529
  65.2730332  21.4888233  63.7156535  72.4260550  17.7858243  57.0284641
  71.7834930  18.0790776  56.3824436  71.9215478  17.6711163  57.8337838
  70.0800713  21.5321416  47.7170501  70.9918569  21.7648802  47.5418198
  69.5710360  22.1158460  47.1545579  62.8886141  23.8116903  62.7559632
  63.6300826  24.3501947  62.4794455  62.1823127  24.4383192  62.9131184
  68.3641481  25.9546044  61.3531793  68.7724837  25.5128454  60.6086426
  67.6418742  25.3798671  61.6065986  64.7172551  20.8918650  58.7265350
  65.5633746  21.3158064  58.8699999  64.6571189  20.2352275  59.4203913
  67.8671996  18.5523019  60.3846524  67.6232928  19.3065079  59.8480800
  68.1431927  18.9308366  61.2193771  69.8210459  25.0961631  59.0623789
  70.0327354  25.7393391  58.3858171  69.7740207  24.2623948  58.5945720
  67.4236688  17.7079452  55.9660362  66.5621167  18.0060705  56.2577099
  67.4499123  17.9249851  55.0341394  61.1322339  25.7993124  55.3113931
  61.7023696  26.2280392  54.6731415  61.7230450  25.5175709  56.0098116
  63.1767144  22.3744795  49.1823732  63.8791187  22.8265838  49.6497659
  62.8447772  21.7328614  49.8103626  61.6247505  20.9656551  63.5574942
  60.9946166  21.6472832  63.7910339  61.5183593  20.8539633  62.6128080
  56.9192477  20.6328347  54.4840866  56.1291531  20.8885876  54.0080977
  57.4103725  21.4476685  54.5892906  70.9356287  27.9733586  57.2346147
  71.7573731  27.5713774  56.9528828  70.9318690  27.8701821  58.1862263
  58.8707223  20.9972927  51.4424343  58.0738386  21.1091621  51.9607838
  58.6432815  21.3359579  50.5765233  64.7012890  27.5217630  59.3906857
  64.7657323  27.9838037  60.2265029  63.9923814  26.8914995  59.5189167
  55.2030180  20.8858838  56.9155857  55.4538219  21.7705848  57.1813433
  55.7389729  20.7063439  56.1430949  79.0262280  24.3172335  53.5831118
  78.2725988  23.7479733  53.4275123  79.1609821  24.2834999  54.5301753
  60.9028248  15.2677317  65.9200193  60.5095193  14.7143516  66.5947837
  61.7194388  15.5787896  66.3106710  57.8690306  26.7061175  49.8313763
  58.3814826  27.5004426  49.9819327  58.5213018  26.0087466  49.7647364
  59.6785190  29.8226932  51.9136516  59.8551819  30.7444896  51.7257500
  60.4742024  29.5085351  52.3430896  63.8196209  16.6835196  63.5120449
  64.5605922  17.2842349  63.4324912  64.0514132  15.9412834  62.9538492
  58.9637547  21.8691563  61.7898679  58.8491062  20.9676821  62.0905778
  58.1082065  22.1155260  61.4383496  66.0429385  29.8109304  63.3886180
  65.5993239  29.0245682  63.0707084  66.7046598  29.9988454  62.7230070
  60.8016506  31.3405105  57.9146858  61.3523931  31.2122169  57.1423852
  59.9627982  31.6399994  57.5641751  68.1410623  30.0912104  61.4167581
  68.1229098  30.9120985  60.9247850  69.0630543  29.9666179  61.6417722
  64.5983677  27.6056233  62.2591089  65.1312014  26.8444521  62.0290397
  64.0697758  27.3129885  63.0015244  67.7653372  12.7116299  57.7884731
  67.4217641  13.6017941  57.7123842  68.1332334  12.5217957  56.9254316
  55.8339222  25.0349830  50.6073333  56.6714444  25.4446838  50.3907041
  56.0117490  24.0949272  50.5773527  67.7303654  22.7024910  46.2957166
  67.2150278  23.4729515  46.5345554  67.4580963  22.0290046  46.9190228
  65.3150765  17.5474611  51.3542405  64.4592362  17.1581461  51.1748043
  65.7277717  17.6266572  50.4942190  66.8449912  15.0820954  55.7533964
  66.3414708  15.0451089  54.9401770  67.1380519  15.9913697  55.8130621
  63.0892798  15.1659684  54.7600146  63.9545795  14.9702493  54.4006036
  63.1570307  14.9370036  55.6869503  72.7037929  25.4557265  48.2310340
  71.9267371  25.1168424  47.7865502  73.3829410  25.4609888  47.5565305
  67.5189958  20.5752002  48.1216947  67.2140093  20.8898152  48.9727091
  68.4720400  20.6533422  48.1644280  70.9429235  24.9291246  54.8876948
  70.2852910  25.6190508  54.9757076  71.7469635  25.3187678  55.2310934
  60.6955117  17.3961892  52.1316513  61.2698869  17.1737073  51.3989706
  61.2826100  17.4650586  52.8845114  69.7534694  23.2835619  52.9380889
  70.2666576  23.9165611  53.4402599  70.4035918  22.6836814  52.5724249
  61.0224704  19.4266353  46.1512398  60.1862016  19.7641040  46.4721673
  60.8829474  19.2915333  45.2139535  62.9977785  14.2703141  50.8591582
  62.3442197  13.9552158  50.2348197  62.9558259  13.6478881  51.5851405
  64.1088990  24.5522436  42.7744874  63.2016051  24.3211689  42.9736023
  64.6060022  23.7560055  42.9618856  66.2315525  20.7585074  55.1839230
  65.3138087  20.9800021  55.0260918  66.6475669  20.8331385  54.3250937
  67.0150573  22.1576490  50.3141910  67.7622392  22.6697887  50.0049032
  67.2842162  21.8360543  51.1746304  69.4629410  19.1933606  52.2960699
  68.7252167  18.6810993  52.6270942  69.7156184  18.7533988  51.4843976
  69.5641037  11.9709858  52.8902469  69.8699914  11.1107222  52.6028384
  70.2893642  12.5627479  52.6901463  55.8565393  22.3740545  51.2784067
  55.6589793  21.7809906  50.5535133  55.3012057  22.0692755  51.9960005
  63.8362117  22.2663651  53.3978660  63.8910727  21.3137488  53.3221136
  63.0253319  22.4223091  53.8819958  61.7754477  20.8840711  51.1569039
  60.9622343  21.1834882  51.5634231  62.2713471  20.4896400  51.8743521
  67.3728689  21.3482536  59.9883933  67.7278076  21.5754009  60.8478398
  68.0200820  21.6800912  59.3661188  73.1026426  24.4700972  50.6933262
  72.9644324  24.6602567  49.7654451  72.7462644  25.2320354  51.1501313
  61.2668552  18.4559067  56.7730274  61.9067931  18.3147826  56.0753237
  60.4346082  18.1693580  56.3968876  73.1295805  26.5377499  55.7044533
  73.5632312  26.4452788  56.5527587  73.8427386  26.5134999  55.0664549
  62.0428856  27.7561497  52.8865266  62.8369454  27.2611817  52.6847841
  61.3320548  27.2279360  52.5232972  58.3511619  21.9004579  48.9625019
  57.4209207  21.8389034  49.1794981  58.4469091  21.3780532  48.1661660
  58.2697168  18.4259392  51.5503260  58.5303986  19.3404725  51.4412421
  59.0914341  17.9583834  51.6999873  59.7422094  19.8397149  58.7202085
  60.4145147  19.6314511  58.0714734  58.9151880  19.6419235  58.2807317
  73.9911355  26.5801199  58.2377419  74.1847245  27.4847010  58.4836693
  73.8911973  26.1208618  59.0716004  65.6447666  16.4659090  60.7367746
  64.9975581  17.1649039  60.6432222  66.4148681  16.8995234  61.1043994
  69.0526464  26.7307942  63.8118299  68.9011970  26.5018494  62.8948383
  69.0431143  27.6878543  63.8249644  65.8211800  24.3039855  58.7964566
  66.7503860  24.4551014  58.6233533  65.4002830  24.3923875  57.9413212
  60.1449591  23.1139752  59.4804522  60.0069389  22.3819991  60.0816061
  61.0554514  23.0248652  59.1988710  69.1064538  25.0528156  44.2289001
  68.4893709  24.3274984  44.1322053  68.6381027  25.8137516  43.8856075
  62.7731891  22.8259711  58.9688202  63.4831510  22.1852903  58.9274820
  62.7301200  23.0772606  59.8914383  70.7618670  29.7627064  61.8894781
  70.7031216  29.0786285  61.2225364  71.1638189  30.5046054  61.4375407
  61.4860825  19.8124929  60.7883841  60.9498182  19.3615667  61.4405438
  60.8977534  19.9470838  60.0454306  60.8963084  19.2713580  43.3510305
  60.0192551  19.1502381  42.9872552  61.3720837  18.4799659  43.0989194
  70.7636077  27.7266648  60.1208761  69.8762856  27.3892570  60.2435160
  71.3334628  26.9949680  60.3577526  52.4165225  24.0590740  53.4451812
  53.1036264  23.7452470  52.8572827  52.2613353  24.9632105  53.1719063
  57.2199947  18.9480937  57.8736836  57.1358135  18.3406606  57.1387246
  56.3982653  19.4389955  57.8746332  67.3923661  17.4334500  53.2407031
  67.8892360  16.6804463  52.9208101  66.6210642  17.4698817  52.6750240
  75.2453418  23.1374866  54.8825322  75.2343294  24.0199581  54.5119255
  74.3770797  22.7846417  54.6879859  66.7535914  32.2854935  59.2428163
  67.4663887  32.9202400  59.1704064  66.2625943  32.3818801  58.4268164
  63.9758629  19.5751883  52.9678715  63.6056417  19.0222924  53.6559621
  64.4717722  18.9710017  52.4153715  71.8625993  22.0323507  51.3495488
  72.3286445  22.8651498  51.2755791  72.3133493  21.5668488  52.0540747
  61.8047828  30.0349378  60.0633733  62.5057287  30.6685861  60.2163128
  61.3342943  30.3764110  59.3029373  69.8342655  14.4004094  55.3886390
  68.9205735  14.6308321  55.5568597  70.2635757  14.4842538  56.2400422
  69.6049114  22.5893986  57.8886284  68.9520564  22.8369893  57.2338736
  69.9829494  21.7758124  57.5548761  65.6536687  23.3313797  64.3752321
  64.9777324  23.2307926  65.0454696  66.4764321  23.1753011  64.8388318
  57.4015546  29.5685733  56.9964836  57.9868983  28.8229421  57.1292740
  57.2040384  29.8789690  57.8801500  51.9933201  22.1391334  55.7169279
  52.0317300  21.6054924  56.5106397  51.4873493  21.6126539  55.0980256
  59.3723963  16.9855874  59.2131821  59.4365289  17.8470705  58.8009219
  59.3091083  16.3729876  58.4804180  58.8476235  19.0579007  62.8604856
  59.4748274  18.6756084  63.4742380  57.9904154  18.8393208  63.2260548
  69.2470344  29.4641982  64.4658591  69.7910248  30.0771940  63.9713546
  68.6657189  30.0221560  64.9825604  55.6241778  20.8655436  48.7923211
  55.9195219  19.9566114  48.7390264  54.7229814  20.8443175  48.4704213
  59.1536025  18.9411432  54.7750759  58.4322611  19.5547400  54.6358232
  59.9429281  19.4769197  54.6967405  61.9562339  16.2765859  61.0491411
  62.4796741  16.5228155  61.8117720  61.7374672  17.1085894  60.6294548
  57.3529620  18.5469533  48.9162536  57.0242326  17.6666912  48.7337642
  57.7068991  18.4917202  49.8038925  60.4671443  18.8342503  49.2838013
  60.8067515  19.3628424  48.5616622  60.9143563  19.1722909  50.0596580
  63.1614884  17.2179554  58.7341081  62.8211704  16.4187367  59.1361761
  62.4553890  17.5181265  58.1617915  63.8131356  14.3028866  57.1868404
  64.6357425  13.8289344  57.0647295  64.0569419  15.0819350  57.6867091
  62.4539590  17.3317125  47.4831306  63.1747953  17.7098378  46.9795023
  61.8304894  18.0506002  47.5866284  66.5970713  18.0362274  48.4189638
  66.8134327  18.9186912  48.1178467  66.1164780  17.6448487  47.6895280
  61.3369934  20.9947987  54.9960383  61.1914515  21.3088290  55.8884665
  60.8595138  21.6132887  54.4431282  63.1966317  17.9850535  55.0441273
  63.1827886  17.0891628  54.7073571  63.9138745  17.9921199  55.6779559
  65.0492448  18.4187875  57.0894400  64.7910226  19.3404946  57.0878731
  64.5177488  18.0218310  57.7794864  55.8115597  23.5353331  57.9348044
  55.2669065  24.3113139  58.0668319  56.6894946  23.8824136  57.7767166
  62.6003213  16.8664915  50.3128843  62.7219124  15.9381561  50.5119730
  62.3105256  16.8803601  49.4007158  65.4694404  14.5519826  53.4495563
  65.4916100  14.6159159  52.4947542  65.8862463  13.7124334  53.6436069
  75.8478028  24.2875085  51.4874785  76.2909174  23.5382410  51.0893908
  74.9704538  24.2785222  51.1048517  56.5981618  22.6623228  60.8278201
  55.8563354  22.8105863  61.4142832  56.2774363  22.9231493  59.9644951
  64.5425281  32.2039206  60.6258591  64.8512408  31.9588353  61.4981291
  65.3400763  32.4085844  60.1377461  57.0438232  30.5488656  52.8588596
  57.8696252  30.2492428  52.4787239  56.6932284  29.7796279  53.3078384
  55.2446837  28.4674983  53.8177529  54.4078745  28.0397157  53.6361531
  55.2170483  28.6607426  54.7548321  62.0844293  18.3796913  64.5218775
  62.1332448  19.2559035  64.1396545  62.6266807  17.8374306  63.9490419
  72.5699138  28.9238036  63.8019912  71.7794682  28.9062175  63.2624412
  72.3332493  29.4626329  64.5568949  72.6897013  25.7730502  61.1152641
  72.7395018  25.6080510  62.0568164  72.5810937  24.9057761  60.7250522
  69.9800776  21.7561430  62.4311948  70.8810639  21.6167895  62.1395946
  70.0548750  21.9215885  63.3710125  64.3143581  19.1328285  61.2765134
  63.4446891  19.4261851  61.0047723  64.5503062  19.7168730  61.9972398
  74.1915210  28.1927444  61.3594663  73.9000019  28.5557424  62.1958124
  73.5787342  27.4794452  61.1807995  75.3910893  25.7580323  53.8797233
  76.2257784  26.1970128  54.0434793  75.5270021  25.2818977  53.0605479
  72.4402399  23.3160058  59.8274721  72.9156520  23.5087705  59.0193572
  71.5167964  23.3719244  59.5818104  59.3285905  24.4784225  49.4105799
  59.0831947  23.5746555  49.6086009  59.4981820  24.4801376  48.4685277
  67.0182615  15.3507902  58.7930554  67.5364559  16.0868929  58.4677043
  66.6637748  15.6571895  59.6277314  58.5981553  20.2112583  46.9091960
  57.9050798  20.2856938  46.2531996  58.3533305  19.4472927  47.4313477
  67.2695209  11.7708184  54.3131451  67.5496963  11.1031373  54.9391878
  68.0545816  11.9637280  53.8006115  71.1404068  20.1925818  58.0603026
  72.0921490  20.2923916  58.0815250  70.9707518  19.4004087  58.5701111
  69.1618447  17.2781402  58.2462427  68.5668379  17.5586414  57.5508916
  68.8768144  17.7675303  59.0179168  73.6192145  23.4131938  57.1745326
  73.5868465  22.4747939  57.3605010  74.2292769  23.4915975  56.4411151
  65.4575476  22.2827991  43.2172530  66.4034581  22.1534199  43.2860948
  65.0789721  21.5442653  43.6941958  73.7686634  20.2042982  57.2203609
  73.2525682  19.4201438  57.0333538  74.6526582  19.8761698  57.3850128
  71.4297361  13.9483997  53.1799422  71.2322182  13.6399085  54.0642754
  72.0397066  14.6745636  53.3097352  79.4368695  24.4747945  56.3151363
  80.1672084  24.2133233  56.8759066  78.8275641  23.7376667  56.3553431
  77.5183992  22.6155808  56.9125814  76.7917156  22.4811772  56.3042305
  77.1031279  22.9232636  57.7182532  65.3414169  26.3345737  64.6773187
  66.2617178  26.5124336  64.8713233  65.3063752  25.3901783  64.5252886
  63.6418393  20.2077967  43.1527415  62.7349849  19.9111080  43.2290129
  63.9194374  19.9107786  42.2861701  54.5596334  21.5284331  53.6026461
  54.2399118  20.6749639  53.3100835  54.0129762  21.7432909  54.3584429
  58.3376241  24.2446772  57.3195968  58.5562251  25.1763880  57.3384002
  58.7502015  23.8854746  58.1050772  65.2580459  14.7514857  49.3071656
  64.4481187  14.4061942  49.6826902  65.9464876  14.4422401  49.8959268
  67.1871007  13.8292904  50.9295953  67.7402046  14.2488357  51.5885976
  67.4241094  12.9028652  50.9718909  63.2104107  19.8179978  66.7098717
  63.1100833  20.7674335  66.6410808  62.9925649  19.4898217  65.8374787
  62.4117178  17.0664903  43.2939394  63.2736342  17.3919801  43.5535212
  62.5967522  16.2796399  42.7812460  54.4284594  25.1487242  55.5719583
  53.7348065  24.7341195  55.0589537  55.1757585  25.1907779  54.9753002
  70.5649814  15.9393429  50.4374617  69.9848484  16.5978233  50.0552670
  70.2985747  15.1170774  50.0262035  69.0153381  15.3398487  52.6395938
  69.5153159  15.4515021  51.8310256  69.6588989  15.0359540  53.2796746
  63.0735377  23.2477116  65.5263779  62.5902458  24.0477477  65.7327668
  63.1596316  23.2585061  64.5731223  56.3421336  25.0805496  53.4485598
  56.3192024  25.1793183  52.4967481  56.6521973  25.9270647  53.7702764
  59.0008714  27.1381651  57.5632212  59.9551968  27.1065593  57.4962144
  58.8021238  26.6772275  58.3782438  59.5908096  25.7082767  60.1303010
  60.4100985  26.2026846  60.1537847  59.8644904  24.7914735  60.1020578
  69.3474692  18.0993520  49.4930966  68.4600547  18.3843170  49.2751160
  69.7628682  17.9387283  48.6458242  72.6989229  18.1240040  53.2085305
  73.4749619  18.6136493  53.4809922  71.9737363  18.5498095  53.6657174
  75.1361787  18.8367660  54.2659245  75.7306278  18.5963396  53.5552554
  75.2088371  18.1174790  54.8932782  57.3558943  32.6801271  54.5802410
  57.2213411  31.9201672  54.0140408  56.9391005  33.4042171  54.1131199
  69.3215716  23.6148055  49.7081256  69.2650918  24.0716607  48.8688888
  69.8744059  22.8538740  49.5304098  73.1320522  19.4037787  50.5331375
  72.8757456  19.0034423  51.3639583  72.5073390  20.1181581  50.4081514
  77.4432860  22.1433861  53.0402667  76.8832418  22.2127050  53.8134229
  76.8376363  21.9674845  52.3202163  70.0550496  24.8052837  47.0033785
  69.9999299  24.6397108  46.0622229  69.4296551  25.5128870  47.1595975
  54.8443011  20.0420901  60.8295207  55.4901874  19.5319855  61.3182432
  54.6360162  20.7789583  61.4038632  67.3696403  27.1101749  66.3287348
  68.2387562  27.2842401  65.9673983  66.8903154  27.9296165  66.2063077
  63.3646621  14.3060946  46.5819103  63.3525291  15.2502786  46.7387374
  64.2570043  14.1231091  46.2878564  61.5382583  34.2298850  58.0076781
  62.4409830  34.2622460  58.3243276  61.3119953  33.2999301  58.0223117
  67.1798740  10.9003722  50.8365040  66.4131136  10.3462209  50.9821722
  67.5909445  10.9725591  51.6979192  59.1840502  17.1888518  64.9270221
  60.0471963  16.8325323  65.1373546  58.6105912  16.8502413  65.6145626
  79.0288878  38.8190375  55.7332622  79.6667288  38.6997122  55.0295962
  78.9109721  39.7671218  55.7920574  75.8378585  38.7717803  55.6694147
  75.4997096  38.6558867  54.7814682  76.7068353  38.3708968  55.6495153
  76.3198368  39.9252654  61.6280353  76.3087008  39.5305453  60.7560856
  76.4819007  39.1918727  62.2214124  73.0405629  42.7089766  60.5759536
  72.7495495  43.6135397  60.4606203  73.6762613  42.7506294  61.2903606
  73.9661836  40.0866615  57.1660896  74.5625408  39.8622637  56.4517859
  74.0236807  39.3451360  57.7686344  78.5830147  36.5441828  52.8085830
  79.3693236  36.1261252  52.4576247  78.8468851  37.4487921  52.9767479
  83.9838574  36.4817062  53.7118809  84.7163746  35.9116278  53.9456638
  83.2277930  36.0938662  54.1525314  81.5063994  30.1938636  58.1713417
  81.1747319  31.0634047  57.9474632  80.9109608  29.8774920  58.8507448
  77.9995514  42.3951182  57.5709330  77.6996237  43.2976220  57.4625137
  77.6546573  42.1283365  58.4230483  81.3992658  34.9133722  55.2506768
  80.4909535  34.8449130  54.9565528  81.3480254  35.3905667  56.0788593
  75.4733523  36.3323367  63.1941665  74.6966858  36.8917288  63.1844529
  76.1124087  36.8180150  63.7156535  83.2654304  33.1150160  57.0284641
  82.6228684  33.4082693  56.3824436  82.7609233  33.0003081  57.8337838
  79.2035235  41.2837961  61.3531793  79.6118591  40.8420372  60.6086426
  78.4812497  40.7090589  61.6065986  75.5566305  36.2210568  58.7265350
  76.4027501  36.6449982  58.8699999  75.4964943  35.5644192  59.4203913
  79.5264050  41.8439152  55.1084082  78.8972913  42.0084866  54.4060150
  79.1389712  42.2580761  55.8795046  83.4053282  42.7793590  52.4628446
  82.7204320  43.1592491  51.9125479  83.4897131  43.3888916  53.1960394
  78.7065751  33.8814936  60.3846524  78.4626683  34.6356997  59.8480800
  78.9825681  34.2600284  61.2193771  80.6604214  40.4253549  59.0623789
  80.8721109  41.0685309  58.3858171  80.6133962  39.5915865  58.5945720
  78.2630443  33.0371369  55.9660362  77.4014922  33.3352623  56.2577099
  78.2892877  33.2541768  55.0341394  71.9716093  41.1285042  55.3113931
  72.5417450  41.5572310  54.6731415  72.5624205  40.8467626  56.0098116
  72.4641260  36.2948469  63.5574942  71.8339920  36.9764750  63.7910339
  72.3577347  36.1831551  62.6128080  81.7750042  43.3025504  57.2346147
  82.5967485  42.9005691  56.9528828  81.7712444  43.1993738  58.1862263
  75.5406645  42.8509547  59.3906857  75.6051078  43.3129955  60.2265029
  74.8317569  42.2206912  59.5189167  89.8656035  39.6464253  53.5831118
  89.1119743  39.0771651  53.4275123  90.0003576  39.6126917  54.5301753
  71.7422002  30.5969235  65.9200193  71.3488948  30.0435433  66.5947837
  72.5588143  30.9079813  66.3106710  74.6589963  32.0127114  63.5120449
  75.3999677  32.6134267  63.4324912  74.8907886  31.2704752  62.9538492
  76.8823139  45.1401221  63.3886180  76.4386993  44.3537600  63.0707084
  77.5440353  45.3280372  62.7230070  78.9804377  45.4204021  61.4167581
  78.9622852  46.2412902  60.9247850  79.9024297  45.2958097  61.6417722
  75.4377431  42.9348151  62.2591089  75.9705768  42.1736439  62.0290397
  74.9091512  42.6421803  63.0015244  78.6047126  28.0408217  57.7884731
  78.2611396  28.9309859  57.7123842  78.9726089  27.8509874  56.9254316
  77.6843667  30.4112872  55.7533964  77.1808462  30.3743007  54.9401770
  77.9774273  31.3205615  55.8130621  81.7822990  40.2583164  54.8876948
  81.1246664  40.9482425  54.9757076  82.5863389  40.6479596  55.2310934
  80.5928449  38.6127537  52.9380889  81.1060331  39.2457528  53.4402599
  81.2429673  38.0128732  52.5724249  77.0709280  36.0876992  55.1839230
  76.1531841  36.3091939  55.0260918  77.4869423  36.1623303  54.3250937
  80.3023165  34.5225524  52.2960699  79.5645921  34.0102910  52.6270942
  80.5549938  34.0825906  51.4843976  80.4034792  27.3001776  52.8902469
  80.7093669  26.4399139  52.6028384  81.1287397  27.8919396  52.6901463
  74.6755872  37.5955569  53.3978660  74.7304481  36.6429405  53.3221136
  73.8647074  37.7515008  53.8819958  78.2122443  36.6774453  59.9883933
  78.5671831  36.9045926  60.8478398  78.8594574  37.0092830  59.3661188
  83.9420180  39.7992889  50.6933262  83.8038079  39.9894485  49.7654451
  83.5856399  40.5612272  51.1501313  83.9689560  41.8669416  55.7044533
  84.4026066  41.7744705  56.5527587  84.6821140  41.8426917  55.0664549
  70.5815848  35.1689067  58.7202085  71.2538901  34.9606429  58.0714734
  69.7545635  34.9711153  58.2807317  84.8305109  41.9093117  58.2377419
  85.0240999  42.8138927  58.4836693  84.7305727  41.4500536  59.0716004
  76.4841420  31.7951007  60.7367746  75.8369335  32.4940957  60.6432222
  77.2542435  32.2287151  61.1043994  79.8920218  42.0599860  63.8118299
  79.7405724  41.8310411  62.8948383  79.8824897  43.0170461  63.8249644
  76.6605554  39.6331772  58.7964566  77.5897614  39.7842932  58.6233533
  76.2396584  39.7215793  57.9413212  75.4593886  43.6582437  56.5663103
  75.3204972  43.2901221  57.4389041  74.6708482  44.1730076  56.3947061
  77.0099101  43.0364039  53.9551941  76.6748934  42.9964809  54.8509591
  76.5103047  42.3708755  53.4822351  70.9843345  38.4431669  59.4804522
  70.8463143  37.7111908  60.0816061  71.8948269  38.3540570  59.1988710
  73.6125646  38.1551629  58.9688202  74.3225264  37.5144821  58.9274820
  73.5694954  38.4064524  59.8914383  81.6012425  45.0918982  61.8894781
  81.5424971  44.4078202  61.2225364  82.0031943  45.8337972  61.4375407
  72.3254580  35.1416847  60.7883841  71.7891937  34.6907585  61.4405438
  71.7371288  35.2762756  60.0454306  81.6029832  43.0558566  60.1208761
  80.7156611  42.7184488  60.2435160  82.1728383  42.3241597  60.3577526
  78.2317415  32.7626418  53.2407031  78.7286115  32.0096380  52.9208101
  77.4604397  32.7990735  52.6750240  86.0847172  38.4666783  54.8825322
  86.0737049  39.3491499  54.5119255  85.2164552  38.1138334  54.6879859
  82.7019747  37.3615424  51.3495488  83.1680199  38.1943416  51.2755791
  83.1527248  36.8960406  52.0540747  80.6736410  29.7296011  55.3886390
  79.7599490  29.9600238  55.5568597  81.1029511  29.8134455  56.2400422
  80.4442868  37.9185903  57.8886284  79.7914319  38.1661811  57.2338736
  80.8223248  37.1050042  57.5548761  76.4930441  38.6605714  64.3752321
  75.8171078  38.5599844  65.0454696  77.3158075  38.5044928  64.8388318
  70.2117717  32.3147792  59.2131821  70.2759044  33.1762623  58.8009219
  70.1484838  31.7021793  58.4804180  69.6869990  34.3870924  62.8604856
  70.3142029  34.0048002  63.4742380  68.8297909  34.1685126  63.2260548
  80.0864099  44.7933899  64.4658591  80.6304003  45.4063858  63.9713546
  79.5050943  45.3513478  64.9825604  80.4356520  45.7163638  57.2253169
  79.4886855  45.5968989  57.1531496  80.7839293  44.8286136  57.3079430
  72.7956093  31.6057776  61.0491411  73.3190495  31.8520073  61.8117720
  72.5768427  32.4377811  60.6294548  81.0437075  46.3344912  54.5122394
  81.9683623  46.1287774  54.3746845  80.8752378  46.0861314  55.4211736
  74.0008638  32.5471472  58.7341081  73.6605459  31.7479285  59.1361761
  73.2947645  32.8473182  58.1617915  74.6525110  29.6320784  57.1868404
  75.4751179  29.1581262  57.0647295  74.8963174  30.4111268  57.6867091
  75.8886202  33.7479793  57.0894400  75.6303980  34.6696863  57.0878731
  75.3571243  33.3510227  57.7794864  76.3088158  29.8811743  53.4495563
  76.3309855  29.9451076  52.4947542  76.7256217  29.0416252  53.6436069
  86.6871782  39.6167003  51.4874785  87.1302928  38.8674328  51.0893908
  85.8098293  39.6077139  51.1048517  83.7198987  43.6197050  48.4968715
  84.2450311  43.9584323  47.7718035  83.6321339  42.6844065  48.3131849
  72.9238047  33.7088830  64.5218775  72.9726203  34.5850953  64.1396545
  73.4660561  33.1666223  63.9490419  83.4092893  44.2529953  63.8019912
  82.6188437  44.2354092  63.2624412  83.1726247  44.7918247  64.5568949
  83.5290768  41.1022420  61.1152641  83.5788773  40.9372427  62.0568164
  83.4204691  40.2349679  60.7250522  80.8194530  37.0853348  62.4311948
  81.7204393  36.9459813  62.1395946  80.8942505  37.2507803  63.3710125
  75.1537336  34.4620203  61.2765134  74.2840645  34.7553769  61.0047723
  75.3896816  35.0460648  61.9972398  85.0308965  43.5219361  61.3594663
  84.7393773  43.8849342  62.1958124  84.4181096  42.8086370  61.1807995
  86.2304647  41.0872241  53.8797233  87.0651538  41.5262045  54.0434793
  86.3663776  40.6110894  53.0605479  83.2796153  38.6451976  59.8274721
  83.7550275  38.8379622  59.0193572  82.3561718  38.7011162  59.5818104
  77.8576370  30.6799820  58.7930554  78.3758313  31.4160846  58.4677043
  77.5031502  30.9863813  59.6277314  78.1088964  27.1000102  54.3131451
  78.3890717  26.4323291  54.9391878  78.8939571  27.2929198  53.8006115
  81.9797822  35.5217736  58.0603026  82.9315245  35.6215834  58.0815250
  81.8101272  34.7296005  58.5701111  80.0012202  32.6073319  58.2462427
  79.4062134  32.8878332  57.5508916  79.7161898  33.0967220  59.0179168
  84.4585900  38.7423856  57.1745326  84.4262220  37.8039856  57.3605010
  85.0686523  38.8207892  56.4411151  84.6080388  35.5334899  57.2203609
  84.0919437  34.7493356  57.0333538  85.4920337  35.2053616  57.3850128
  82.2691115  29.2775915  53.1799422  82.0715936  28.9691003  54.0642754
  82.8790821  30.0037554  53.3097352  90.2762450  39.8039863  56.3151363
  91.0065838  39.5425151  56.8759066  89.6669395  39.0668585  56.3553431
  88.3577747  37.9447725  56.9125814  87.6310910  37.8103690  56.3042305
  87.9425034  38.2524554  57.7182532  76.1807923  41.6637655  64.6773187
  77.1010933  41.8416254  64.8713233  76.1457506  40.7193700  64.5252886
  78.0264762  29.1584822  50.9295953  78.5795800  29.5780275  51.5885976
  78.2634848  28.2320570  50.9718909  74.0497861  35.1471895  66.7098717
  73.9494588  36.0966252  66.6410808  73.8319403  34.8190134  65.8374787
  81.4043569  31.2685347  50.4374617  80.8242238  31.9270151  50.0552670
  81.1379502  30.4462691  50.0262035  79.8547135  30.6690405  52.6395938
  80.3546914  30.7806939  51.8310256  80.4982743  30.3651457  53.2796746
  73.9129131  38.5769034  65.5263779  73.4296213  39.3769394  65.7327668
  73.9990070  38.5876979  64.5731223  80.1868447  33.4285437  49.4930966
  79.2994302  33.7135088  49.2751160  80.6022436  33.2679201  48.6458242
  83.5382983  33.4531958  53.2085305  84.3143373  33.9428411  53.4809922
  82.8131117  33.8790012  53.6657174  85.9755542  34.1659577  54.2659245
  86.5700033  33.9255313  53.5552554  86.0482125  33.4466708  54.8932782
  83.9714277  34.7329705  50.5331375  83.7151211  34.3326341  51.3639583
  83.3467145  35.4473499  50.4081514  88.2826614  37.4725778  53.0402667
  87.7226172  37.5418968  53.8134229  87.6770118  37.2966763  52.3202163
  78.2090157  42.4393666  66.3287348  79.0781317  42.6134319  65.9673983
  77.7296909  43.2588083  66.2063077  78.0192495  26.2295640  50.8365040
  77.2524891  25.6754127  50.9821722  78.4303200  26.3017509  51.6979192
  70.0234256  32.5180436  64.9270221  70.8865718  32.1617241  65.1373546
  69.4499667  32.1794331  65.6145626  89.8682633  54.1482292  55.7332622
  90.5061043  54.0289040  55.0295962  89.7503476  55.0963136  55.7920574
  86.6772339  54.1009720  55.6694147  86.3390851  53.9850785  54.7814682
  87.5462107  53.7000885  55.6495153  82.5359155  55.9545197  51.6591038
  81.9724020  55.8635134  50.8907326  82.4211550  55.1345101  52.1393530
  87.1592122  55.2544572  61.6280353  87.1480763  54.8597370  60.7560856
  87.3212762  54.5210645  62.2214124  88.1158714  59.6216164  46.9705503
  87.4646693  60.2070245  46.5839517  88.9103076  60.1522359  47.0300540
  83.8799383  58.0381684  60.5759536  83.5889249  58.9427315  60.4606203
  84.5156368  58.0798211  61.2903606  84.8055590  55.4158532  57.1660896
  85.4019162  55.1914555  56.4517859  84.8630562  54.6743278  57.7686344
  89.4223901  51.8733746  52.8085830  90.2086991  51.4553169  52.4576247
  89.6862606  52.7779838  52.9767479  89.5933979  57.3106596  47.5074487
  88.9579812  57.3841223  48.2195392  89.2631385  57.9000195  46.8293566
  94.8232329  51.8108979  53.7118809  95.5557500  51.2408196  53.9456638
  94.0671684  51.4230580  54.1525314  86.4408448  54.2336221  50.9082151
  86.0766655  53.7066842  51.6195073  87.2975564  53.8434690  50.7348637
  92.3457749  45.5230553  58.1713417  92.0141074  46.3925964  57.9474632
  91.7503362  45.2066837  58.8507448  86.0813935  49.2626120  45.9043500
  86.2488338  50.1306357  46.2713971  85.8911104  49.4253402  44.9804789
  88.8389268  57.7243099  57.5709330  88.5389992  58.6268138  57.4625137
  88.4940328  57.4575283  58.4230483  92.2386412  50.2425640  55.2506768
  91.3303290  50.1741048  54.9565528  92.1874008  50.7197584  56.0788593
  86.0603156  51.7183778  46.8890167  85.9402781  52.1640829  47.7275647
  85.3655744  52.0669096  46.3303705  83.8210048  64.4887420  50.5380298
  83.7434078  65.4395245  50.6168778  83.2171692  64.1433292  51.1955224
  86.3127278  51.6615285  63.1941665  85.5360612  52.2209205  63.1844529
  86.9517841  52.1472068  63.7156535  94.1048059  48.4442078  57.0284641
  93.4622439  48.7374611  56.3824436  93.6002987  48.3294998  57.8337838
  91.7588222  52.1905251  47.7170501  92.6706078  52.4232638  47.5418198
  91.2497869  52.7742295  47.1545579  84.5673650  54.4700738  62.7559632
  85.3088335  55.0085782  62.4794455  83.8610636  55.0967027  62.9131184
  90.0428990  56.6129879  61.3531793  90.4512346  56.1712289  60.6086426
  89.3206251  56.0382506  61.6065986  86.3960060  51.5502486  58.7265350
  87.2421255  51.9741899  58.8699999  86.3358698  50.8936110  59.4203913
  90.3657805  57.1731070  55.1084082  89.7366667  57.3376784  54.4060150
  89.9783467  57.5872679  55.8795046  94.2447036  58.1085507  52.4628446
  93.5598075  58.4884409  51.9125479  94.3290886  58.7180834  53.1960394
  89.5459505  49.2106854  60.3846524  89.3020437  49.9648915  59.8480800
  89.8219436  49.5892202  61.2193771  91.4997968  55.7545466  59.0623789
  91.7114863  56.3977226  58.3858171  91.4527716  54.9207783  58.5945720
  89.1024197  48.3663287  55.9660362  88.2408676  48.6644541  56.2577099
  89.1286632  48.5833686  55.0341394  85.9185766  56.9105478  52.3734167
  86.3824112  57.1893181  51.5838790  85.6542565  56.0088922  52.1907258
  82.8109848  56.4576959  55.3113931  83.3811205  56.8864228  54.6731415
  83.4017959  56.1759544  56.0098116  83.3035014  51.6240387  63.5574942
  82.6733675  52.3056667  63.7910339  83.1971102  51.5123468  62.6128080
  92.6143796  58.6317422  57.2346147  93.4361240  58.2297609  56.9528828
  92.6106199  58.5285656  58.1862263  86.3800399  58.1801465  59.3906857
  86.4444832  58.6421872  60.2265029  85.6711323  57.5498830  59.5189167
 100.7049789  54.9756170  53.5831118  99.9513497  54.4063568  53.4275123
 100.8397330  54.9418835  54.5301753  86.0948417  59.8469573  49.2585838
  85.9594092  60.6921108  49.6870685  86.6358230  60.0488850  48.4951771
  82.5815757  45.9261152  65.9200193  82.1882702  45.3727351  66.5947837
  83.3981897  46.2371731  66.3106710  81.3572699  60.4810767  51.9136516
  81.5339328  61.4028732  51.7257500  82.1529533  60.1669186  52.3430896
  85.4983718  47.3419032  63.5120449  86.2393431  47.9426185  63.4324912
  85.7301641  46.5996669  62.9538492  80.6425056  52.5275399  61.7898679
  80.5278571  51.6260656  62.0905778  79.7869574  52.7739096  61.4383496
  87.7216894  60.4693139  63.3886180  87.2780748  59.6829518  63.0707084
  88.3834107  60.6572290  62.7230070  82.4804015  61.9988941  57.9146858
  83.0311440  61.8706004  57.1423852  81.6415491  62.2983830  57.5641751
  89.8198132  60.7495939  61.4167581  89.8016607  61.5704820  60.9247850
  90.7418052  60.6250014  61.6417722  86.2771186  58.2640069  62.2591089
  86.8099523  57.5028357  62.0290397  85.7485267  57.9713720  63.0015244
  89.4440881  43.3700135  57.7884731  89.1005150  44.2601776  57.7123842
  89.8119843  43.1801792  56.9254316  89.4091163  53.3608746  46.2957166
  88.8937787  54.1313350  46.5345554  89.1368472  52.6873882  46.9190228
  86.9938274  48.2058446  51.3542405  86.1379871  47.8165297  51.1748043
  87.4065226  48.2850407  50.4942190  88.5237421  45.7404790  55.7533964
  88.0202217  45.7034925  54.9401770  88.8168028  46.6497532  55.8130621
  84.7680307  45.8243519  54.7600146  85.6333304  45.6286328  54.4006036
  84.8357816  45.5953871  55.6869503  94.3825438  56.1141100  48.2310340
  93.6054880  55.7752260  47.7865502  95.0616919  56.1193723  47.5565305
  89.1977467  51.2335838  48.1216947  88.8927602  51.5481987  48.9727091
  90.1507909  51.3117258  48.1644280  87.6423898  57.3926061  49.7709901
  87.1145260  56.6578821  49.4583139  87.1411401  58.1700737  49.5249870
  92.6216744  55.5875082  54.8876948  91.9640419  56.2774343  54.9757076
  93.4257144  55.9771513  55.2310934  82.3742626  48.0545727  52.1316513
  82.9486378  47.8320909  51.3989706  82.9613608  48.1234422  52.8845114
  91.4322203  53.9419454  52.9380889  91.9454085  54.5749446  53.4402599
  92.0823427  53.3420650  52.5724249  84.6765294  44.9286976  50.8591582
  84.0229706  44.6135993  50.2348197  84.6345768  44.3062717  51.5851405
  85.7876499  55.2106271  42.7744874  84.8803560  54.9795525  42.9736023
  86.2847531  54.4143891  42.9618856  88.6944578  63.9203778  45.6941561
  88.0206276  64.2235475  46.3026518  89.0810399  64.7232859  45.3447018
  87.9103034  51.4168910  55.1839230  86.9925595  51.6383857  55.0260918
  88.3263178  51.4915220  54.3250937  88.6938082  52.8160325  50.3141910
  89.4409901  53.3281723  50.0049032  88.9629671  52.4944378  51.1746304
  86.9664732  55.3118866  47.2968864  86.0575951  55.0277899  47.3941334
  86.9959816  55.7317945  46.4372171  92.1983999  58.9225456  51.0660032
  91.7446327  58.0816366  51.1225223  91.5677966  59.5586854  51.4034812
  91.1416919  49.8517442  52.2960699  90.4039676  49.3394828  52.6270942
  91.3943693  49.4117823  51.4843976  90.6416939  60.7601952  52.0009850
  90.9339913  61.3207009  51.2822216  91.1515559  61.0530513  52.7563009
  91.2428546  42.6293694  52.8902469  91.5487423  41.7691057  52.6028384
  91.9681151  43.2211314  52.6901463  85.5149626  52.9247487  53.3978660
  85.5698236  51.9721323  53.3221136  84.7040828  53.0806926  53.8819958
  86.6640820  56.8527610  44.6356943  86.2260250  56.1363469  44.1762580
  87.4051261  57.0803725  44.0742034  85.6050564  61.5382303  53.0903303
  85.5626743  61.7643150  52.1611835  86.5213263  61.3045678  53.2389105
  89.0516198  52.0066371  59.9883933  89.4065585  52.2337844  60.8478398
  89.6988329  52.3384748  59.3661188  94.7813935  55.1284807  50.6933262
  94.6431833  55.3186403  49.7654451  94.4250153  55.8904190  51.1501313
  82.9456061  49.1142902  56.7730274  83.5855440  48.9731661  56.0753237
  82.1133591  48.8277415  56.3968876  94.8083314  57.1961334  55.7044533
  95.2419821  57.1036623  56.5527587  95.5214895  57.1718834  55.0664549
  83.7216365  58.4145332  52.8865266  84.5156963  57.9195653  52.6847841
  83.0108057  57.8863196  52.5232972  88.5411209  60.7963428  57.2377634
  88.5948231  61.3654364  58.0055350  87.6725991  60.9665313  56.8731671
  81.4209603  50.4980984  58.7202085  82.0932656  50.2898346  58.0714734
  80.5939389  50.3003070  58.2807317  95.6698864  57.2385035  58.2377419
  95.8634754  58.1430845  58.4836693  95.5699482  56.7792454  59.0716004
  87.3235175  47.1242925  60.7367746  86.6763090  47.8232875  60.6432222
  88.0936190  47.5579069  61.1043994  90.7313972  57.3891777  63.8118299
  90.5799479  57.1602329  62.8948383  90.7218652  58.3462379  63.8249644
  87.4999309  54.9623690  58.7964566  88.4291369  55.1134850  58.6233533
  87.0790339  55.0507711  57.9413212  86.2987641  58.9874354  56.5663103
  86.1598726  58.6193139  57.4389041  85.5102237  59.5021994  56.3947061
  86.8935793  64.0883451  47.9088640  87.0687548  63.6171494  48.7234262
  86.2068581  64.7149217  48.1369900  87.8492856  58.3655957  53.9551941
  87.5142688  58.3256727  54.8509591  87.3496802  57.7000673  53.4822351
  81.8237100  53.7723587  59.4804522  81.6856898  53.0403826  60.0816061
  82.7342023  53.6832487  59.1988710  90.7852047  55.7111991  44.2289001
  90.1681218  54.9858820  44.1322053  90.3168536  56.4721352  43.8856075
  84.4519400  53.4843546  58.9688202  85.1619019  52.8436739  58.9274820
  84.4088709  53.7356441  59.8914383  92.4406179  60.4210900  61.8894781
  92.3818725  59.7370120  61.2225364  92.8425698  61.1629890  61.4375407
  83.1648334  50.4708764  60.7883841  82.6285691  50.0199503  61.4405438
  82.5765043  50.6054673  60.0454306  81.4596878  67.2372814  54.6828500
  81.6993476  67.8691338  55.3607518  80.6166074  66.8860854  54.9693859
  92.4423586  58.3850484  60.1208761  91.5550365  58.0476406  60.2435160
  93.0122137  57.6533515  60.3577526  85.9724740  63.0451936  57.0870004
  85.8994911  63.8506908  57.5989308  85.5302133  63.2443902  56.2618025
  85.7614519  62.2823706  50.5972825  84.9782041  62.8245386  50.6911050
  86.4607265  62.7997686  50.9967067  89.0711170  48.0918336  53.2407031
  89.5679869  47.3388298  52.9208101  88.2998151  48.1282652  52.6750240
  96.9240927  53.7958701  54.8825322  96.9130803  54.6783417  54.5119255
  96.0558306  53.4430252  54.6879859  88.4323423  62.9438770  59.2428163
  89.1451396  63.5786235  59.1704064  87.9413452  63.0402636  58.4268164
  90.1540950  56.8490023  50.8145454  89.2197229  56.9691485  50.6450159
  90.3317619  55.9462490  50.5505464  85.6546138  50.2335719  52.9678715
  85.2843926  49.6806759  53.6559621  86.1505231  49.6293852  52.4153715
  93.5413502  52.6907342  51.3495488  94.0073954  53.5235334  51.2755791
  93.9921002  52.2252324  52.0540747  83.4835337  60.6933214  60.0633733
  84.1844796  61.3269697  60.2163128  83.0130452  61.0347945  59.3029373
  91.6089733  59.0351163  48.3481640  91.8849577  58.9207758  49.2575514
  90.7394231  58.6368648  48.3093813  91.5130164  45.0587929  55.3886390
  90.5993244  45.2892156  55.5568597  91.9423266  45.1426373  56.2400422
  91.2836623  53.2477821  57.8886284  90.6308073  53.4953729  57.2338736
  91.6617003  52.4341959  57.5548761  88.2443797  63.2837514  51.9914454
  88.4266191  62.4659170  52.4542206  89.0676783  63.5005206  51.5539344
  88.5785962  62.2105699  49.2529502  89.1073729  61.6998154  48.6399665
  88.8414182  61.8948230  50.1175036  87.3324196  53.9897632  64.3752321
  86.6564833  53.8891761  65.0454696  88.1551830  53.8336846  64.8388318
  81.9341710  63.2620816  52.0127278  81.2652085  63.7466944  51.5291318
  81.7954580  63.5090036  52.9270657  86.0746979  65.2964560  58.6109937
  86.6265287  65.4596181  59.3759022  86.4153172  65.8868997  57.9389962
  81.0511472  47.6439709  59.2131821  81.1152798  48.5054540  58.8009219
  80.9878592  47.0313711  58.4804180  80.5263744  49.7162842  62.8604856
  81.1535783  49.3339919  63.4742380  79.6691663  49.4977044  63.2260548
  90.9257853  60.1225817  64.4658591  91.4697757  60.7355775  63.9713546
  90.3444698  60.6805395  64.9825604  89.2115366  63.2446535  55.5973619
  89.0866505  62.4436275  55.0884564  89.8694457  63.7392728  55.1087589
  91.2750274  61.0455555  57.2253169  90.3280610  60.9260906  57.1531496
  91.6233047  60.1578053  57.3079430  83.6349848  46.9349694  61.0491411
  84.1584250  47.1811991  61.8117720  83.4162181  47.7669729  60.6294548
  88.2796708  60.8408271  53.4257521  88.1321670  59.9124979  53.6065091
  89.1050201  60.8628362  52.9414596  91.8830830  61.6636830  54.5122394
  92.8077377  61.4579691  54.3746845  91.7146133  61.4153231  55.4211736
  84.8402393  47.8763389  58.7341081  84.4999213  47.0771202  59.1361761
  84.1341399  48.1765100  58.1617915  85.4918865  44.9612702  57.1868404
  86.3144934  44.4873180  57.0647295  85.7356928  45.7403185  57.6867091
  88.2758222  48.6946109  48.4189638  88.4921836  49.5770747  48.1178467
  87.7952289  48.3032322  47.6895280  83.0157443  51.6531822  54.9960383
  82.8702024  51.9672125  55.8884665  82.5382647  52.2716723  54.4431282
  84.8753826  48.6434370  55.0441273  84.8615395  47.7475464  54.7073571
  85.5926254  48.6505034  55.6779559  86.7279957  49.0771710  57.0894400
  86.4697735  49.9988781  57.0878731  86.1964997  48.6802145  57.7794864
  91.6726146  62.1822498  49.8684485  91.8463023  61.6168920  49.1158338
  92.1655037  62.9823392  49.6863975  84.2790722  47.5248751  50.3128843
  84.4006633  46.5965397  50.5119730  83.9892765  47.5387436  49.4007158
  87.1481913  45.2103661  53.4495563  87.1703609  45.2742994  52.4947542
  87.5649972  44.3708170  53.6436069  97.5265537  54.9458921  51.4874785
  97.9696683  54.1966246  51.0893908  96.6492047  54.9369057  51.1048517
  92.6601318  61.4989262  46.9681384  93.3552223  62.1195955  47.1868698
  93.0024468  60.6484613  47.2433762  94.5592741  58.9488968  48.4968715
  95.0844065  59.2876240  47.7718035  94.4715094  58.0135983  48.3131849
  86.2212790  62.8623041  60.6258591  86.5299916  62.6172188  61.4981291
  87.0188272  63.0669680  60.1377461  86.2433402  65.0160951  52.8563968
  85.8038392  64.5237329  53.5496824  86.9941519  64.4733918  52.6156043
  83.6907274  60.5598960  54.9286269  83.0687284  59.8969665  54.6288497
  84.3612141  60.5860092  54.2459917  83.7631802  49.0380748  64.5218775
  83.8119957  49.9142871  64.1396545  84.3054316  48.4958141  63.9490419
  94.2486647  59.5821871  63.8019912  93.4582191  59.5646010  63.2624412
  94.0120002  60.1210165  64.5568949  94.3684522  56.4314338  61.1152641
  94.4182527  56.2664345  62.0568164  94.2598446  55.5641597  60.7250522
  91.6588285  52.4145266  62.4311948  92.5598148  52.2751730  62.1395946
  91.7336259  52.5799720  63.3710125  85.9931090  49.7912120  61.2765134
  85.1234400  50.0845686  61.0047723  86.2290571  50.3752565  61.9972398
  95.8702719  58.8511279  61.3594663  95.5787528  59.2141260  62.1958124
  95.2574851  58.1378287  61.1807995  97.0698402  56.4164159  53.8797233
  97.9045293  56.8553963  54.0434793  97.2057530  55.9402812  53.0605479
  94.1189908  53.9743894  59.8274721  94.5944029  54.1671540  59.0193572
  93.1955473  54.0303079  59.5818104  88.6970124  46.0091737  58.7930554
  89.2152068  46.7452764  58.4677043  88.3425257  46.3155731  59.6277314
  88.9482718  42.4292020  54.3131451  89.2284472  41.7615209  54.9391878
  89.7333325  42.6221115  53.8006115  86.7516187  61.6051014  45.8756477
  86.1790154  62.2241201  45.4226949  87.3248980  62.1550375  46.4096399
  92.8191577  50.8509654  58.0603026  93.7708999  50.9507751  58.0815250
  92.6495027  50.0587922  58.5701111  90.8405956  47.9365237  58.2462427
  90.2455888  48.2170250  57.5508916  90.5555653  48.4259138  59.0179168
  89.9713446  61.8888164  47.0065060  90.9044120  61.8233725  47.2097935
  89.8836659  62.7244431  46.5479592  92.6001463  61.2054034  43.9669007
  92.5215095  60.8713898  44.8604765  93.4211130  61.6975802  43.9660480
  95.2979654  54.0715773  57.1745326  95.2655974  53.1331774  57.3605010
  95.9080278  54.1499810  56.4411151  87.1362985  52.9411826  43.2172530
  88.0822090  52.8118035  43.2860948  86.7577230  52.2026488  43.6941958
  95.4474143  50.8626817  57.2203609  94.9313191  50.0785274  57.0333538
  96.3314091  50.5345533  57.3850128  93.1084870  44.6067832  53.1799422
  92.9109691  44.2982921  54.0642754  93.7184575  45.3329471  53.3097352
 101.1156204  55.1331780  56.3151363 101.8459593  54.8717068  56.8759066
 100.5063150  54.3960502  56.3553431  99.1971501  53.2739643  56.9125814
  98.4704665  53.1395608  56.3042305  98.7818788  53.5816471  57.7182532
  87.0201678  56.9929573  64.6773187  87.9404687  57.1708172  64.8713233
  86.9851261  56.0485618  64.5252886  85.3205902  50.8661803  43.1527415
  84.4137358  50.5694916  43.2290129  85.5981883  50.5691621  42.2861701
  86.9367968  45.4098693  49.3071656  86.1268696  45.0645777  49.6826902
  87.6252385  45.1006236  49.8959268  88.8658516  44.4876739  50.9295953
  89.4189555  44.9072193  51.5885976  89.1028603  43.5612487  50.9718909
  84.8891616  50.4763813  66.7098717  84.7888342  51.4258170  66.6410808
  84.6713158  50.1482052  65.8374787  92.2437323  46.5977264  50.4374617
  91.6635992  47.2562069  50.0552670  91.9773256  45.7754609  50.0262035
  90.6940890  45.9982322  52.6395938  91.1940668  46.1098857  51.8310256
  91.3376498  45.6943375  53.2796746  84.7522886  53.9060952  65.5263779
  84.2689967  54.7061312  65.7327668  84.8383825  53.9168897  64.5731223
  91.0262201  48.7577355  49.4930966  90.1388056  49.0427005  49.2751160
  91.4416191  48.5971118  48.6458242  94.3776738  48.7823876  53.2085305
  95.1537128  49.2720328  53.4809922  93.6524872  49.2081930  53.6657174
  96.8149296  49.4951495  54.2659245  97.4093787  49.2547231  53.5552554
  96.8875880  48.7758626  54.8932782  90.1705415  58.5222030  43.5878985
  90.8741265  58.7272032  44.2036641  89.4468064  59.0898791  43.8528069
  91.0003225  54.2731891  49.7081256  90.9438427  54.7300442  48.8688888
  91.5531568  53.5122575  49.5304098  94.8108031  50.0621623  50.5331375
  94.5544965  49.6618258  51.3639583  94.1860899  50.7765417  50.4081514
  99.1220369  52.8017696  53.0402667  98.5619927  52.8710885  53.8134229
  98.5163872  52.6258681  52.3202163  82.1915578  64.2354423  54.7920853
  82.0747962  65.1799856  54.6899543  81.3708024  63.9327985  55.1806652
  92.0792112  58.9604559  45.6377446  92.9137716  58.5285757  45.4554920
  91.9176455  58.7886572  46.5654340  91.7338005  55.4636672  47.0033785
  91.6786808  55.2980943  46.0622229  91.1084060  56.1712705  47.1595975
  89.0483912  57.7685584  66.3287348  89.9175071  57.9426236  65.9673983
  88.5690663  58.5880001  66.2063077  85.0434130  44.9644781  46.5819103
  85.0312800  45.9086621  46.7387374  85.9357552  44.7814926  46.2878564
  83.2170092  64.8882685  58.0076781  84.1197339  64.9206295  58.3243276
  82.9907462  63.9583136  58.0223117  84.9723694  63.6413671  54.6686860
  84.0219325  63.6415533  54.5551232  85.2756180  62.8946406  54.1522895
  88.8586249  41.5587558  50.8365040  88.0918645  41.0046044  50.9821722
  89.2696954  41.6309426  51.6979192  80.8628010  47.8472353  64.9270221
  81.7259472  47.4909158  65.1373546  80.2893421  47.5086248  65.6145626
 100.7076387  69.4774210  55.7332622 101.3454797  69.3580957  55.0295962
 100.5897230  70.4255054  55.7920574  97.5166094  69.4301638  55.6694147
  97.1784605  69.3142703  54.7814682  98.3855862  69.0292803  55.6495153
  93.3752909  71.2837114  51.6591038  92.8117775  71.1927051  50.8907326
  93.2605304  70.4637019  52.1393530  97.9985877  70.5836490  61.6280353
  97.9874517  70.1889288  60.7560856  98.1606516  69.8502562  62.2214124
  90.9217341  72.7788306  54.4975258  91.7138633  72.4379131  54.0821558
  91.1613991  72.8883281  55.4177412  98.9552468  74.9508082  46.9705503
  98.3040448  75.5362162  46.5839517  99.7496831  75.4814277  47.0300540
  92.8808095  72.0397219  47.3692637  93.6538971  71.4926206  47.2305513
  93.2333494  72.9041469  47.5807099  94.7193138  73.3673601  60.5759536
  94.4283004  74.2719232  60.4606203  95.3550122  73.4090129  61.2903606
  95.6449345  70.7450450  57.1660896  96.2412917  70.5206472  56.4517859
  95.7024316  70.0035195  57.7686344  95.2174373  68.1989885  45.0011087
  95.4699894  67.6771407  44.2394550  94.2798932  68.0356031  45.1037771
 100.2617656  67.2025664  52.8085830 101.0480745  66.7845087  52.4576247
 100.5256360  68.1071756  52.9767479 100.4327733  72.6398514  47.5074487
  99.7973566  72.7133141  48.2195392 100.1025140  73.2292113  46.8293566
 105.6626083  67.1400897  53.7118809 106.3951255  66.5700114  53.9456638
 104.9065439  66.7522497  54.1525314  94.9370662  70.1017991  47.2035462
  94.8206920  69.4262895  47.8716546  95.0472922  69.6150365  46.3867615
  97.2802203  69.5628138  50.9082151  96.9160410  69.0358759  51.6195073
  98.1369319  69.1726607  50.7348637 103.1851503  60.8522471  58.1713417
 102.8534828  61.7217882  57.9474632 102.5897117  60.5358755  58.8507448
  96.9207690  64.5918038  45.9043500  97.0882092  65.4598275  46.2713971
  96.7304859  64.7545320  44.9804789  99.6783023  73.0535017  57.5709330
  99.3783746  73.9560056  57.4625137  99.3334082  72.7867200  58.4230483
  93.1295504  69.5048814  53.6046035  92.2046001  69.3725028  53.8123726
  93.3779918  70.2843033  54.1015977 103.0780167  65.5717557  55.2506768
 102.1697044  65.5032966  54.9565528 103.0267762  66.0489502  56.0788593
  96.8996911  67.0475696  46.8890167  96.7796536  67.4932746  47.7275647
  96.2049499  67.3961013  46.3303705  90.4904315  69.1482087  54.4389824
  90.6196697  69.4016566  55.3529235  89.8101767  69.7409795  54.1194479
  94.6603803  79.8179337  50.5380298  94.5827832  80.7687162  50.6168778
  94.0565446  79.4725210  51.1955224  97.1521032  66.9907203  63.1941665
  96.3754367  67.5501123  63.1844529  97.7911596  67.4763986  63.7156535
 104.9441813  63.7733996  57.0284641 104.3016193  64.0666529  56.3824436
 104.4396742  63.6586916  57.8337838 102.5981977  67.5197169  47.7170501
 103.5099833  67.7524556  47.5418198 102.0891624  68.1034213  47.1545579
  95.4067405  69.7992656  62.7559632  96.1482089  70.3377700  62.4794455
  94.7004390  70.4258945  62.9131184 100.8822744  71.9421797  61.3531793
 101.2906100  71.5004207  60.6086426 100.1600006  71.3674424  61.6065986
  97.2353814  66.8794403  58.7265350  98.0815010  67.3033817  58.8699999
  97.1752452  66.2228028  59.4203913 101.2051559  72.5022987  55.1084082
 100.5760422  72.6668701  54.4060150 100.8177221  72.9164597  55.8795046
 105.0840791  73.4377425  52.4628446 104.3991829  73.8176326  51.9125479
 105.1684640  74.0472752  53.1960394 100.3853260  64.5398772  60.3846524
 100.1414192  65.2940832  59.8480800 100.6613190  64.9184119  61.2193771
 102.3391723  71.0837384  59.0623789 102.5508618  71.7269144  58.3858171
 102.2921471  70.2499701  58.5945720  99.9417952  63.6955205  55.9660362
  99.0802431  63.9936458  56.2577099  99.9680386  63.9125604  55.0341394
  96.7579521  72.2397395  52.3734167  97.2217866  72.5185098  51.5838790
  96.4936319  71.3380840  52.1907258  93.6503602  71.7868877  55.3113931
  94.2204959  72.2156145  54.6731415  94.2411714  71.5051462  56.0098116
  95.6948407  68.3620548  49.1823732  96.3972450  68.8141591  49.6497659
  95.3629036  67.7204367  49.8103626  94.1428769  66.9532304  63.5574942
  93.5127429  67.6348585  63.7910339  94.0364856  66.8415386  62.6128080
  89.4373741  66.6204100  54.4840866  88.6472795  66.8761629  54.0080977
  89.9284988  67.4352438  54.5892906 103.4537551  73.9609340  57.2346147
 104.2754994  73.5589527  56.9528828 103.4499953  73.8577574  58.1862263
  91.3888486  66.9848680  51.4424343  90.5919650  67.0967374  51.9607838
  91.1614079  67.3235332  50.5765233  97.2194154  73.5093383  59.3906857
  97.2838586  73.9713790  60.2265029  96.5105078  72.8790748  59.5189167
  87.7211444  66.8734591  56.9155857  87.9719482  67.7581601  57.1813433
  88.2570992  66.6939192  56.1430949  96.9342172  75.1761490  49.2585838
  96.7987846  76.0213026  49.6870685  97.4751984  75.3780768  48.4951771
  93.4209511  61.2553070  65.9200193  93.0276457  60.7019269  66.5947837
  94.2375652  61.5663649  66.3106710  90.3871569  72.6936928  49.8313763
  90.8996090  73.4880179  49.9819327  91.0394282  71.9963219  49.7647364
  92.1966454  75.8102685  51.9136516  92.3733082  76.7320649  51.7257500
  92.9923287  75.4961104  52.3430896  96.3377472  62.6710949  63.5120449
  97.0787186  63.2718102  63.4324912  96.5695395  61.9288587  62.9538492
  91.4818810  67.8567317  61.7898679  91.3672325  66.9552574  62.0905778
  90.6263328  68.1031013  61.4383496  98.5610648  75.7985057  63.3886180
  98.1174502  75.0121435  63.0707084  99.2227862  75.9864207  62.7230070
  93.3197769  77.3280858  57.9146858  93.8705194  77.1997922  57.1423852
  92.4809245  77.6275747  57.5641751 100.6591886  76.0787857  61.4167581
 100.6410361  76.8996738  60.9247850 101.5811806  75.9541932  61.6417722
  97.1164940  73.5931986  62.2591089  97.6493277  72.8320274  62.0290397
  96.5879021  73.3005638  63.0015244 100.2834635  58.6992052  57.7884731
  99.9398905  59.5893694  57.7123842 100.6513598  58.5093710  56.9254316
  88.3520486  71.0225583  50.6073333  89.1895708  71.4322591  50.3907041
  88.5298753  70.0825025  50.5773527 100.2484918  68.6900663  46.2957166
  99.7331541  69.4605268  46.5345554  99.9762226  68.0165799  46.9190228
  97.8332029  63.5350364  51.3542405  96.9773625  63.1457214  51.1748043
  98.2458981  63.6142325  50.4942190  99.3631176  61.0696707  55.7533964
  98.8595971  61.0326843  54.9401770  99.6561782  61.9789450  55.8130621
  95.6074061  61.1535437  54.7600146  96.4727058  60.9578246  54.4006036
  95.6751570  60.9245789  55.6869503 105.2219192  71.4433018  48.2310340
 104.4448635  71.1044177  47.7865502 105.9010673  71.4485641  47.5565305
 100.0371221  66.5627755  48.1216947  99.7321357  66.8773905  48.9727091
 100.9901663  66.6409175  48.1644280  98.4817653  72.7217979  49.7709901
  97.9539015  71.9870738  49.4583139  97.9805156  73.4992655  49.5249870
 103.4610499  70.9166999  54.8876948 102.8034173  71.6066261  54.9757076
 104.2650898  71.3063431  55.2310934  93.2136381  63.3837645  52.1316513
  93.7880132  63.1612826  51.3989706  93.8007363  63.4526339  52.8845114
 102.2715958  69.2711372  52.9380889 102.7847840  69.9041364  53.4402599
 102.9217182  68.6712567  52.5724249  93.5405968  65.4142106  46.1512398
  92.7043280  65.7516793  46.4721673  93.4010737  65.2791086  45.2139535
  95.5159048  60.2578894  50.8591582  94.8623461  59.9427911  50.2348197
  95.4739522  59.6354634  51.5851405  96.6270253  70.5398189  42.7744874
  95.7197315  70.3087442  42.9736023  97.1241285  69.7435808  42.9618856
  99.5338332  79.2495696  45.6941561  98.8600031  79.5527393  46.3026518
  99.9204154  80.0524777  45.3447018  98.7496789  66.7460827  55.1839230
  97.8319350  66.9675774  55.0260918  99.1656932  66.8207138  54.3250937
  99.5331836  68.1452243  50.3141910 100.2803655  68.6573640  50.0049032
  99.8023426  67.8236296  51.1746304  97.8058487  70.6410784  47.2968864
  96.8969706  70.3569817  47.3941334  97.8353570  71.0609862  46.4372171
 103.0377754  74.2517373  51.0660032 102.5840081  73.4108283  51.1225223
 102.4071721  74.8878772  51.4034812 101.9810674  65.1809359  52.2960699
 101.2433430  64.6686746  52.6270942 102.2337447  64.7409741  51.4843976
 101.4810693  76.0893870  52.0009850 101.7733668  76.6498927  51.2822216
 101.9909314  76.3822431  52.7563009 102.0822301  57.9585611  52.8902469
 102.3881178  57.0982975  52.6028384 102.8074906  58.5503232  52.6901463
  88.3746657  68.3616298  51.2784067  88.1771057  67.7685659  50.5535133
  87.8193321  68.0568508  51.9960005  96.3543381  68.2539404  53.3978660
  96.4091990  67.3013241  53.3221136  95.5434583  68.4098844  53.8819958
  97.5034574  72.1819528  44.6356943  97.0654004  71.4655386  44.1762580
  98.2445015  72.4095642  44.0742034  94.2935741  66.8716464  51.1569039
  93.4803606  67.1710635  51.5634231  94.7894735  66.4772153  51.8743521
  96.4444318  76.8674221  53.0903303  96.4020497  77.0935067  52.1611835
  97.3607017  76.6337596  53.2389105  99.8909952  67.3358289  59.9883933
 100.2459340  67.5629762  60.8478398 100.5382083  67.6676665  59.3661188
 105.6207689  70.4576725  50.6933262 105.4825588  70.6478321  49.7654451
 105.2643908  71.2196107  51.1501313  93.7849815  64.4434820  56.7730274
  94.4249195  64.3023579  56.0753237  92.9527346  64.1569333  56.3968876
 105.6477069  72.5253252  55.7044533 106.0813575  72.4328541  56.5527587
 106.3608649  72.5010752  55.0664549  94.5610119  73.7437250  52.8865266
  95.3550718  73.2487570  52.6847841  93.8501812  73.2155113  52.5232972
  99.3804964  76.1255346  57.2377634  99.4341986  76.6946282  58.0055350
  98.5119745  76.2957231  56.8731671  90.8692883  67.8880332  48.9625019
  89.9390471  67.8264787  49.1794981  90.9650355  67.3656285  48.1661660
  90.7878432  64.4135145  51.5503260  91.0485249  65.3280478  51.4412421
  91.6095604  63.9459587  51.6999873  92.2603357  65.8272902  58.7202085
  92.9326410  65.6190264  58.0714734  91.4333144  65.6294988  58.2807317
 106.5092618  72.5676952  58.2377419 106.7028508  73.4722763  58.4836693
 106.4093236  72.1084371  59.0716004  98.1628929  62.4534843  60.7367746
  97.5156844  63.1524792  60.6432222  98.9329944  62.8870987  61.1043994
 101.5707727  72.7183695  63.8118299 101.4193233  72.4894247  62.8948383
 101.5612406  73.6754296  63.8249644  98.3393063  70.2915608  58.7964566
  99.2685123  70.4426767  58.6233533  97.9184093  70.3799628  57.9413212
  97.1381395  74.3166272  56.5663103  96.9992481  73.9485057  57.4389041
  96.3495991  74.8313912  56.3947061  97.7329547  79.4175369  47.9088640
  97.9081303  78.9463412  48.7234262  97.0462335  80.0441135  48.1369900
  98.6886610  73.6947875  53.9551941  98.3536443  73.6548645  54.8509591
  98.1890556  73.0292591  53.4822351  92.6630854  69.1015505  59.4804522
  92.5250652  68.3695744  60.0816061  93.5735778  69.0124405  59.1988710
 101.6245802  71.0403909  44.2289001 101.0074973  70.3150737  44.1322053
 101.1562290  71.8013269  43.8856075  95.2913155  68.8135464  58.9688202
  96.0012773  68.1728656  58.9274820  95.2482463  69.0648359  59.8914383
 103.2799934  75.7502818  61.8894781 103.2212480  75.0662038  61.2225364
 103.6819452  76.4921808  61.4375407  94.0042089  65.8000682  60.7883841
  93.4679446  65.3491421  61.4405438  93.4158797  65.9346591  60.0454306
  92.2990632  82.5664731  54.6828500  92.5387231  83.1983256  55.3607518
  91.4559829  82.2152771  54.9693859  93.4144348  65.2589333  43.3510305
  92.5373814  65.1378134  42.9872552  93.8902101  64.4675412  43.0989194
 103.2817341  73.7142401  60.1208761 102.3944120  73.3768323  60.2435160
 103.8515892  72.9825433  60.3577526  84.9346488  70.0466493  53.4451812
  85.6217528  69.7328223  52.8572827  84.7794617  70.9507858  53.1719063
  89.7381210  64.9356690  57.8736836  89.6539399  64.3282359  57.1387246
  88.9163917  65.4265708  57.8746332  96.8118494  78.3743854  57.0870004
  96.7388666  79.1798825  57.5989308  96.3695887  78.5735820  56.2618025
  96.6008274  77.6115624  50.5972825  95.8175796  78.1537304  50.6911050
  97.3001019  78.1289603  50.9967067  99.9104924  63.4210253  53.2407031
 100.4073624  62.6680216  52.9208101  99.1391906  63.4574570  52.6750240
 107.7634681  69.1250619  54.8825322 107.7524558  70.0075334  54.5119255
 106.8952061  68.7722170  54.6879859  99.2717178  78.2730688  59.2428163
  99.9845150  78.9078153  59.1704064  98.7807206  78.3694554  58.4268164
 100.9934705  72.1781940  50.8145454 100.0590983  72.2983403  50.6450159
 101.1711373  71.2754407  50.5505464  96.4939893  65.5627636  52.9678715
  96.1237680  65.0098677  53.6559621  96.9898985  64.9585770  52.4153715
 104.3807256  68.0199260  51.3495488 104.8467708  68.8527251  51.2755791
 104.8314757  67.5544241  52.0540747  94.3229091  76.0225131  60.0633733
  95.0238551  76.6561614  60.2163128  93.8524206  76.3639863  59.3029373
 102.4483487  74.3643081  48.3481640 102.7243331  74.2499676  49.2575514
 101.5787986  73.9660566  48.3093813 102.3523919  60.3879847  55.3886390
 101.4386999  60.6184074  55.5568597 102.7817020  60.4718291  56.2400422
 102.1230377  68.5769739  57.8886284 101.4701828  68.8245646  57.2338736
 102.5010757  67.7633877  57.5548761  99.0837551  78.6129432  51.9914454
  99.2659946  77.7951088  52.4542206  99.9070537  78.8297124  51.5539344
  99.4179717  77.5397617  49.2529502  99.9467483  77.0290072  48.6399665
  99.6807936  77.2240147  50.1175036  98.1717950  69.3189550  64.3752321
  97.4958587  69.2183679  65.0454696  98.9945584  69.1628764  64.8388318
  89.9196809  75.5561486  56.9964836  90.5050246  74.8105174  57.1292740
  89.7221648  75.8665443  57.8801500  92.7735465  78.5912734  52.0127278
  92.1045840  79.0758861  51.5291318  92.6348334  78.8381954  52.9270657
  84.5114464  68.1267087  55.7169279  84.5498564  67.5930677  56.5106397
  84.0054757  67.6002292  55.0980256  96.9140733  80.6256477  58.6109937
  97.4659041  80.7888099  59.3759022  97.2546927  81.2160915  57.9389962
  91.8905226  62.9731627  59.2131821  91.9546553  63.8346458  58.8009219
  91.8272347  62.3605629  58.4804180  91.3657499  65.0454760  62.8604856
  91.9929538  64.6631837  63.4742380  90.5085418  64.8268962  63.2260548
 101.7651608  75.4517735  64.4658591 102.3091512  76.0647693  63.9713546
 101.1838452  76.0097313  64.9825604  88.1423042  66.8531189  48.7923211
  88.4376483  65.9441867  48.7390264  87.2411077  66.8318928  48.4704213
 100.0509120  78.5738453  55.5973619  99.9260260  77.7728193  55.0884564
 100.7088212  79.0684646  55.1087589  91.6717289  64.9287185  54.7750759
  90.9503874  65.5423153  54.6358232  92.4610544  65.4644950  54.6967405
 102.1144029  76.3747473  57.2253169 101.1674364  76.2552824  57.1531496
 102.4626802  75.4869971  57.3079430  94.4743602  62.2641612  61.0491411
  94.9978004  62.5103908  61.8117720  94.2555936  63.0961647  60.6294548
  89.8710883  64.5345286  48.9162536  89.5423589  63.6542665  48.7337642
  90.2250254  64.4792955  49.8038925  99.1190462  76.1700189  53.4257521
  98.9715425  75.2416896  53.6065091  99.9443956  76.1920280  52.9414596
  92.9852706  64.8218256  49.2838013  93.3248779  65.3504177  48.5616622
  93.4324827  65.1598662  50.0596580 102.7224584  76.9928748  54.5122394
 103.6471131  76.7871609  54.3746845 102.5539887  76.7445149  55.4211736
  95.6796147  63.2055307  58.7341081  95.3392968  62.4063120  59.1361761
  94.9735154  63.5057018  58.1617915  96.3312619  60.2904619  57.1868404
  97.1538688  59.8165097  57.0647295  96.5750683  61.0695103  57.6867091
  94.9720854  63.3192878  47.4831306  95.6929216  63.6974131  46.9795023
  94.3486158  64.0381755  47.5866284  99.1151976  64.0238027  48.4189638
  99.3315591  64.9062665  48.1178467  98.6346044  63.6324240  47.6895280
  93.8551198  66.9823740  54.9960383  93.7095779  67.2964043  55.8884665
  93.3776401  67.6008640  54.4431282  95.7147581  63.9726288  55.0441273
  95.7009150  63.0767381  54.7073571  96.4320009  63.9796952  55.6779559
  97.5673711  64.4063628  57.0894400  97.3091489  65.3280699  57.0878731
  97.0358752  64.0094063  57.7794864 102.5119900  77.5114415  49.8684485
 102.6856778  76.9460838  49.1158338 103.0048791  78.3115310  49.6863975
  88.3296860  69.5229084  57.9348044  87.7850328  70.2988892  58.0668319
  89.2076210  69.8699889  57.7767166  95.1184477  62.8540668  50.3128843
  95.2400388  61.9257314  50.5119730  94.8286519  62.8679354  49.4007158
  97.9875667  60.5395579  53.4495563  98.0097364  60.6034912  52.4947542
  98.4043726  59.7000087  53.6436069 103.4995073  76.8281180  46.9681384
 104.1945977  77.4487872  47.1868698 103.8418223  75.9776531  47.2433762
  89.1162882  68.6498981  60.8278201  88.3744618  68.7981616  61.4142832
  88.7955626  68.9107246  59.9644951 105.3986496  74.2780885  48.4968715
 105.9237820  74.6168158  47.7718035 105.3108848  73.3427901  48.3131849
  97.0606545  78.1914959  60.6258591  97.3693671  77.9464106  61.4981291
  97.8582027  78.3961597  60.1377461  97.0827157  80.3452868  52.8563968
  96.6432147  79.8529247  53.5496824  97.8335274  79.8025836  52.6156043
  89.5619496  76.5364409  52.8588596  90.3877515  76.2368181  52.4787239
  89.2113548  75.7672032  53.3078384  94.5301029  75.8890878  54.9286269
  93.9081038  75.2261583  54.6288497  95.2005896  75.9152009  54.2459917
  87.7628101  74.4550736  53.8177529  86.9260009  74.0272910  53.6361531
  87.7351746  74.6483179  54.7548321  94.6025556  64.3672666  64.5218775
  94.6513712  65.2434788  64.1396545  95.1448070  63.8250059  63.9490419
 105.0880402  74.9113789  63.8019912 104.2975946  74.8937928  63.2624412
 104.8513756  75.4502083  64.5568949 105.2078277  71.7606255  61.1152641
 105.2576282  71.5956263  62.0568164 105.0992200  70.8933514  60.7250522
  94.0914536  74.4394801  48.4044730  94.2402656  75.1230265  47.7511403
  94.8980979  74.4199891  48.9194186 102.4982039  67.7437183  62.4311948
 103.3991902  67.6043648  62.1395946 102.5730014  67.9091638  63.3710125
  96.8324845  65.1204038  61.2765134  95.9628154  65.4137604  61.0047723
  97.0684325  65.7044483  61.9972398 106.7096474  74.1803197  61.3594663
 106.4181282  74.5433177  62.1958124 106.0968605  73.4670205  61.1807995
 104.9583662  69.3035811  59.8274721 105.4337784  69.4963458  59.0193572
 104.0349227  69.3594997  59.5818104  91.8467169  70.4659979  49.4105799
  91.6013211  69.5622309  49.6086009  92.0163083  70.4677129  48.4685277
  99.5363879  61.3383655  58.7930554 100.0545822  62.0744682  58.4677043
  99.1819011  61.6447648  59.6277314  91.1162816  66.1988336  46.9091960
  90.4232061  66.2732691  46.2531996  90.8714568  65.4348680  47.4313477
  99.7876473  57.7583937  54.3131451 100.0678226  57.0907127  54.9391878
 100.5727080  57.9513033  53.8006115  97.5909941  76.9342931  45.8756477
  97.0183908  77.5533118  45.4226949  98.1642735  77.4842293  46.4096399
 103.6585331  66.1801571  58.0603026 104.6102754  66.2799669  58.0815250
 103.4888781  65.3879840  58.5701111 101.6799710  63.2657155  58.2462427
 101.0849643  63.5462167  57.5508916 101.3949407  63.7551056  59.0179168
 100.8107201  77.2180081  47.0065060 101.7437874  77.1525643  47.2097935
 100.7230414  78.0536348  46.5479592 103.4395218  76.5345952  43.9669007
 103.3608849  76.2005815  44.8604765 104.2604884  77.0267720  43.9660480
 106.1373409  69.4007691  57.1745326 106.1049729  68.4623692  57.3605010
 106.7474032  69.4791728  56.4411151  97.9756740  68.2703744  43.2172530
  98.9215844  68.1409952  43.2860948  97.5970985  67.5318406  43.6941958
 106.2867897  66.1918735  57.2203609 105.7706946  65.4077191  57.0333538
 107.1707846  65.8637451  57.3850128 103.9478624  59.9359750  53.1799422
 103.7503445  59.6274838  54.0642754 104.5578330  60.6621389  53.3097352
  97.8595432  72.3221490  64.6773187  98.7798442  72.5000089  64.8713233
  97.8245015  71.3777536  64.5252886  96.1599657  66.1953720  43.1527415
  95.2531112  65.8986833  43.2290129  96.4375638  65.8983539  42.2861701
  87.0777597  67.5160084  53.6026461  86.7580382  66.6625392  53.3100835
  86.5311025  67.7308662  54.3584429  90.8557505  70.2322525  57.3195968
  91.0743515  71.1639633  57.3384002  91.2683279  69.8730499  58.1050772
  97.7761723  60.7390610  49.3071656  96.9662451  60.3937695  49.6826902
  98.4646139  60.4298154  49.8959268  99.7052271  59.8168657  50.9295953
 100.2583309  60.2364110  51.5885976  99.9422357  58.8904405  50.9718909
  95.7285370  65.8055731  66.7098717  95.6282097  66.7550088  66.6410808
  95.5106912  65.4773970  65.8374787  94.9298441  63.0540656  43.2939394
  95.7917605  63.3795554  43.5535212  95.1148786  62.2672152  42.7812460
  86.9465857  71.1362995  55.5719583  86.2529329  70.7216948  55.0589537
  87.6938848  71.1783532  54.9753002 103.0831078  61.9269182  50.4374617
 102.5029747  62.5853986  50.0552670 102.8167011  61.1046527  50.0262035
 101.5334644  61.3274240  52.6395938 102.0334423  61.4390774  51.8310256
 102.1770252  61.0235293  53.2796746  95.5916640  69.2352869  65.5263779
  95.1083722  70.0353230  65.7327668  95.6777579  69.2460814  64.5731223
  88.8602600  71.0681249  53.4485598  88.8373288  71.1668936  52.4967481
  89.1703236  71.9146400  53.7702764  91.5189978  73.1257404  57.5632212
  92.4733231  73.0941347  57.4962144  91.3202501  72.6648028  58.3782438
  92.1089360  71.6958520  60.1303010  92.9282249  72.1902599  60.1537847
  92.3826167  70.7790488  60.1020578 101.8655956  64.0869273  49.4930966
 100.9781811  64.3718923  49.2751160 102.2809945  63.9263036  48.6458242
 105.2170492  64.1115794  53.2085305 105.9930882  64.6012246  53.4809922
 104.4918626  64.5373848  53.6657174 107.6543051  64.8243413  54.2659245
 108.2487542  64.5839149  53.5552554 107.7269634  64.1050543  54.8932782
  89.8740206  78.6677024  54.5802410  89.7394674  77.9077425  54.0140408
  89.4572269  79.3917924  54.1131199 101.0099169  73.8513947  43.5878985
 101.7135020  74.0563950  44.2036641 100.2861818  74.4190709  43.8528069
 101.8396980  69.6023808  49.7081256 101.7832181  70.0592360  48.8688888
 102.3925322  68.8414493  49.5304098 105.6501786  65.3913540  50.5331375
 105.3938720  64.9910176  51.3639583 105.0254654  66.1057334  50.4081514
  93.0309332  79.5646341  54.7920853  92.9141716  80.5091773  54.6899543
  92.2101779  79.2619902  55.1806652 102.9185867  74.2896476  45.6377446
 103.7531471  73.8577675  45.4554920 102.7570210  74.1178490  46.5654340
 102.5731759  70.7928590  47.0033785 102.5180563  70.6272861  46.0622229
 101.9477814  71.5004623  47.1595975  87.3624274  66.0296654  60.8295207
  88.0083138  65.5195608  61.3182432  87.1541425  66.7665336  61.4038632
  99.8877666  73.0977502  66.3287348 100.7568826  73.2718154  65.9673983
  99.4084418  73.9171918  66.2063077  95.8827884  60.2936699  46.5819103
  95.8706554  61.2378539  46.7387374  96.7751306  60.1106844  46.2878564
  94.0563846  80.2174603  58.0076781  94.9591093  80.2498213  58.3243276
  93.8301216  79.2875054  58.0223117  95.8117448  78.9705589  54.6686860
  94.8613079  78.9707451  54.5551232  96.1149935  78.2238324  54.1522895
  99.6980004  56.8879475  50.8365040  98.9312400  56.3337962  50.9821722
 100.1090709  56.9601344  51.6979192  91.7021765  63.1764271  64.9270221
  92.5653227  62.8201076  65.1373546  91.1287176  62.8378166  65.6145626
 104.2146664  86.6129032  51.6591038 103.6511529  86.5218969  50.8907326
 104.0999059  85.7928937  52.1393530 101.7611096  88.1080224  54.4975258
 102.5532388  87.7671048  54.0821558 102.0007746  88.2175199  55.4177412
 103.7201850  87.3689137  47.3692637 104.4932726  86.8218124  47.2305513
 104.0727249  88.2333386  47.5807099 105.5586892  88.6965519  60.5759536
 105.2676758  89.6011150  60.4606203 106.1943877  88.7382047  61.2903606
 106.4843099  86.0742368  57.1660896 107.0806671  85.8498390  56.4517859
 106.5418071  85.3327113  57.7686344 106.0568128  83.5281803  45.0011087
 106.3093648  83.0063324  44.2394550 105.1192687  83.3647948  45.1037771
 105.7764416  85.4309909  47.2035462 105.6600674  84.7554812  47.8716546
 105.8866676  84.9442283  46.3867615 107.7601444  79.9209956  45.9043500
 107.9275847  80.7890192  46.2713971 107.5698613  80.0837237  44.9804789
 103.9689259  84.8340732  53.6046035 103.0439755  84.7016946  53.8123726
 104.2173672  85.6134951  54.1015977 107.7390665  82.3767613  46.8890167
 107.6190290  82.8224664  47.7275647 107.0443253  82.7252931  46.3303705
 101.3298070  84.4774005  54.4389824 101.4590451  84.7308484  55.3529235
 100.6495521  85.0701713  54.1194479 106.2461159  85.1284574  62.7559632
 106.9875844  85.6669618  62.4794455 105.5398145  85.7550863  62.9131184
 107.5973275  87.5689313  52.3734167 108.0611621  87.8477016  51.5838790
 107.3330074  86.6672758  52.1907258 104.4897357  87.1160795  55.3113931
 105.0598714  87.5448063  54.6731415 105.0805468  86.8343379  56.0098116
 106.5342162  83.6912465  49.1823732 107.2366205  84.1433509  49.6497659
 106.2022790  83.0496284  49.8103626 104.9822523  82.2824222  63.5574942
 104.3521184  82.9640503  63.7910339 104.8758611  82.1707304  62.6128080
 100.2767495  81.9496018  54.4840866  99.4866549  82.2053547  54.0080977
 100.7678743  82.7644356  54.5892906 102.2282241  82.3140597  51.4424343
 101.4313404  82.4259292  51.9607838 102.0007833  82.6527249  50.5765233
 108.0587908  88.8385300  59.3906857 108.1232341  89.3005708  60.2265029
 107.3498832  88.2082665  59.5189167  98.5605198  82.2026508  56.9155857
  98.8113237  83.0873518  57.1813433  99.0964747  82.0231110  56.1430949
 107.7735926  90.5053408  49.2585838 107.6381601  91.3504944  49.6870685
 108.3145739  90.7072686  48.4951771 104.2603266  76.5844988  65.9200193
 103.8670211  76.0311186  66.5947837 105.0769406  76.8955566  66.3106710
 101.2265324  88.0228846  49.8313763 101.7389844  88.8172096  49.9819327
 101.8788036  87.3255136  49.7647364 103.0360208  91.1394602  51.9136516
 103.2126837  92.0612567  51.7257500 103.8317042  90.8253022  52.3430896
 107.1771227  78.0002867  63.5120449 107.9180940  78.6010020  63.4324912
 107.4089150  77.2580505  62.9538492 102.3212565  83.1859234  61.7898679
 102.2066080  82.2844491  62.0905778 101.4657083  83.4322931  61.4383496
 104.1591524  92.6572776  57.9146858 104.7098949  92.5289839  57.1423852
 103.3203000  92.9567665  57.5641751  99.1914240  86.3517500  50.6073333
 100.0289462  86.7614509  50.3907041  99.3692508  85.4116942  50.5773527
 106.4467816  76.4827355  54.7600146 107.3120813  76.2870163  54.4006036
 106.5145325  76.2537707  55.6869503 104.0530135  78.7129563  52.1316513
 104.6273887  78.4904744  51.3989706 104.6401117  78.7818257  52.8845114
 104.3799722  80.7434024  46.1512398 103.5437034  81.0808710  46.4721673
 104.2404492  80.6083003  45.2139535 106.3552803  75.5870812  50.8591582
 105.7017215  75.2719829  50.2348197 106.3133277  74.9646552  51.5851405
 107.4664008  85.8690107  42.7744874 106.5591069  85.6379360  42.9736023
 107.9635040  85.0727726  42.9618856  99.2140411  83.6908216  51.2784067
  99.0164811  83.0977576  50.5535133  98.6587075  83.3860426  51.9960005
 107.1937135  83.5831322  53.3978660 107.2485745  82.6305159  53.3221136
 106.3828337  83.7390761  53.8819958 105.1329495  82.2008382  51.1569039
 104.3197361  82.5002552  51.5634231 105.6288489  81.8064071  51.8743521
 107.2838073  92.1966139  53.0903303 107.2414252  92.4226985  52.1611835
 108.2000772  91.9629513  53.2389105 104.6243570  79.7726737  56.7730274
 105.2642949  79.6315496  56.0753237 103.7921100  79.4861251  56.3968876
 105.4003874  89.0729168  52.8865266 106.1944472  88.5779488  52.6847841
 104.6895566  88.5447031  52.5232972 101.7086637  83.2172250  48.9625019
 100.7784225  83.1556705  49.1794981 101.8044109  82.6948202  48.1661660
 101.6272186  79.7427062  51.5503260 101.8879003  80.6572396  51.4412421
 102.4489359  79.2751505  51.6999873 103.0997112  81.1564820  58.7202085
 103.7720165  80.9482182  58.0714734 102.2726898  80.9586906  58.2807317
 107.9775150  89.6458190  56.5663103 107.8386235  89.2776974  57.4389041
 107.1889746  90.1605829  56.3947061 103.5024609  84.4307423  59.4804522
 103.3644407  83.6987661  60.0816061 104.4129532  84.3416323  59.1988710
 106.1306909  84.1427382  58.9688202 106.8406528  83.5020574  58.9274820
 106.0876218  84.3940277  59.8914383 104.8435843  81.1292600  60.7883841
 104.3073200  80.6783338  61.4405438 104.2552552  81.2638509  60.0454306
 104.2538102  80.5881251  43.3510305 103.3767569  80.4670052  42.9872552
 104.7295855  79.7967329  43.0989194  95.7740243  85.3758411  53.4451812
  96.4611282  85.0620141  52.8572827  95.6188371  86.2799776  53.1719063
 100.5774965  80.2648607  57.8736836 100.4933153  79.6574277  57.1387246
  99.7557671  80.7557626  57.8746332 107.3333647  80.8919554  52.9678715
 106.9631435  80.3390594  53.6559621 107.8292740  80.2877687  52.4153715
 105.1622846  91.3517049  60.0633733 105.8632305  91.9853532  60.2163128
 104.6917961  91.6931781  59.3029373 100.7590564  90.8853404  56.9964836
 101.3444001  90.1397092  57.1292740 100.5615402  91.1957361  57.8801500
 103.6129219  93.9204651  52.0127278 102.9439594  94.4050779  51.5291318
 103.4742089  94.1673872  52.9270657  95.3508219  83.4559004  55.7169279
  95.3892318  82.9222595  56.5106397  94.8448511  82.9294210  55.0980256
 102.7298981  78.3023545  59.2131821 102.7940307  79.1638376  58.8009219
 102.6666101  77.6897546  58.4804180 102.2051253  80.3746677  62.8604856
 102.8323292  79.9923755  63.4742380 101.3479172  80.1560879  63.2260548
  98.9816796  82.1823106  48.7923211  99.2770237  81.2733785  48.7390264
  98.0804832  82.1610846  48.4704213 102.5111043  80.2579103  54.7750759
 101.7897629  80.8715071  54.6358232 103.3004299  80.7936868  54.6967405
 105.3137357  77.5933529  61.0491411 105.8371759  77.8395826  61.8117720
 105.0949690  78.4253564  60.6294548 100.7104638  79.8637204  48.9162536
 100.3817344  78.9834583  48.7337642 101.0644008  79.8084873  49.8038925
 103.8246461  80.1510174  49.2838013 104.1642533  80.6796095  48.5616622
 104.2718581  80.4890580  50.0596580 106.5189902  78.5347225  58.7341081
 106.1786722  77.7355038  59.1361761 105.8128908  78.8348935  58.1617915
 107.1706374  75.6196537  57.1868404 107.9932443  75.1457015  57.0647295
 107.4144437  76.3987021  57.6867091 105.8114608  78.6484795  47.4831306
 106.5322971  79.0266048  46.9795023 105.1879912  79.3673672  47.5866284
 104.6944952  82.3115658  54.9960383 104.5489533  82.6255961  55.8884665
 104.2170156  82.9300558  54.4431282 106.5541335  79.3018206  55.0441273
 106.5402904  78.4059299  54.7073571 107.2713763  79.3088869  55.6779559
  99.1690615  84.8521002  57.9348044  98.6244083  85.6280810  58.0668319
 100.0469964  85.1991806  57.7767166 105.9578231  78.1832586  50.3128843
 106.0794142  77.2549232  50.5119730 105.6680274  78.1971272  49.4007158
  99.9556636  83.9790898  60.8278201  99.2138372  84.1273534  61.4142832
  99.6349381  84.2399164  59.9644951 100.4013250  91.8656327  52.8588596
 101.2271270  91.5660099  52.4787239 100.0507302  91.0963949  53.3078384
 105.3694783  91.2182795  54.9286269 104.7474793  90.5553500  54.6288497
 106.0399650  91.2443927  54.2459917  98.6021855  89.7842653  53.8177529
  97.7653763  89.3564828  53.6361531  98.5745501  89.9775097  54.7548321
 105.4419311  79.6964583  64.5218775 105.4907466  80.5726706  64.1396545
 105.9841825  79.1541976  63.9490419 104.9308290  89.7686719  48.4044730
 105.0796411  90.4522183  47.7511403 105.7374734  89.7491809  48.9194186
 107.6718599  80.4495956  61.2765134 106.8021909  80.7429522  61.0047723
 107.9078080  81.0336401  61.9972398 102.6860923  85.7951896  49.4105799
 102.4406965  84.8914226  49.6086009 102.8556838  85.7969047  48.4685277
 101.9556571  81.5280254  46.9091960 101.2625816  81.6024609  46.2531996
 101.7108323  80.7640597  47.4313477 106.9993411  81.5245638  43.1527415
 106.0924867  81.2278751  43.2290129 107.2769392  81.2275456  42.2861701
  97.9171352  82.8452002  53.6026461  97.5974136  81.9917310  53.3100835
  97.3704780  83.0600580  54.3584429 101.6951259  85.5614443  57.3195968
 101.9137269  86.4931550  57.3384002 102.1077033  85.2022417  58.1050772
 106.5679125  81.1347648  66.7098717 106.4675851  82.0842005  66.6410808
 106.3500667  80.8065887  65.8374787 105.7692196  78.3832573  43.2939394
 106.6311360  78.7087472  43.5535212 105.9542540  77.5964069  42.7812460
  97.7859612  86.4654913  55.5719583  97.0923083  86.0508866  55.0589537
  98.5332603  86.5075450  54.9753002 106.4310395  84.5644787  65.5263779
 105.9477476  85.3645147  65.7327668 106.5171334  84.5752732  64.5731223
  99.6996354  86.3973167  53.4485598  99.6767042  86.4960854  52.4967481
 100.0096991  87.2438318  53.7702764 102.3583732  88.4549322  57.5632212
 103.3126986  88.4233264  57.4962144 102.1596256  87.9939946  58.3782438
 102.9483114  87.0250438  60.1303010 103.7676003  87.5194517  60.1537847
 103.2219922  86.1082406  60.1020578 100.7133961  93.9968941  54.5802410
 100.5788429  93.2369342  54.0140408 100.2966023  94.7209841  54.1131199
  98.2018028  81.3588572  60.8295207  98.8476892  80.8487526  61.3182432
  97.9935180  82.0957253  61.4038632 106.7221639  75.6228616  46.5819103
 106.7100309  76.5670456  46.7387374 107.6145061  75.4398762  46.2878564
 102.5415519  78.5056189  64.9270221 103.4046981  78.1492994  65.1373546
 101.9680930  78.1670084  65.6145626  48.9415616  -1.7440817  41.4073807
  49.1812214  -1.1122293  42.0852825  48.0984812  -2.0952777  41.6939166
  60.8571647   2.3023484  38.3836345  60.2936512   2.2113421  37.6152632
  60.7424042   1.4823388  38.8638837  58.4036079   3.7974676  41.2220565
  59.1957371   3.4565500  40.8066864  58.6432729   3.9069651  42.1422718
  66.4371206   5.9694452  33.6950809  65.7859186   6.5548532  33.3084823
  67.2315569   6.5000647  33.7545847  60.3626833   3.0583589  34.0937944
  61.1357709   2.5112576  33.9550820  60.7152232   3.9227838  34.3052405
  62.2011876   4.3859971  47.3004843  61.9101742   5.2905602  47.1851509
  62.8368860   4.4276499  48.0148913  63.1268082   1.7636820  43.8906203
  63.7231655   1.5392842  43.1763166  63.1843054   1.0221565  44.4931651
  67.9146471   3.6584884  34.2319794  67.2792304   3.7319510  34.9440698
  67.5843877   4.2478482  33.5538873  62.4189400   1.1204361  33.9280769
  62.3025658   0.4449264  34.5961853  62.5291660   0.6336735  33.1112922
  67.1601761   4.0721387  44.2954637  66.8602484   4.9746425  44.1870444
  66.8152820   3.8053570  45.1475790  60.6114242   0.5235183  40.3291341
  59.6864739   0.3911398  40.5369033  60.8598655   1.3029403  40.8261284
  57.9723053   0.1668457  41.1635130  58.1015434   0.4202936  42.0774542
  57.2920505   0.7596165  40.8439785  62.1422541  10.8365707  37.2625605
  62.0646570  11.7873532  37.3414085  61.5384184  10.4911579  37.9200531
  62.8886143   0.8179026  49.4804938  63.6300827   1.3564070  49.2039762
  62.1823128   1.4445314  49.6376490  68.3641482   2.9608166  48.0777100
  68.7724838   2.5190577  47.3331732  67.6418744   2.3860794  48.3311293
  68.6870297   3.5209357  41.8329389  68.0579159   3.6855071  41.1305457
  68.2995959   3.9350966  42.6040353  72.5659529   4.4563795  39.1873753
  71.8810567   4.8362696  38.6370786  72.6503378   5.0659121  39.9205700
  64.2398259   3.2583765  39.0979474  64.7036604   3.5371468  38.3084096
  63.9755057   2.3567209  38.9152565  61.1322340   2.8055246  42.0359237
  61.7023697   3.2342515  41.3976722  61.7230452   2.5237831  42.7343423
  70.9356288   4.9795709  43.9591453  71.7573732   4.5775896  43.6774135
  70.9318691   4.8763943  44.9107569  64.7012892   4.5279752  46.1152164
  64.7657324   4.9900160  46.9510336  63.9923816   3.8977117  46.2434474
  55.2030182  -2.1079040  43.6401163  55.4538220  -1.2232030  43.9058739
  55.7389730  -2.2874438  42.8676255  64.4160909   6.1947860  35.9831144
  64.2806584   7.0399396  36.4115992  64.9570722   6.3967138  35.2197078
  57.8690307   3.7123298  36.5559069  58.3814827   4.5066548  36.7064634
  58.5213020   3.0149588  36.4892671  59.6785192   6.8289054  38.6381823
  59.8551820   7.7507019  38.4502806  60.4742025   6.5147473  39.0676202
  66.0429386   6.8171426  50.1131486  65.5993240   6.0307805  49.7952391
  66.7046599   7.0050577  49.4475377  60.8016507   8.3467228  44.6392165
  61.3523932   8.2184291  43.8669159  59.9627983   8.6462117  44.2887058
  68.1410624   7.0974226  48.1412888  68.1229099   7.9183107  47.6493157
  69.0630544   6.9728302  48.3663029  64.5983678   4.6118356  48.9836396
  65.1312015   3.8506644  48.7535704  64.0697759   4.3192008  49.7260550
  55.8339224   2.0411952  37.3318640  56.6714446   2.4508961  37.1152348
  56.0117491   1.1011394  37.3018834  65.9636391   3.7404348  36.4955208
  65.4357752   3.0057108  36.1828445  65.4623893   4.5179025  36.2495176
  64.1088991   1.5584559  29.4990181  63.2016053   1.3273812  29.6981330
  64.6060023   0.7622178  29.6864163  67.0157070  10.2682066  32.4186867
  66.3418769  10.5713762  33.0271825  67.4022892  11.0711146  32.0692324
  65.2877224   1.6597153  34.0214171  64.3788444   1.3756186  34.1186641
  65.3172308   2.0796232  33.1617478  70.5196492   5.2703743  37.7905339
  70.0658819   4.4294653  37.8470529  69.8890458   5.9065141  38.1280119
  68.9629431   7.1080240  38.7255157  69.2552405   7.6685297  38.0067522
  69.4728052   7.4008801  39.4808316  55.8565395  -0.6197332  38.0029373
  55.6589795  -1.2127972  37.2780440  55.3012059  -0.9245122  38.7205312
  64.9853312   3.2005897  31.3602250  64.5472742   2.4841756  30.9007887
  65.7263753   3.4282012  30.7987341  63.9263056   7.8860591  39.8148610
  63.8839235   8.1121437  38.8857142  64.8425755   7.6523965  39.9634411
  62.0428857   4.7623620  39.6110573  62.8369455   4.2673940  39.4093148
  61.3320549   4.2341483  39.2478278  66.8623701   7.1441715  43.9622940
  66.9160724   7.7132652  44.7300656  65.9938483   7.3143600  43.5976977
  69.0526465   3.7370065  50.5363606  68.9011971   3.5080616  49.6193689
  69.0431144   4.6940666  50.5494951  65.8211801   1.3101977  45.5209872
  66.7503861   1.4613137  45.3478840  65.4002831   1.3985998  44.6658519
  64.6200133   5.3352642  43.2908410  64.4811219   4.9671426  44.1634348
  63.8314729   5.8500281  43.1192368  65.2148285  10.4361738  34.6333946
  65.3900041   9.9649781  35.4479569  64.5281073  11.0627504  34.8615207
  66.1705348   4.7134244  40.6797248  65.8355181   4.6735014  41.5754898
  65.6709294   4.0478960  40.2067658  60.1449592   0.1201874  46.2049829
  60.0069390  -0.6117887  46.8061368  61.0554516   0.0310775  45.9234017
  70.7618671   6.7689187  48.6140088  70.7031218   6.0848407  47.9470671
  71.1638190   7.5108177  48.1620714  59.7809370  13.5851101  41.4073807
  60.0205968  14.2169625  42.0852825  58.9378567  13.2339141  41.6939166
  70.7636079   4.7328771  46.8454067  69.8762857   4.3954693  46.9680466
  71.3334630   4.0011802  47.0822833  52.4165226   1.0652863  40.1697119
  53.1036266   0.7514593  39.5818134  52.2613354   1.9694227  39.8964370
  64.2937232   9.3930223  43.8115311  64.2207404  10.1985195  44.3234615
  63.8514625   9.5922189  42.9863332  64.0827012   8.6301993  37.3218132
  63.2994534   9.1723674  37.4156357  64.7819757   9.1475973  37.7212373
  66.7535916   9.2917057  45.9673469  67.4663888   9.9264522  45.8949371
  66.2625944   9.3880923  45.1513471  68.4753443   3.1968310  37.5390761
  67.5409721   3.3169773  37.3695465  68.6530111   2.2940777  37.2750771
  61.8047829   7.0411501  46.7879040  62.5057289   7.6747984  46.9408434
  61.3342944   7.3826232  46.0274679  69.9302225   5.3829451  35.0726947
  70.2062069   5.2686045  35.9820821  69.0606724   4.9846935  35.0339120
  66.5656289   9.6315801  38.7159761  66.7478684   8.8137457  39.1787513
  67.3889275   9.8483494  38.2784651  66.8998454   8.5583987  35.9774809
  67.4286221   8.0476441  35.3644971  67.1626674   8.2426517  36.8420342
  57.4015547   6.5747856  43.7210143  57.9868984   5.8291544  43.8538047
  57.2040386   6.8851813  44.6046807  60.2554202   9.6099103  38.7372585
  59.5864578  10.0945231  38.2536625  60.1167072   9.8568324  39.6515964
  51.9933202  -0.8546544  42.4414586  52.0317301  -1.3882953  43.2351704
  51.4873495  -1.3811338  41.8225563  64.3959471  11.6442847  45.3355243
  64.9477779  11.8074468  46.1004329  64.7365664  12.2347285  44.6635268
  69.2470345   6.4704104  51.1903898  69.7910249   7.0834063  50.6958853
  68.6657190   7.0283683  51.7070911  67.5327858   9.5924822  42.3218926
  67.4078998   8.7914562  41.8129871  68.1906949  10.0871016  41.8332896
  69.5962767   7.3933842  43.9498476  68.6493102   7.2739194  43.8776802
  69.9445540   6.5056340  44.0324737  66.6009200   7.1886559  40.1502828
  66.4534162   6.2603266  40.3310398  67.4262693   7.2106649  39.6659903
  70.2043322   8.0115117  41.2367701  71.1289869   7.8057979  41.0992152
  70.0358625   7.7631519  42.1457042  69.9938638   8.5300785  36.5929792
  70.1675516   7.9647207  35.8403645  70.4867529   9.3301680  36.4109282
  55.8115598   0.5415454  44.6593351  55.2669066   1.3175262  44.7913625
  56.6894948   0.8886258  44.5012472  70.9813811   7.8467549  33.6926690
  71.6764715   8.4674242  33.9114005  71.3236961   6.9962900  33.9679068
  56.5981620  -0.3314650  47.5523508  55.8563356  -0.1832014  48.1388138
  56.2774364  -0.0706384  46.6890257  72.8805234   5.2967255  35.2214021
  73.4056558   5.6354528  34.4963341  72.7927586   4.3614270  35.0377156
  64.5425282   9.2101328  47.3503898  64.8512409   8.9650475  48.2226597
  65.3400764   9.4147967  46.8622768  64.5645894  11.3639238  39.5809274
  64.1250885  10.8715617  40.2742131  65.3154011  10.8212206  39.3401350
  57.0438233   7.5550779  39.5833902  57.8696253   7.2554551  39.2032546
  56.6932285   6.7858401  40.0323691  62.0119767   6.9077247  41.6531576
  61.3899776   6.2447952  41.3533804  62.6824633   6.9338379  40.9705224
  55.2446838   5.4737105  40.5422836  54.4078747   5.0459280  40.3606837
  55.2170484   5.6669549  41.4793627  72.5699140   5.9300158  50.5265219
  71.7794683   5.9124297  49.9869719  72.3332494   6.4688452  51.2814256
  61.5733273   5.4581170  35.1290037  61.7221394   6.1416635  34.4756709
  62.3799717   5.4386261  35.6439492  74.1915212   5.1989566  48.0839969
  73.9000020   5.5619547  48.9203430  73.5787343   4.4856575  47.9053301
  59.3285906   1.4846348  36.1351105  59.0831948   0.5808678  36.3331316
  59.4981821   1.4863499  35.1930583  65.0728679   7.9529301  32.6001784
  64.5002646   8.5719488  32.1472256  65.6461473   8.5028663  33.1341706
  68.2925939   8.2366451  33.7310366  69.2256612   8.1712013  33.9343242
  68.2049152   9.0722718  33.2724899  70.9213955   7.5532321  30.6914314
  70.8427587   7.2192185  31.5850072  71.7423622   8.0454089  30.6905786
  65.3414170   3.3407860  51.4018493  66.2617179   3.5186459  51.5958540
  65.3063753   2.3963905  51.2498193  54.5596335  -1.4653547  40.3271768
  54.2399119  -2.3188238  40.0346142  54.0129763  -1.2504968  41.0829735
  58.3376243   1.2508894  44.0441275  58.5562252   2.1826002  44.0629308
  58.7502016   0.8916869  44.8296078  54.4284595   2.1549365  42.2964890
  53.7348066   1.7403318  41.7834844  55.1757586   2.1969901  41.6998309
  63.0735378   0.2539239  52.2509085  62.5902460   1.0539599  52.4572974
  63.1596317   0.2647184  51.2976529  56.3421338   2.0867619  40.1730905
  56.3192026   2.1855306  39.2212788  56.6521974   2.9332770  40.4948071
  59.0008715   4.1443774  44.2877519  59.9551969   4.1127716  44.2207451
  58.8021239   3.6834397  45.1027745  59.5908098   2.7144890  46.8548317
  60.4100987   3.2088968  46.8783154  59.8644905   1.7976858  46.8265884
  57.3558944   9.6863393  41.3047717  57.2213412   8.9263794  40.7385715
  56.9391006  10.4104293  40.8376506  68.4917907   4.8700317  30.3124292
  69.1953757   5.0750319  30.9281948  67.7680556   5.4377079  30.5773376
  60.5128070  10.5832710  41.5166160  60.3960454  11.5278143  41.4144850
  59.6920516  10.2806272  41.9051959  70.4004605   5.3082846  32.3622752
  71.2350209   4.8764044  32.1800227  70.2388948   5.1364860  33.2899647
  67.3696404   4.1163871  53.0532654  68.2387564   4.2904523  52.6919289
  66.8903155   4.9358288  52.9308384  61.5382584  11.2360972  44.7322088
  62.4409831  11.2684582  45.0488583  61.3119954  10.3061423  44.7468424
  63.2936186   9.9891959  41.3932167  62.3431817   9.9893820  41.2796539
  63.5968672   9.2424693  40.8768201  79.0288880  15.8252497  42.4577929
  79.6667290  15.7059244  41.7541269  78.9109723  16.7733341  42.5165881
  75.8378586  15.7779925  42.3939454  75.4997097  15.6620990  41.5059989
  76.7068354  15.3771090  42.3740460  71.6965402  17.6315402  38.3836345
  71.1330267  17.5405339  37.6152632  71.5817797  16.8115306  38.8638837
  76.3198369  16.9314777  48.3525659  76.3087010  16.5367575  47.4806163
  76.4819008  16.1980850  48.9459431  69.2429834  19.1266593  41.2220565
  70.0351126  18.7857418  40.8066864  69.4826484  19.2361568  42.1422718
  77.2764960  21.2986369  33.6950809  76.6252940  21.8840450  33.3084823
  78.0709323  21.8292564  33.7545847  71.2020588  18.3875506  34.0937944
  71.9751464  17.8404494  33.9550820  71.5545986  19.2519756  34.3052405
  73.0405630  19.7151889  47.3004843  72.7495496  20.6197520  47.1851509
  73.6762614  19.7568416  48.0148913  73.9661837  17.0928737  43.8906203
  74.5625409  16.8684760  43.1763166  74.0236808  16.3513483  44.4931651
  73.5386865  14.5468173  31.7256394  73.7912386  14.0249694  30.9639857
  72.6011424  14.3834318  31.8283077  78.5830148  13.5503951  39.5331137
  79.3693237  13.1323374  39.1821554  78.8468853  14.4550043  39.7012785
  78.7540226  18.9876801  34.2319794  78.1186059  19.0611428  34.9440698
  78.4237632  19.5770400  33.5538873  83.9838575  13.4879184  40.4364116
  84.7163747  12.9178401  40.6701945  83.2277931  13.1000785  40.8770621
  73.2583154  16.4496279  33.9280769  73.1419412  15.7741182  34.5961853
  73.3685414  15.9628652  33.1112922  75.6014695  15.9106426  37.6327458
  75.2372902  15.3837047  38.3440379  76.4581811  15.5204895  37.4593943
  81.5063996   7.2000758  44.8958724  81.1747320   8.0696169  44.6719939
  80.9109609   6.8837042  45.5752754  75.2420182  10.9396325  32.6288806
  75.4094584  11.8076562  32.9959278  75.0517351  11.1023607  31.7050096
  77.9995515  19.4013304  44.2954637  77.6996238  20.3038343  44.1870444
  77.6546575  19.1345487  45.1475790  71.4507997  15.8527101  40.3291341
  70.5258493  15.7203315  40.5369033  71.6992410  16.6321320  40.8261284
  81.3992659  11.9195844  41.9752074  80.4909536  11.8511253  41.6810835
  81.3480255  12.3967789  42.8033900  75.2209403  13.3953983  33.6135473
  75.1009028  13.8411034  34.4520954  74.5261991  13.7439301  33.0549011
  68.8116808  15.4960375  41.1635130  68.9409189  15.7494854  42.0774542
  68.1314259  16.0888083  40.8439785  72.9816295  26.1657625  37.2625605
  72.9040325  27.1165450  37.3414085  72.3777939  25.8203497  37.9200531
  75.4733525  13.3385490  49.9186971  74.6966859  13.8979410  49.9089836
  76.1124088  13.8242273  50.4401842  83.2654305  10.1212283  43.7529948
  82.6228686  10.4144816  43.1069743  82.7609234  10.0065203  44.5583145
  80.9194469  13.8675456  34.4415807  81.8312325  14.1002843  34.2663505
  80.4104116  14.4512500  33.8790886  73.7279897  16.1470943  49.4804938
  74.4694581  16.6855987  49.2039762  73.0216883  16.7737232  49.6376490
  79.2035237  18.2900084  48.0777100  79.6118593  17.8482494  47.3331732
  78.4812498  17.7152711  48.3311293  75.5566307  13.2272691  45.4510657
  76.4027502  13.6512104  45.5945306  75.4964944  12.5706315  46.1449220
  79.5264051  18.8501274  41.8329389  78.8972914  19.0146989  41.1305457
  79.1389713  19.2642884  42.6040353  83.4053283  19.7855712  39.1873753
  82.7204321  20.1654614  38.6370786  83.4897133  20.3951039  39.9205700
  78.7065752  10.8877059  47.1091831  78.4626684  11.6419120  46.5726106
  78.9825683  11.2662407  47.9439078  80.6604215  17.4315671  45.7869096
  80.8721110  18.0747431  45.1103477  80.6133963  16.5977988  45.3191026
  78.2630444  10.0433492  42.6905668  77.4014923  10.3414746  42.9822406
  78.2892878  10.2603891  41.7586701  75.0792013  18.5875683  39.0979474
  75.5430359  18.8663386  38.3084096  74.8148811  17.6859127  38.9152565
  71.9716094  18.1347164  42.0359237  72.5417451  18.5634432  41.3976722
  72.5624206  17.8529749  42.7343423  74.0160899  14.7098835  35.9069039
  74.7184943  15.1619879  36.3742965  73.6841528  14.0682654  36.5348932
  72.4641261  13.3010592  50.2820248  71.8339921  13.9826872  50.5155645
  72.3577349  13.1893673  49.3373387  67.7586233  12.9682388  41.2086173
  66.9685287  13.2239916  40.7326283  68.2497481  13.7830725  41.3138213
  81.7750043  20.3087627  43.9591453  82.5967487  19.9067814  43.6774135
  81.7712446  20.2055861  44.9107569  69.7100979  13.3326967  38.1669649
  68.9132142  13.4445661  38.6853145  69.4826571  13.6713619  37.3010540
  75.5406646  19.8571670  46.1152164  75.6051079  20.3192077  46.9510336
  74.8317570  19.2269035  46.2434474  66.0423936  13.2212878  43.6401163
  66.2931975  14.1059888  43.9058739  66.5783485  13.0417480  42.8676255
  89.8656036  16.6526375  40.3076425  89.1119744  16.0833773  40.1520429
  90.0003577  16.6189040  41.2547060  75.2554664  21.5239778  35.9831144
  75.1200339  22.3691313  36.4115992  75.7964476  21.7259055  35.2197078
  71.7422004   7.6031357  52.6445499  71.3488949   7.0497556  53.3193144
  72.5588144   7.9141936  53.0352017  68.7084061  19.0415216  36.5559069
  69.2208582  19.8358466  36.7064634  69.3606774  18.3441506  36.4892671
  70.5178946  22.1580972  38.6381823  70.6945574  23.0798937  38.4502806
  71.3135780  21.8439391  39.0676202  74.6589965   9.0189236  50.2365756
  75.3999678   9.6196390  50.1570219  74.8907887   8.2766874  49.6783799
  69.8031303  14.2045604  48.5143986  69.6884818  13.3030861  48.8151085
  68.9475820  14.4509301  48.1628802  76.8823140  22.1463344  50.1131486
  76.4386994  21.3599723  49.7952391  77.5440354  22.3342495  49.4475377
  71.6410261  23.6759146  44.6392165  72.1917687  23.5476209  43.8669159
  70.8021737  23.9754035  44.2887058  78.9804378  22.4266144  48.1412888
  78.9622854  23.2475025  47.6493157  79.9024298  22.3020219  48.3663029
  75.4377433  19.9410273  48.9836396  75.9705769  19.1798562  48.7535704
  74.9091514  19.6483925  49.7260550  66.6732978  17.3703870  37.3318640
  67.5108200  17.7800878  37.1152348  66.8511246  16.4303312  37.3018834
  78.5697410  15.0378951  33.0202473  78.0544034  15.8083555  33.2590860
  78.2974719  14.3644087  33.6435534  76.1544521   9.8828651  38.0787711
  75.2986118   9.4935502  37.8993350  76.5671473   9.9620612  37.2187497
  77.6843668   7.4174995  42.4779271  77.1808463   7.3805130  41.6647076
  77.9774275   8.3267737  42.5375928  73.9286554   7.5013724  41.4845453
  74.7939551   7.3056533  41.1251342  73.9964063   7.2724076  42.4114809
  83.5431684  17.7911305  34.9555646  82.7661127  17.4522465  34.5110808
  84.2223165  17.7963928  34.2810611  78.3583713  12.9106043  34.8462254
  78.0533849  13.2252192  35.6972397  79.3114155  12.9887463  34.8889587
  76.8030145  19.0696266  36.4955208  76.2751507  18.3349026  36.1828445
  76.3017648  19.8470942  36.2495176  81.7822991  17.2645286  41.6122254
  81.1246666  17.9544548  41.7002383  82.5863390  17.6541718  41.9556241
  71.5348873   9.7315932  38.8561820  72.1092625   9.5091114  38.1235012
  72.1219855   9.8004627  39.6090421  80.5928450  15.6189659  39.6626196
  81.1060332  16.2519651  40.1647906  81.2429674  15.0190855  39.2969556
  71.8618460  11.7620393  32.8757705  71.0255772  12.0995080  33.1966980
  71.7223230  11.6269373  31.9384842  73.8371541   6.6057181  37.5836889
  73.1835953   6.2906198  36.9593504  73.7952015   5.9832922  38.3096712
  74.9482745  16.8876476  29.4990181  74.0409807  16.6565730  29.6981330
  75.4453777  16.0914095  29.6864163  77.8550824  25.5973983  32.4186867
  77.1812523  25.9005680  33.0271825  78.2416646  26.4003064  32.0692324
  77.0709281  13.0939115  41.9084537  76.1531842  13.3154062  41.7506225
  77.4869425  13.1685425  41.0496244  77.8544329  14.4930530  37.0387217
  78.6016148  15.0051928  36.7294339  78.1235918  14.1714583  37.8991610
  76.1270979  16.9889071  34.0214171  75.2182198  16.7048104  34.1186641
  76.1566063  17.4088150  33.1617478  81.3590246  20.5995661  37.7905339
  80.9052573  19.7586570  37.8470529  80.7284213  21.2357059  38.1280119
  80.3023166  11.5287647  39.0206006  79.5645923  11.0165033  39.3516249
  80.5549939  11.0888028  38.2089283  79.8023185  22.4372157  38.7255157
  80.0946160  22.9977214  38.0067522  80.3121806  22.7300718  39.4808316
  66.6959149  14.7094585  38.0029373  66.4983549  14.1163946  37.2780440
  66.1405813  14.4046795  38.7205312  74.6755873  14.6017692  40.1223966
  74.7304483  13.6491528  40.0466443  73.8647075  14.7577131  40.6065265
  75.8247067  18.5297815  31.3602250  75.3866497  17.8133674  30.9007887
  76.5657507  18.7573930  30.7987341  72.6148233  13.2194751  37.8814345
  71.8016098  13.5188922  38.2879537  73.1107227  12.8250440  38.5988828
  74.7656811  23.2152508  39.8148610  74.7232989  23.4413355  38.8857142
  75.6819510  22.9815883  39.9634411  78.2122444  13.6836576  46.7129239
  78.5671832  13.9108049  47.5723705  78.8594576  14.0154953  46.0906495
  83.9420181  16.8055012  37.4178568  83.8038080  16.9956608  36.4899757
  83.5856400  17.5674395  37.8746619  72.1062308  10.7913107  43.4975580
  72.7461687  10.6501866  42.7998544  71.2739838  10.5047620  43.1214182
  83.9689561  18.8731539  42.4289840  84.4026068  18.7806828  43.2772894
  84.6821142  18.8489039  41.7909856  72.8822611  20.0915537  39.6110573
  73.6763210  19.5965858  39.4093148  72.1714304  19.5633401  39.2478278
  77.7017456  22.4733633  43.9622940  77.7554478  23.0424569  44.7300656
  76.8332237  22.6435518  43.5976977  69.1905375  14.2358619  35.6870325
  68.2602963  14.1743075  35.9040288  69.2862847  13.7134572  34.8906967
  69.1090924  10.7613432  38.2748567  69.3697741  11.6758765  38.1657728
  69.9308096  10.2937875  38.4245180  70.5815849  12.1751189  45.4447392
  71.2538903  11.9668551  44.7960041  69.7545636  11.9773275  45.0052624
  84.8305111  18.9155239  44.9622725  85.0241001  19.8201050  45.2082000
  84.7305729  18.4562659  45.7961310  76.4841421   8.8013130  47.4613052
  75.8369336   9.5003080  47.3677529  77.2542437   9.2349274  47.8289301
  79.8920219  19.0661982  50.5363606  79.7405726  18.8372534  49.6193689
  79.8824899  20.0232584  50.5494951  76.6605556  16.6393895  45.5209872
  77.5897616  16.7905055  45.3478840  76.2396586  16.7277916  44.6658519
  75.4593887  20.6644559  43.2908410  75.3204973  20.2963344  44.1634348
  74.6708484  21.1792199  43.1192368  76.0542039  25.7653656  34.6333946
  76.2293795  25.2941699  35.4479569  75.3674827  26.3919422  34.8615207
  77.0099103  20.0426162  40.6797248  76.6748935  20.0026932  41.5754898
  76.5103048  19.3770878  40.2067658  70.9843347  15.4493792  46.2049829
  70.8463144  14.7174031  46.8061368  71.8948270  15.3602692  45.9234017
  79.9458294  17.3882196  30.9534307  79.3287465  16.6629025  30.8567360
  79.4774783  18.1491557  30.6101382  73.6125647  15.1613751  45.6933508
  74.3225266  14.5206944  45.6520127  73.5694955  15.4126646  46.6159689
  81.6012426  22.0981105  48.6140088  81.5424972  21.4140325  47.9470671
  82.0031944  22.8400095  48.1620714  72.3254581  12.1478969  47.5129148
  71.7891938  11.6969708  48.1650744  71.7371290  12.2824878  46.7699612
  71.7356840  11.6067621  30.0755612  70.8586306  11.4856421  29.7117858
  72.2114593  10.8153699  29.8234500  81.6029833  20.0620689  46.8454067
  80.7156612  19.7246610  46.9680466  82.1728384  19.3303720  47.0822833
  63.2558980  16.3944780  40.1697119  63.9430020  16.0806510  39.5818134
  63.1007109  17.2986145  39.8964370  68.0593702  11.2834977  44.5982142
  67.9751891  10.6760647  43.8632552  67.2376409  11.7743995  44.5991639
  75.1330987  24.7222141  43.8115311  75.0601158  25.5277113  44.3234615
  74.6908380  24.9214107  42.9863332  74.9220766  23.9593911  37.3218132
  74.1388288  24.5015591  37.4156357  75.6213511  24.4767891  37.7212373
  78.2317416   9.7688541  39.9652337  78.7286116   9.0158503  39.6453408
  77.4604398   9.8052857  39.3995547  86.0847174  15.4728906  41.6070629
  86.0737050  16.3553621  41.2364562  85.2164553  15.1200457  41.4125166
  77.5929670  24.6208975  45.9673469  78.3057642  25.2556440  45.8949371
  77.1019699  24.7172841  45.1513471  79.3147197  18.5260228  37.5390761
  78.3803476  18.6461690  37.3695465  79.4923865  17.6232695  37.2750771
  74.8152385  11.9105924  39.6924022  74.4450173  11.3576964  40.3804928
  75.3111478  11.3064057  39.1399022  82.7019748  14.3677547  38.0740795
  83.1680201  15.2005539  38.0001098  83.1527249  13.9022529  38.7786053
  72.6441584  22.3703419  46.7879040  73.3451043  23.0039901  46.9408434
  72.1736699  22.7118150  46.0274679  80.7695979  20.7121368  35.0726947
  81.0455823  20.5977963  35.9820821  79.9000478  20.3138853  35.0339120
  80.6736411   6.7358134  42.1131696  79.7599491   6.9662361  42.2813903
  81.1029513   6.8196578  42.9645729  80.4442870  14.9248026  44.6131590
  79.7914320  15.1723933  43.9584043  80.8223249  14.1112164  44.2794068
  77.4050043  24.9607719  38.7159761  77.5872438  24.1429375  39.1787513
  78.2283029  25.1775411  38.2784651  77.7392209  23.8875904  35.9774809
  78.2679975  23.3768359  35.3644971  78.0020429  23.5718434  36.8420342
  76.4930443  15.6667837  51.0997627  75.8171080  15.5661966  51.7700003
  77.3158076  15.5107051  51.5633625  68.2409302  21.9039774  43.7210143
  68.8262739  21.1583461  43.8538047  68.0434140  22.2143730  44.6046807
  71.0947957  24.9391021  38.7372585  70.4258332  25.4237149  38.2536625
  70.9560827  25.1860241  39.6515964  62.8326956  14.4745374  42.4414586
  62.8711056  13.9408964  43.2351704  62.3267249  13.9480579  41.8225563
  70.2117719   9.3209914  45.9377128  70.2759045  10.1824745  45.5254526
  70.1484839   8.7083916  45.2049487  69.6869991  11.3933047  49.5850162
  70.3142030  11.0110124  50.1987687  68.8297910  11.1747249  49.9505855
  80.0864100  21.7996022  51.1903898  80.6304004  22.4125980  50.6958853
  79.5050945  22.3575600  51.7070911  66.4635534  13.2009476  35.5168517
  66.7588975  12.2920154  35.4635571  65.5623570  13.1797215  35.1949520
  78.3721613  24.9216740  42.3218926  78.2472752  24.1206480  41.8129871
  79.0300704  25.4162933  41.8332896  69.9929781  11.2765473  41.4996066
  69.2716367  11.8901440  41.3603539  70.7823037  11.8123237  41.4212712
  80.4356521  22.7225760  43.9498476  79.4886857  22.6031111  43.8776802
  80.7839294  21.8348258  44.0324737  72.7956095   8.6119899  47.7736718
  73.3190496   8.8582196  48.5363027  72.5768428   9.4439934  47.3539855
  68.1923376  10.8823574  35.6407842  67.8636082  10.0020953  35.4582948
  68.5462746  10.8271242  36.5284232  77.4402954  22.5178476  40.1502828
  77.2927917  21.5895184  40.3310398  78.2656448  22.5398567  39.6659903
  71.3065199  11.1696543  36.0083320  71.6461271  11.6982465  35.2861928
  71.7537319  11.5076950  36.7841887  81.0437076  23.3407035  41.2367701
  81.9683624  23.1349896  41.0992152  80.8752380  23.0923436  42.1457042
  74.0008640   9.5533594  45.4586388  73.6605460   8.7541407  45.8607068
  73.2947646   9.8535305  44.8863221  74.6525111   6.6382907  43.9113711
  75.4751181   6.1643385  43.7892601  74.8963175   7.4173390  44.4112397
  73.2933346   9.6671165  34.2076613  74.0141708  10.0452418  33.7040330
  72.6698650  10.3860042  34.3111591  77.4364469  10.3716314  35.1434945
  77.6528083  11.2540952  34.8423773  76.9558536   9.9802527  34.4140587
  72.1763690  13.3302027  41.7205690  72.0308271  13.6442330  42.6129971
  71.6988894  13.9486928  41.1676588  74.0360073  10.3204575  41.7686579
  74.0221642   9.4245668  41.4318877  74.7532501  10.3275239  42.4024865
  75.8886204  10.7541915  43.8139707  75.6303982  11.6758986  43.8124037
  75.3571244  10.3572350  44.5040171  80.8332393  23.8592702  36.5929792
  81.0069270  23.2939125  35.8403645  81.3261284  24.6593597  36.4109282
  66.6509352  15.8707372  44.6593351  66.1062820  16.6467180  44.7913625
  67.5288702  16.2178176  44.5012472  73.4396969   9.2018955  37.0374149
  73.5612880   8.2735602  37.2365037  73.1499011   9.2157641  36.1252465
  76.3088159   6.8873866  40.1740869  76.3309856   6.9513199  39.2192849
  76.7256218   6.0478375  40.3681375  86.6871784  16.6229125  38.2120092
  87.1302930  15.8736451  37.8139215  85.8098294  16.6139262  37.8293824
  81.8207565  23.1759467  33.6926690  82.5158470  23.7966160  33.9114005
  82.1630715  22.3254818  33.9679068  67.4375374  14.9977268  47.5523508
  66.6957110  15.1459903  48.1388138  67.1168118  15.2585533  46.6890257
  83.7198988  20.6259172  35.2214021  84.2450312  20.9646445  34.4963341
  83.6321341  19.6906188  35.0377156  75.3819037  24.5393246  47.3503898
  75.6906163  24.2942393  48.2226597  76.1794519  24.7439885  46.8622768
  75.4039649  26.6931156  39.5809274  74.9644639  26.2007534  40.2742131
  76.1547766  26.1504123  39.3401350  67.8831988  22.8842697  39.5833902
  68.7090008  22.5846468  39.2032546  67.5326040  22.1150319  40.0323691
  72.8513521  22.2369165  41.6531576  72.2293530  21.5739870  41.3533804
  73.5218388  22.2630297  40.9705224  66.0840593  20.8029023  40.5422836
  65.2472501  20.3751197  40.3606837  66.0564238  20.9961466  41.4793627
  72.9238049  10.7150953  51.2464082  72.9726204  11.5913076  50.8641852
  73.4660563  10.1728346  50.6735725  83.4092894  21.2592076  50.5265219
  82.6188438  21.2416215  49.9869719  83.1726249  21.7980370  51.2814256
  83.5290769  18.1084542  47.8397948  83.5788774  17.9434550  48.7813470
  83.4204693  17.2411801  47.4495828  72.4127028  20.7873088  35.1290037
  72.5615148  21.4708553  34.4756709  73.2193471  20.7678178  35.6439492
  80.8194532  14.0915470  49.1557254  81.7204394  13.9521935  48.8641252
  80.8942506  14.2569925  50.0955432  75.1537337  11.4682325  48.0010441
  74.2840646  11.7615891  47.7293029  75.3896817  12.0522770  48.7217704
  85.0308966  20.5281484  48.0839969  84.7393774  20.8911465  48.9203430
  84.4181097  19.8148492  47.9053301  86.2304648  18.0934364  40.6042539
  87.0651540  18.5324168  40.7680100  86.3663777  17.6173017  39.7850785
  83.2796154  15.6514099  46.5520027  83.7550276  15.8441745  45.7438879
  82.3561720  15.7073284  46.3063411  70.1679661  16.8138266  36.1351105
  69.9225703  15.9100596  36.3331316  70.3375575  16.8155416  35.1930583
  77.8576371   7.6861942  45.5175861  78.3758315   8.4222969  45.1922350
  77.5031504   7.9925935  46.3522620  69.4375308  12.5466623  33.6337267
  68.7444553  12.6210978  32.9777303  69.1927060  11.7826967  34.1558784
  75.9122433  23.2821219  32.6001784  75.3396401  23.9011406  32.1472256
  76.4855227  23.8320580  33.1341706  81.9797823  12.5279859  44.7848333
  82.9315246  12.6277956  44.8060557  81.8101274  11.7358127  45.2946417
  80.0012203   9.6135442  44.9707734  79.4062135   9.8940455  44.2754222
  79.7161899  10.1029343  45.7424475  79.1319693  23.5658369  33.7310366
  80.0650366  23.5003930  33.9343242  79.0442906  24.4014636  33.2724899
  81.7607710  22.8824239  30.6914314  81.6821341  22.5484103  31.5850072
  82.5817377  23.3746007  30.6905786  84.4585901  15.7485978  43.8990632
  84.4262221  14.8101979  44.0850316  85.0686525  15.8270015  43.1656457
  76.2969232  14.6182031  29.9417836  77.2428337  14.4888239  30.0106255
  75.9183477  13.8796693  30.4187265  84.6080390  12.5397022  43.9448916
  84.0919438  11.7555478  43.7578844  85.4920338  12.2115738  44.1095435
  90.2762451  16.8101985  43.0396669  91.0065839  16.5487273  43.6004373
  89.6669396  16.0730707  43.0798737  88.3577748  14.9509848  43.6371120
  87.6310912  14.8165813  43.0287612  87.9425035  15.2586676  44.4427838
  76.1807924  18.6699777  51.4018493  77.1010934  18.8478376  51.5958540
  76.1457508  17.7255823  51.2498193  74.4812149  12.5432008  29.8772722
  73.5743604  12.2465120  29.9535435  74.7588130  12.2461826  29.0107008
  65.3990089  13.8638371  40.3271768  65.0792874  13.0103679  40.0346142
  64.8523518  14.0786949  41.0829735  69.1769997  16.5800812  44.0441275
  69.3956007  17.5117920  44.0629308  69.5895771  16.2208787  44.8296078
  76.0974215   7.0868897  36.0316963  75.2874943   6.7415982  36.4072209
  76.7858632   6.7776441  36.6204575  74.0497862  12.1534018  53.4344024
  73.9494589  13.1028375  53.3656115  73.8319404  11.8252257  52.5620094
  73.2510934   9.4018943  30.0184701  74.1130098   9.7273841  30.2780518
  73.4361278   8.6150439  29.5057767  65.2678349  17.4841283  42.2964890
  64.5741821  17.0695235  41.7834844  66.0151340  17.5261819  41.6998309
  81.4043570   8.2747469  37.1619924  80.8242239   8.9332273  36.7797976
  81.1379503   7.4524814  36.7507341  79.8547137   7.6752527  39.3641244
  80.3546915   7.7869062  38.5555563  80.4982744   7.3713580  40.0042053
  73.9129132  15.5831157  52.2509085  73.4296214  16.3831517  52.4572974
  73.9990071  15.5939102  51.2976529  67.1815092  17.4159536  40.1730905
  67.1585780  17.5147224  39.2212788  67.4915729  18.2624687  40.4948071
  69.8402470  19.4735691  44.2877519  70.7945723  19.4419634  44.2207451
  69.6414993  19.0126315  45.1027745  70.4301852  18.0436807  46.8548317
  71.2494741  18.5380886  46.8783154  70.7038660  17.1268776  46.8265884
  80.1868448  10.4347560  36.2176272  79.2994303  10.7197210  35.9996467
  80.6022437  10.2741323  35.3703549  83.5382984  10.4594081  39.9330611
  84.3143374  10.9490533  40.2055228  82.8131119  10.8852135  40.3902481
  85.9755543  11.1721700  40.9904552  86.5700034  10.9317436  40.2797860
  86.0482127  10.4528831  41.6178088  68.1952699  25.0155311  41.3047717
  68.0607167  24.2555712  40.7385715  67.7784761  25.7396211  40.8376506
  79.3311662  20.1992234  30.3124292  80.0347512  20.4042237  30.9281948
  78.6074310  20.7668996  30.5773376  80.1609472  15.9502096  36.4326562
  80.1044673  16.4070647  35.5934195  80.7137814  15.1892780  36.2549405
  83.9714278  11.7391828  37.2576682  83.7151212  11.3388463  38.0884890
  83.3467146  12.4535622  37.1326821  88.2826616  14.4787901  39.7647973
  87.7226174  14.5481090  40.5379535  87.6770119  14.3028885  39.0447469
  71.3521825  25.9124628  41.5166160  71.2354209  26.8570060  41.4144850
  70.5314271  25.6098189  41.9051959  81.2398359  20.6374764  32.3622752
  82.0743963  20.2055962  32.1800227  81.0782702  20.4656777  33.2899647
  80.8944251  17.1406877  33.7279092  80.8393055  16.9751148  32.7867536
  80.2690307  17.8482910  33.8841281  65.6836766  12.3774941  47.5540514
  66.3295630  11.8673895  48.0427739  65.4753917  13.1143623  48.1283939
  78.2090158  19.4455789  53.0532654  79.0781318  19.6196441  52.6919289
  77.7296910  20.2650206  52.9308384  74.2040377   6.6414986  33.3064410
  74.1919047   7.5856826  33.4632681  75.0963799   6.4585131  33.0123871
  74.1329941  25.3183876  41.3932167  73.1825572  25.3185738  41.2796539
  74.4362427  24.5716611  40.8768201  70.0234257   9.5242558  51.6515528
  70.8865719   9.1679363  51.8618853  69.4499668   9.1856453  52.3390932
  89.8682634  31.1544415  42.4577929  90.5061044  31.0351162  41.7541269
  89.7503477  32.1025259  42.5165881  86.6772340  31.1071843  42.3939454
  86.3390852  30.9912908  41.5059989  87.5462109  30.7063008  42.3740460
  82.5359156  32.9607319  38.3836345  81.9724021  32.8697256  37.6152632
  82.4211551  32.1407224  38.8638837  87.1592123  32.2606695  48.3525659
  87.1480764  31.8659493  47.4806163  87.3212763  31.5272767  48.9459431
  88.1158715  36.6278287  33.6950809  87.4646695  37.2132367  33.3084823
  88.9103078  37.1584482  33.7545847  82.0414342  33.7167424  34.0937944
  82.8145218  33.1696411  33.9550820  82.3939741  34.5811673  34.3052405
  83.8799385  35.0443806  47.3004843  83.5889251  35.9489437  47.1851509
  84.5156369  35.0860334  48.0148913  84.8055591  32.4220655  43.8906203
  85.4019164  32.1976677  43.1763166  84.8630563  31.6805400  44.4931651
  84.3780620  29.8760090  31.7256394  84.6306141  29.3541612  30.9639857
  83.4405179  29.7126236  31.8283077  89.4223903  28.8795869  39.5331137
  90.2086992  28.4615292  39.1821554  89.6862607  29.7841961  39.7012785
  89.5933980  34.3168719  34.2319794  88.9579813  34.3903345  34.9440698
  89.2631386  34.9062318  33.5538873  94.8232330  28.8171102  40.4364116
  95.5557502  28.2470319  40.6701945  94.0671686  28.4292702  40.8770621
  84.0976909  31.7788196  33.9280769  83.9813167  31.1033100  34.5961853
  84.2079168  31.2920570  33.1112922  86.4408450  31.2398343  37.6327458
  86.0766657  30.7128964  38.3440379  87.2975565  30.8496812  37.4593943
  92.3457750  22.5292676  44.8958724  92.0141075  23.3988087  44.6719939
  91.7503364  22.2128960  45.5752754  86.0813937  26.2688243  32.6288806
  86.2488339  27.1368479  32.9959278  85.8911106  26.4315525  31.7050096
  88.8389270  34.7305222  44.2954637  88.5389993  35.6330261  44.1870444
  88.4940329  34.4637405  45.1475790  82.2901751  31.1819019  40.3291341
  81.3652248  31.0495233  40.5369033  82.5386164  31.9613238  40.8261284
  92.2386413  27.2487762  41.9752074  91.3303291  27.1803171  41.6810835
  92.1874009  27.7259707  42.8033900  86.0603157  28.7245901  33.6135473
  85.9402783  29.1702951  34.4520954  85.3655746  29.0731218  33.0549011
  86.3127279  28.6677408  49.9186971  85.5360613  29.2271328  49.9089836
  86.9517842  29.1534191  50.4401842  94.1048060  25.4504201  43.7529948
  93.4622440  25.7436734  43.1069743  93.6002988  25.3357121  44.5583145
  91.7588224  29.1967374  34.4415807  92.6706080  29.4294760  34.2663505
  91.2497871  29.7804418  33.8790886  84.5673652  31.4762861  49.4804938
  85.3088336  32.0147905  49.2039762  83.8610637  32.1029150  49.6376490
  90.0428991  33.6192002  48.0777100  90.4512347  33.1774412  47.3331732
  89.3206253  33.0444629  48.3311293  86.3960061  28.5564608  45.4510657
  87.2421256  28.9804022  45.5945306  86.3358699  27.8998233  46.1449220
  90.3657806  34.1793192  41.8329389  89.7366668  34.3438906  41.1305457
  89.9783468  34.5934802  42.6040353  94.2447038  35.1147630  39.1873753
  93.5598076  35.4946531  38.6370786  94.3290887  35.7242957  39.9205700
  89.5459507  26.2168977  47.1091831  89.3020438  26.9711037  46.5726106
  89.8219437  26.5954324  47.9439078  91.4997969  32.7607589  45.7869096
  91.7114865  33.4039349  45.1103477  91.4527718  31.9269906  45.3191026
  89.1024198  25.3725410  42.6905668  88.2408677  25.6706663  42.9822406
  89.1286633  25.5895809  41.7586701  85.9185768  33.9167600  39.0979474
  86.3824113  34.1955303  38.3084096  85.6542566  33.0151045  38.9152565
  82.8109849  33.4639082  42.0359237  83.3811206  33.8926350  41.3976722
  83.4017961  33.1821666  42.7343423  84.8554654  30.0390753  35.9069039
  85.5578697  30.4911796  36.3742965  84.5235282  29.3974571  36.5348932
  83.3035015  28.6302509  50.2820248  82.6733676  29.3118790  50.5155645
  83.1971103  28.5185591  49.3373387  78.5979988  28.2974305  41.2086173
  77.8079042  28.5531834  40.7326283  79.0891235  29.1122643  41.3138213
  92.6143797  35.6379544  43.9591453  93.4361241  35.2359732  43.6774135
  92.6106200  35.5347779  44.9107569  80.5494733  28.6618885  38.1669649
  79.7525896  28.7737579  38.6853145  80.3220325  29.0005537  37.3010540
  86.3800401  35.1863588  46.1152164  86.4444833  35.6483995  46.9510336
  85.6711325  34.5560953  46.2434474 100.7049790  31.9818293  40.3076425
  99.9513499  31.4125691  40.1520429 100.8397332  31.9480957  41.2547060
  86.0948418  36.8531695  35.9831144  85.9594093  37.6983231  36.4115992
  86.6358231  37.0550973  35.2197078  82.5815758  22.9323275  52.6445499
  82.1882704  22.3789474  53.3193144  83.3981898  23.2433854  53.0352017
  79.5477816  34.3707133  36.5559069  80.0602336  35.1650384  36.7064634
  80.2000529  33.6733424  36.4892671  81.3572700  37.4872890  38.6381823
  81.5339329  38.4090854  38.4502806  82.1529534  37.1731309  39.0676202
  85.4983719  24.3481154  50.2365756  86.2393432  24.9488307  50.1570219
  85.7301642  23.6058792  49.6783799  80.6425057  29.5337521  48.5143986
  80.5278572  28.6322779  48.8151085  79.7869575  29.7801218  48.1628802
  87.7216895  37.4755262  50.1131486  87.2780749  36.6891640  49.7952391
  88.3834108  37.6634412  49.4475377  89.8198133  37.7558062  48.1412888
  89.8016608  38.5766943  47.6493157  90.7418053  37.6312137  48.3663029
  86.2771187  35.2702191  48.9836396  86.8099524  34.5090479  48.7535704
  85.7485268  34.9775843  49.7260550  89.4440882  20.3762257  44.5130038
  89.1005151  21.2663899  44.4369148  89.8119845  20.1863915  43.6499623
  77.5126733  32.6995788  37.3318640  78.3501955  33.1092796  37.1152348
  77.6905000  31.7595230  37.3018834  89.4091165  30.3670868  33.0202473
  88.8937788  31.1375473  33.2590860  89.1368473  29.6936004  33.6435534
  86.9938276  25.2120569  38.0787711  86.1379872  24.8227419  37.8993350
  87.4065227  25.2912530  37.2187497  88.5237422  22.7466912  42.4779271
  88.0202218  22.7097047  41.6647076  88.8168029  23.6559655  42.5375928
  84.7680308  22.8305642  41.4845453  85.6333305  22.6348451  41.1251342
  84.8357817  22.6015994  42.4114809  94.3825439  33.1203223  34.9555646
  93.6054882  32.7814382  34.5110808  95.0616920  33.1255846  34.2810611
  89.1977468  28.2397960  34.8462254  88.8927603  28.5544109  35.6972397
  90.1507910  28.3179380  34.8889587  87.6423900  34.3988184  36.4955208
  87.1145261  33.6640943  36.1828445  87.1411402  35.1762860  36.2495176
  92.6216746  32.5937204  41.6122254  91.9640420  33.2836466  41.7002383
  93.4257145  32.9833636  41.9556241  82.3742627  25.0607850  38.8561820
  82.9486379  24.8383031  38.1235012  82.9613610  25.1296544  39.6090421
  91.4322205  30.9481577  39.6626196  91.9454086  31.5811569  40.1647906
  92.0823428  30.3482772  39.2969556  82.7012214  27.0912311  32.8757705
  81.8649527  27.4286997  33.1966980  82.5616984  26.9561291  31.9384842
  84.6765295  21.9349099  37.5836889  84.0229707  21.6198116  36.9593504
  84.6345769  21.3124839  38.3096712  85.7876500  32.2168394  29.4990181
  84.8803562  31.9857647  29.6981330  86.2847532  31.4206013  29.6864163
  88.6944579  40.9265901  32.4186867  88.0206278  41.2297598  33.0271825
  89.0810401  41.7294981  32.0692324  87.9103035  28.4231032  41.9084537
  86.9925597  28.6445979  41.7506225  88.3263179  28.4977343  41.0496244
  88.6938083  29.8222448  37.0387217  89.4409902  30.3343845  36.7294339
  88.9629673  29.5006501  37.8991610  86.9664733  32.3180989  34.0214171
  86.0575953  32.0340022  34.1186641  86.9959817  32.7380067  33.1617478
  92.1984001  35.9287578  37.7905339  91.7446328  35.0878488  37.8470529
  91.5677967  36.5648977  38.1280119  91.1416920  26.8579564  39.0206006
  90.4039677  26.3456950  39.3516249  91.3943694  26.4179946  38.2089283
  90.6416940  37.7664075  38.7255157  90.9339914  38.3269132  38.0067522
  91.1515561  38.0592636  39.4808316  91.2428548  19.6355816  39.6147775
  91.5487424  18.7753180  39.3273690  91.9681152  20.2273436  39.4146769
  77.5352904  30.0386503  38.0029373  77.3377304  29.4455864  37.2780440
  76.9799568  29.7338713  38.7205312  85.5149627  29.9309609  40.1223966
  85.5698237  28.9783446  40.0466443  84.7040829  30.0869048  40.6065265
  86.6640821  33.8589732  31.3602250  86.2260251  33.1425591  30.9007887
  87.4051262  34.0865847  30.7987341  83.4541987  28.5486669  37.8814345
  82.6409853  28.8480840  38.2879537  83.9500981  28.1542358  38.5988828
  85.6050565  38.5444426  39.8148610  85.5626744  38.7705272  38.8857142
  86.5213264  38.3107801  39.9634411  89.0516199  29.0128494  46.7129239
  89.4065587  29.2399967  47.5723705  89.6988330  29.3446870  46.0906495
  94.7813936  32.1346929  37.4178568  94.6431834  32.3248525  36.4899757
  94.4250155  32.8966312  37.8746619  82.9456062  26.1205025  43.4975580
  83.5855441  25.9793784  42.7998544  82.1133593  25.8339538  43.1214182
  94.8083316  34.2023456  42.4289840  95.2419822  34.1098746  43.2772894
  95.5214896  34.1780957  41.7909856  83.7216366  35.4207455  39.6110573
  84.5156964  34.9257775  39.4093148  83.0108058  34.8925318  39.2478278
  88.5411210  37.8025551  43.9622940  88.5948233  38.3716487  44.7300656
  87.6725992  37.9727436  43.5976977  80.0299129  29.5650537  35.6870325
  79.0996718  29.5034992  35.9040288  80.1256601  29.0426490  34.8906967
  79.9484678  26.0905350  38.2748567  80.2091496  27.0050683  38.1657728
  80.7701851  25.6229792  38.4245180  81.4209604  27.5043107  45.4447392
  82.0932657  27.2960469  44.7960041  80.5939390  27.3065193  45.0052624
  95.6698865  34.2447157  44.9622725  95.8634755  35.1492968  45.2082000
  95.5699483  33.7854576  45.7961310  87.3235176  24.1305048  47.4613052
  86.6763091  24.8294997  47.3677529  88.0936191  24.5641192  47.8289301
  90.7313974  34.3953900  50.5363606  90.5799480  34.1664452  49.6193689
  90.7218653  35.3524501  50.5494951  87.4999310  31.9685813  45.5209872
  88.4291370  32.1196972  45.3478840  87.0790340  32.0569833  44.6658519
  86.2987642  35.9936477  43.2908410  86.1598728  35.6255261  44.1634348
  85.5102238  36.5084116  43.1192368  86.8935794  41.0945573  34.6333946
  87.0687550  40.6233617  35.4479569  86.2068582  41.7211340  34.8615207
  87.8492857  35.3718080  40.6797248  87.5142690  35.3318850  41.5754898
  87.3496803  34.7062796  40.2067658  81.8237101  30.7785710  46.2049829
  81.6856899  30.0465949  46.8061368  82.7342025  30.6894610  45.9234017
  90.7852049  32.7174114  30.9534307  90.1681219  31.9920942  30.8567360
  90.3168537  33.4783474  30.6101382  84.4519402  30.4905669  45.6933508
  85.1619020  29.8498861  45.6520127  84.4088710  30.7418564  46.6159689
  92.4406180  37.4273022  48.6140088  92.3818727  36.7432243  47.9470671
  92.8425699  38.1692012  48.1620714  83.1648336  27.4770887  47.5129148
  82.6285693  27.0261625  48.1650744  82.5765044  27.6116796  46.7699612
  82.5750595  26.9359538  30.0755612  81.6980061  26.8148339  29.7117858
  83.0508348  26.1445617  29.8234500  92.4423588  35.3912606  46.8454067
  91.5550366  35.0538528  46.9680466  93.0122139  34.6595638  47.0822833
  78.8987457  26.6126895  44.5982142  78.8145646  26.0052564  43.8632552
  78.0770163  27.1035913  44.5991639  85.9724741  40.0514059  43.8115311
  85.8994913  40.8569030  44.3234615  85.5302134  40.2506025  42.9863332
  85.7614521  39.2885829  37.3218132  84.9782043  39.8307509  37.4156357
  86.4607266  39.8059808  37.7212373  89.0711171  25.0980458  39.9652337
  89.5679870  24.3450421  39.6453408  88.2998152  25.1344775  39.3995547
  96.9240928  30.8020824  41.6070629  96.9130804  31.6845539  41.2364562
  96.0558308  30.4492375  41.4125166  88.4323425  39.9500893  45.9673469
  89.1451397  40.5848358  45.8949371  87.9413453  40.0464759  45.1513471
  90.1540951  33.8552145  37.5390761  89.2197230  33.9753608  37.3695465
  90.3317620  32.9524612  37.2750771  85.6546140  27.2397841  39.6924022
  85.2843927  26.6868882  40.3804928  86.1505232  26.6355975  39.1399022
  93.5413503  29.6969465  38.0740795  94.0073955  30.5297456  38.0001098
  93.9921003  29.2314446  38.7786053  83.4835338  37.6995336  46.7879040
  84.1844798  38.3331819  46.9408434  83.0130453  38.0410068  46.0274679
  91.6089734  36.0413286  35.0726947  91.8849578  35.9269881  35.9820821
  90.7394233  35.6430771  35.0339120  91.5130166  22.0650052  42.1131696
  90.5993245  22.2954279  42.2813903  91.9423267  22.1488496  42.9645729
  91.2836624  30.2539944  44.6131590  90.6308074  30.5015851  43.9584043
  91.6617004  29.4404082  44.2794068  88.2443798  40.2899637  38.7159761
  88.4266192  39.4721293  39.1787513  89.0676784  40.5067329  38.2784651
  88.5785963  39.2167822  35.9774809  89.1073730  38.7060277  35.3644971
  88.8414183  38.9010352  36.8420342  87.3324197  30.9959755  51.0997627
  86.6564834  30.8953884  51.7700003  88.1551831  30.8398968  51.5633625
  86.0746980  42.3026682  45.3355243  86.6265288  42.4658304  46.1004329
  86.4153173  42.8931120  44.6635268  81.0511473  24.6501832  45.9377128
  81.1152800  25.5116663  45.5254526  80.9878593  24.0375834  45.2049487
  80.5263746  26.7224965  49.5850162  81.1535785  26.3402042  50.1987687
  79.6691665  26.5039166  49.9505855  90.9257854  37.1287940  51.1903898
  91.4697758  37.7417898  50.6958853  90.3444699  37.6867518  51.7070911
  77.3029288  28.5301394  35.5168517  77.5982730  27.6212072  35.4635571
  76.4017324  28.5089133  35.1949520  89.2115367  40.2508658  42.3218926
  89.0866507  39.4498398  41.8129871  89.8694458  40.7454851  41.8332896
  80.8323535  26.6057390  41.4996066  80.1110121  27.2193358  41.3603539
  81.6216791  27.1415155  41.4212712  91.2750276  38.0517678  43.9498476
  90.3280611  37.9323029  43.8776802  91.6233049  37.1640176  44.0324737
  83.6349849  23.9411817  47.7736718  84.1584251  24.1874113  48.5363027
  83.4162182  24.7731852  47.3539855  79.0317130  26.2115491  35.6407842
  78.7029836  25.3312870  35.4582948  79.3856501  26.1563160  36.5284232
  88.2796709  37.8470394  40.1502828  88.1321671  36.9187101  40.3310398
  89.1050202  37.8690485  39.6659903  82.1458953  26.4988461  36.0083320
  82.4855026  27.0274382  35.2861928  82.5931074  26.8368867  36.7841887
  91.8830831  38.6698953  41.2367701  92.8077378  38.4641814  41.0992152
  91.7146134  38.4215354  42.1457042  84.8402394  24.8825512  45.4586388
  84.4999214  24.0833325  45.8607068  84.1341400  25.1827223  44.8863221
  85.4918866  21.9674824  43.9113711  86.3144935  21.4935302  43.7892601
  85.7356929  22.7465308  44.4112397  84.1327100  24.9963083  34.2076613
  84.8535463  25.3744335  33.7040330  83.5092404  25.7151959  34.3111591
  88.2758223  25.7008232  35.1434945  88.4921838  26.5832870  34.8423773
  87.7952290  25.3094445  34.4140587  83.0157445  28.6593945  41.7205690
  82.8702025  28.9734248  42.6129971  82.5382648  29.2778845  41.1676588
  84.8753828  25.6496493  41.7686579  84.8615396  24.7537586  41.4318877
  85.5926256  25.6567157  42.4024865  86.7279958  26.0833833  43.8139707
  86.4697736  27.0050904  43.8124037  86.1964999  25.6864268  44.5040171
  91.6726147  39.1884620  36.5929792  91.8463025  38.6231043  35.8403645
  92.1655038  39.9885515  36.4109282  84.2790723  24.5310873  37.0374149
  84.4006635  23.6027519  37.2365037  83.9892766  24.5449559  36.1252465
  87.1481914  22.2165784  40.1740869  87.1703611  22.2805117  39.2192849
  87.5649973  21.3770292  40.3681375  97.5265538  31.9521043  38.2120092
  97.9696684  31.2028368  37.8139215  96.6492048  31.9431179  37.8293824
  92.6601319  38.5051385  33.6926690  93.3552224  39.1258077  33.9114005
  93.0024470  37.6546736  33.9679068  94.5592743  35.9551090  35.2214021
  95.0844067  36.2938363  34.4963341  94.4715095  35.0198105  35.0377156
  86.2212791  39.8685164  47.3503898  86.5299918  39.6234311  48.2226597
  87.0188273  40.0731802  46.8622768  86.2433403  42.0223073  39.5809274
  85.8038394  41.5299452  40.2742131  86.9941520  41.4796041  39.3401350
  83.6907276  37.5661082  41.6531576  83.0687285  36.9031787  41.3533804
  84.3612142  37.5922214  40.9705224  83.7631803  26.0442870  51.2464082
  83.8119958  26.9204993  50.8641852  84.3054317  25.5020264  50.6735725
  94.2486649  36.5883994  50.5265219  93.4582192  36.5708133  49.9869719
  94.0120003  37.1272287  51.2814256  94.3684524  33.4376460  47.8397948
  94.4182529  33.2726468  48.7813470  94.2598447  32.5703719  47.4495828
  83.2520782  36.1165006  35.1290037  83.4008903  36.8000470  34.4756709
  84.0587226  36.0970096  35.6439492  91.6588286  29.4207388  49.1557254
  92.5598149  29.2813853  48.8641252  91.7336261  29.5861843  50.0955432
  85.9931091  26.7974243  48.0010441  85.1234401  27.0907809  47.7293029
  86.2290572  27.3814688  48.7217704  95.8702721  35.8573402  48.0839969
  95.5787529  36.2203382  48.9203430  95.2574852  35.1440410  47.9053301
  97.0698403  33.4226281  40.6042539  97.9045294  33.8616085  40.7680100
  97.2057532  32.9464935  39.7850785  94.1189909  30.9806016  46.5520027
  94.5944030  31.1733663  45.7438879  93.1955474  31.0365202  46.3063411
  81.0073415  32.1430183  36.1351105  80.7619457  31.2392513  36.3331316
  81.1769330  32.1447334  35.1930583  88.6970125  23.0153860  45.5175861
  89.2152069  23.7514887  45.1922350  88.3425258  23.3217853  46.3522620
  80.2769063  27.8758541  33.6337267  79.5838308  27.9502896  32.9777303
  80.0320815  27.1118885  34.1558784  88.9482719  19.4354142  41.0376758
  89.2284473  18.7677331  41.6637184  89.7333326  19.6283238  40.5251422
  86.7516188  38.6113136  32.6001784  86.1790155  39.2303323  32.1472256
  87.3248982  39.1612498  33.1341706  92.8191578  27.8571776  44.7848333
  93.7709001  27.9569874  44.8060557  92.6495028  27.0650045  45.2946417
  90.8405957  24.9427360  44.9707734  90.2455889  25.2232372  44.2754222
  90.5555654  25.4321260  45.7424475  89.9713448  38.8950286  33.7310366
  90.9044121  38.8295848  33.9343242  89.8836661  39.7306553  33.2724899
  92.6001464  38.2116157  30.6914314  92.5215096  37.8776020  31.5850072
  93.4211131  38.7037925  30.6905786  95.2979656  31.0777896  43.8990632
  95.2655976  30.1393897  44.0850316  95.9080279  31.1561933  43.1656457
  87.1362986  29.9473949  29.9417836  88.0822091  29.8180157  30.0106255
  86.7577231  29.2088611  30.4187265  95.4474144  27.8688939  43.9448916
  94.9313193  27.0847396  43.7578844  96.3314093  27.5407656  44.1095435
  93.1084871  21.6129955  39.9044728  92.9109692  21.3045043  40.7888060
  93.7184577  22.3391594  40.0342658 101.1156205  32.1393903  43.0396669
 101.8459594  31.8779191  43.6004373 100.5063151  31.4022625  43.0798737
  99.1971503  30.2801765  43.6371120  98.4704666  30.1457730  43.0287612
  98.7818789  30.5878594  44.4427838  87.0201679  33.9991695  51.4018493
  87.9404688  34.1770294  51.5958540  86.9851262  33.0547740  51.2498193
  85.3205904  27.8723925  29.8772722  84.4137359  27.5757038  29.9535435
  85.5981885  27.5753743  29.0107008  86.9367969  22.4160815  36.0316963
  86.1268698  22.0707900  36.4072209  87.6252386  22.1068359  36.6204575
  88.8658518  21.4938862  37.6541260  89.4189556  21.9134315  38.3131283
  89.1028604  20.5674610  37.6964216  84.8891617  27.4825936  53.4344024
  84.7888344  28.4320293  53.3656115  84.6713159  27.1544174  52.5620094
  84.0904688  24.7310861  30.0184701  84.9523852  25.0565759  30.2780518
  84.2755032  23.9442357  29.5057767  92.2437325  23.6039387  37.1619924
  91.6635994  24.2624191  36.7797976  91.9773257  22.7816732  36.7507341
  90.6940891  23.0044445  39.3641244  91.1940669  23.1160979  38.5555563
  91.3376499  22.7005498  40.0042053  84.7522887  30.9123074  52.2509085
  84.2689969  31.7123435  52.4572974  84.8383826  30.9231019  51.2976529
  81.2695607  33.3728725  46.8548317  82.0888495  33.8672804  46.8783154
  81.5432414  32.4560693  46.8265884  91.0262203  25.7639477  36.2176272
  90.1388058  26.0489128  35.9996467  91.4416192  25.6033241  35.3703549
  94.3776739  25.7885998  39.9330611  95.1537129  26.2782451  40.2055228
  93.6524873  26.2144053  40.3902481  96.8149297  26.5013618  40.9904552
  97.4093788  26.2609354  40.2797860  96.8875881  25.7820748  41.6178088
  90.1705416  35.5284152  30.3124292  90.8741266  35.7334155  30.9281948
  89.4468065  36.0960914  30.5773376  91.0003226  31.2794013  36.4326562
  90.9438428  31.7362565  35.5934195  91.5531569  30.5184698  36.2549405
  94.8108032  27.0683745  37.2576682  94.5544967  26.6680381  38.0884890
  94.1860900  27.7827539  37.1326821  99.1220370  29.8079819  39.7647973
  98.5619928  29.8773008  40.5379535  98.5163874  29.6320803  39.0447469
  92.0792114  35.9666681  32.3622752  92.9137718  35.5347880  32.1800227
  91.9176456  35.7948695  33.2899647  91.7338006  32.4698795  33.7279092
  91.6786810  32.3043066  32.7867536  91.1084061  33.1774828  33.8841281
  76.5230521  27.7066859  47.5540514  77.1689384  27.1965813  48.0427739
  76.3147672  28.4435541  48.1283939  89.0483913  34.7747706  53.0532654
  89.9175073  34.9488359  52.6919289  88.5690664  35.5942123  52.9308384
  85.0434131  21.9706904  33.3064410  85.0312801  22.9148744  33.4632681
  85.9357553  21.7877049  33.0123871  84.9723695  40.6475794  41.3932167
  84.0219326  40.6477656  41.2796539  85.2756181  39.9008529  40.8768201
  88.8586251  18.5649680  37.5610347  88.0918646  18.0108167  37.7067029
  89.2696956  18.6371549  38.4224498  80.8628012  24.8534476  51.6515528
  81.7259473  24.4971281  51.8618853  80.2893422  24.5148371  52.3390932
 100.7076389  46.4836332  42.4577929 101.3454799  46.3643080  41.7541269
 100.5897232  47.4317176  42.5165881  97.5166095  46.4363761  42.3939454
  97.1784606  46.3204825  41.5059989  98.3855863  46.0354926  42.3740460
  93.3752911  48.2899237  38.3836345  92.8117776  48.1989174  37.6152632
  93.2605306  47.4699141  38.8638837  97.9985878  47.5898612  48.3525659
  97.9874519  47.1951411  47.4806163  98.1606517  46.8564685  48.9459431
  90.9217343  49.7850429  41.2220565  91.7138635  49.4441253  40.8066864
  91.1613993  49.8945404  42.1422718  98.9552469  51.9570205  33.6950809
  98.3040449  52.5424285  33.3084823  99.7496832  52.4876400  33.7545847
  92.8808097  49.0459342  34.0937944  93.6538973  48.4988329  33.9550820
  93.2333495  49.9103591  34.3052405  94.7193139  50.3735724  47.3004843
  94.4283005  51.2781355  47.1851509  95.3550123  50.4152252  48.0148913
  95.6449346  47.7512573  43.8906203  96.2412918  47.5268595  43.1763166
  95.7024317  47.0097318  44.4931651  95.2174374  45.2052008  31.7256394
  95.4699895  44.6833529  30.9639857  94.2798933  45.0418153  31.8283077
 100.2617657  44.2087786  39.5331137 101.0480746  43.7907209  39.1821554
 100.5256361  45.1133878  39.7012785 100.4327735  49.6460637  34.2319794
  99.7973567  49.7195263  34.9440698 100.1025141  50.2354235  33.5538873
 105.6626084  44.1463019  40.4364116 106.3951256  43.5762236  40.6701945
 104.9065440  43.7584620  40.8770621  94.9370663  47.1080114  33.9280769
  94.8206921  46.4325017  34.5961853  95.0472923  46.6212488  33.1112922
  97.2802204  46.5690261  37.6327458  96.9160411  46.0420882  38.3440379
  98.1369320  46.1788730  37.4593943 103.1851505  37.8584594  44.8958724
 102.8534829  38.7280005  44.6719939 102.5897118  37.5420878  45.5752754
  96.9207691  41.5980161  32.6288806  97.0882093  42.4660397  32.9959278
  96.7304860  41.7607442  31.7050096  99.6783024  50.0597140  44.2954637
  99.3783747  50.9622178  44.1870444  99.3334084  49.7929323  45.1475790
  93.1295506  46.5110936  40.3291341  92.2046002  46.3787151  40.5369033
  93.3779919  47.2905156  40.8261284 103.0780168  42.5779680  41.9752074
 102.1697045  42.5095088  41.6810835 103.0267764  43.0551625  42.8033900
  96.8996912  44.0537818  33.6135473  96.7796537  44.4994869  34.4520954
  96.2049500  44.4023136  33.0549011  90.4904317  46.1544210  41.1635130
  90.6196698  46.4078689  42.0774542  89.8101768  46.7471918  40.8439785
  94.6603804  56.8241460  37.2625605  94.5827834  57.7749285  37.3414085
  94.0565448  56.4787332  37.9200531  97.1521034  43.9969325  49.9186971
  96.3754368  44.5563246  49.9089836  97.7911597  44.4826108  50.4401842
 104.9441814  40.7796118  43.7529948 104.3016195  41.0728651  43.1069743
 104.4396743  40.6649039  44.5583145 102.5981978  44.5259291  34.4415807
 103.5099834  44.7586678  34.2663505 102.0891625  45.1096336  33.8790886
  95.4067406  46.8054779  49.4804938  96.1482090  47.3439823  49.2039762
  94.7004392  47.4321067  49.6376490 100.8822746  48.9483919  48.0777100
 101.2906102  48.5066330  47.3331732 100.1600007  48.3736547  48.3311293
  97.2353816  43.8856526  45.4510657  98.0815011  44.3095940  45.5945306
  97.1752453  43.2290150  46.1449220 101.2051560  49.5085110  41.8329389
 100.5760423  49.6730824  41.1305457 100.8177222  49.9226719  42.6040353
 105.0840792  50.4439548  39.1873753 104.3991830  50.8238449  38.6370786
 105.1684642  51.0534874  39.9205700 100.3853261  41.5460894  47.1091831
 100.1414193  42.3002955  46.5726106 100.6613192  41.9246242  47.9439078
 102.3391724  48.0899507  45.7869096 102.5508619  48.7331267  45.1103477
 102.2921472  47.2561823  45.3191026  99.9417953  40.7017327  42.6905668
  99.0802432  40.9998581  42.9822406  99.9680387  40.9187726  41.7586701
  96.7579522  49.2459518  39.0979474  97.2217868  49.5247221  38.3084096
  96.4936320  48.3442962  38.9152565  93.6503603  48.7930999  42.0359237
  94.2204960  49.2218268  41.3976722  94.2411715  48.5113584  42.7343423
  95.6948408  45.3682670  35.9069039  96.3972452  45.8203714  36.3742965
  95.3629037  44.7266489  36.5348932  94.1428770  43.9594427  50.2820248
  93.5127430  44.6410708  50.5155645  94.0364858  43.8477509  49.3373387
  89.4373742  43.6266223  41.2086173  88.6472796  43.8823751  40.7326283
  89.9284990  44.4414561  41.3138213 103.4537552  50.9671462  43.9591453
 104.2754996  50.5651649  43.6774135 103.4499955  50.8639696  44.9107569
  91.3888488  43.9910802  38.1669649  90.5919651  44.1029496  38.6853145
  91.1614080  44.3297454  37.3010540  97.2194155  50.5155505  46.1152164
  97.2838588  50.9775913  46.9510336  96.5105079  49.8852870  46.2434474
  87.7211445  43.8796713  43.6401163  87.9719484  44.7643723  43.9058739
  88.2570994  43.7001315  42.8676255  96.9342173  52.1823613  35.9831144
  96.7987848  53.0275149  36.4115992  97.4751985  52.3842891  35.2197078
  93.4209513  38.2615193  52.6445499  93.0276458  37.7081391  53.3193144
  94.2375653  38.5725771  53.0352017  90.3871570  49.6999051  36.5559069
  90.8996091  50.4942301  36.7064634  91.0394283  49.0025341  36.4892671
  92.1966455  52.8164807  38.6381823  92.3733083  53.7382772  38.4502806
  92.9923289  52.5023226  39.0676202  96.3377474  39.6773072  50.2365756
  97.0787187  40.2780225  50.1570219  96.5695396  38.9350710  49.6783799
  91.4818812  44.8629439  48.5143986  91.3672327  43.9614696  48.8151085
  90.6263329  45.1093136  48.1628802  98.5610649  52.8047179  50.1131486
  98.1174503  52.0183558  49.7952391  99.2227863  52.9926330  49.4475377
  93.3197770  54.3342981  44.6392165  93.8705196  54.2060044  43.8669159
  92.4809246  54.6337870  44.2887058 100.6591887  53.0849979  48.1412888
 100.6410363  53.9058860  47.6493157 101.5811807  52.9604055  48.3663029
  97.1164941  50.5994109  48.9836396  97.6493278  49.8382397  48.7535704
  96.5879023  50.3067761  49.7260550 100.2834636  35.7054175  44.5130038
  99.9398906  36.5955816  44.4369148 100.6513599  35.5155832  43.6499623
  88.3520487  48.0287705  37.3318640  89.1895709  48.4384714  37.1152348
  88.5298755  47.0887147  37.3018834 100.2484919  45.6962786  33.0202473
  99.7331543  46.4667391  33.2590860  99.9762228  45.0227922  33.6435534
  97.8332030  40.5412487  38.0787711  96.9773627  40.1519337  37.8993350
  98.2458982  40.6204447  37.2187497  99.3631177  38.0758830  42.4779271
  98.8595972  38.0388965  41.6647076  99.6561784  38.9851573  42.5375928
  95.6074063  38.1597560  41.4845453  96.4727059  37.9640368  41.1251342
  95.6751572  37.9307911  42.4114809 105.2219193  48.4495141  34.9555646
 104.4448636  48.1106300  34.5110808 105.9010674  48.4547764  34.2810611
 100.0371222  43.5689878  34.8462254  99.7321358  43.8836027  35.6972397
 100.9901664  43.6471298  34.8889587  98.4817654  49.7280101  36.4955208
  97.9539016  48.9932861  36.1828445  97.9805157  50.5054778  36.2495176
 103.4610500  47.9229122  41.6122254 102.8034175  48.6128383  41.7002383
 104.2650899  48.3125554  41.9556241  93.2136382  40.3899768  38.8561820
  93.7880134  40.1674949  38.1235012  93.8007364  40.4588462  39.6090421
 102.2715959  46.2773494  39.6626196 102.7847841  46.9103486  40.1647906
 102.9217183  45.6774690  39.2969556  93.5405969  42.4204229  32.8757705
  92.7043281  42.7578915  33.1966980  93.4010739  42.2853208  31.9384842
  95.5159050  37.2641016  37.5836889  94.8623462  36.9490034  36.9593504
  95.4739524  36.6416757  38.3096712  96.6270254  47.5460312  29.4990181
  95.7197316  47.3149565  29.6981330  97.1241286  46.7497931  29.6864163
  99.5338333  56.2557819  32.4186867  98.8600032  56.5589516  33.0271825
  99.9204155  57.0586899  32.0692324  98.7496790  43.7522950  41.9084537
  97.8319351  43.9737897  41.7506225  99.1656934  43.8269261  41.0496244
  99.5331838  45.1514366  37.0387217 100.2803657  45.6635763  36.7294339
  99.8023427  44.8298418  37.8991610  97.8058488  47.6472906  34.0214171
  96.8969707  47.3631939  34.1186641  97.8353572  48.0671985  33.1617478
 103.0377755  51.2579496  37.7905339 102.5840082  50.4170406  37.8470529
 102.4071722  51.8940894  38.1280119 101.9810675  42.1871482  39.0206006
 101.2433432  41.6748868  39.3516249 102.2337448  41.7471864  38.2089283
 101.4810694  53.0955993  38.7255157 101.7733669  53.6561050  38.0067522
 101.9909315  53.3884554  39.4808316 102.0822302  34.9647734  39.6147775
 102.3881179  34.1045097  39.3273690 102.8074907  35.5565354  39.4146769
  88.3746658  45.3678421  38.0029373  88.1771058  44.7747781  37.2780440
  87.8193322  45.0630631  38.7205312  96.3543382  45.2601527  40.1223966
  96.4091992  44.3075363  40.0466443  95.5434584  45.4160966  40.6065265
  97.5034576  49.1881650  31.3602250  97.0654006  48.4717509  30.9007887
  98.2445016  49.4157765  30.7987341  94.2935742  43.8778587  37.8814345
  93.4803607  44.1772757  38.2879537  94.7894736  43.4834276  38.5988828
  96.4444320  53.8736344  39.8148610  96.4020498  54.0997190  38.8857142
  97.3607019  53.6399718  39.9634411  99.8909953  44.3420411  46.7129239
 100.2459341  44.5691884  47.5723705 100.5382085  44.6738788  46.0906495
 105.6207690  47.4638847  37.4178568 105.4825589  47.6540443  36.4899757
 105.2643909  48.2258230  37.8746619  93.7849817  41.4496942  43.4975580
  94.4249196  41.3085701  42.7998544  92.9527347  41.1631456  43.1214182
 105.6477070  49.5315374  42.4289840 106.0813577  49.4390663  43.2772894
 106.3608651  49.5072875  41.7909856  94.5610120  50.7499373  39.6110573
  95.3550719  50.2549693  39.4093148  93.8501813  50.2217236  39.2478278
  99.3804965  53.1317468  43.9622940  99.4341987  53.7008405  44.7300656
  98.5119746  53.3019353  43.5976977  90.8692884  44.8942454  35.6870325
  89.9390472  44.8326910  35.9040288  90.9650356  44.3718407  34.8906967
  90.7878433  41.4197267  38.2748567  91.0485250  42.3342601  38.1657728
  91.6095605  40.9521710  38.4245180  92.2603358  42.8335024  45.4447392
  92.9326412  42.6252387  44.7960041  91.4333145  42.6357110  45.0052624
 106.5092620  49.5739075  44.9622725 106.7028510  50.4784885  45.2082000
 106.4093238  49.1146494  45.7961310  98.1628930  39.4596965  47.4613052
  97.5156845  40.1586915  47.3677529  98.9329946  39.8933109  47.8289301
 101.5707728  49.7245818  50.5363606 101.4193235  49.4956369  49.6193689
 101.5612408  50.6816419  50.5494951  98.3393065  47.2977730  45.5209872
  99.2685125  47.4488890  45.3478840  97.9184095  47.3861751  44.6658519
  97.1381396  51.3228395  43.2908410  96.9992482  50.9547179  44.1634348
  96.3495993  51.8376034  43.1192368  97.7329548  56.4237491  34.6333946
  97.9081304  55.9525534  35.4479569  97.0462336  57.0503257  34.8615207
  98.6886612  50.7009997  40.6797248  98.3536444  50.6610767  41.5754898
  98.1890557  50.0354713  40.2067658  92.6630856  46.1077627  46.2049829
  92.5250653  45.3757866  46.8061368  93.5735779  46.0186528  45.9234017
 101.6245803  48.0466032  30.9534307 101.0074974  47.3212860  30.8567360
 101.1562292  48.8075392  30.6101382  95.2913156  45.8197587  45.6933508
  96.0012775  45.1790779  45.6520127  95.2482464  46.0710482  46.6159689
 103.2799935  52.7564940  48.6140088 103.2212481  52.0724160  47.9470671
 103.6819453  53.4983930  48.1620714  94.0042090  42.8062805  47.5129148
  93.4679447  42.3553543  48.1650744  93.4158799  42.9408713  46.7699612
  92.2990634  59.5726854  41.4073807  92.5387232  60.2045378  42.0852825
  91.4559830  59.2214894  41.6939166  93.4144349  42.2651456  30.0755612
  92.5373815  42.1440257  29.7117858  93.8902102  41.4737534  29.8234500
 103.2817342  50.7204524  46.8454067 102.3944121  50.3830446  46.9680466
 103.8515893  49.9887555  47.0822833  89.7381211  41.9418812  44.5982142
  89.6539400  41.3344482  43.8632552  88.9163918  42.4327831  44.5991639
  96.8118496  55.3805976  43.8115311  96.7388667  56.1860948  44.3234615
  96.3695889  55.5797942  42.9863332  96.6008275  54.6177746  37.3218132
  95.8175797  55.1599427  37.4156357  97.3001020  55.1351726  37.7212373
  99.9104925  40.4272376  39.9652337 100.4073625  39.6742338  39.6453408
  99.1391907  40.4636693  39.3995547 107.7634683  46.1312741  41.6070629
 107.7524559  47.0137457  41.2364562 106.8952062  45.7784292  41.4125166
  99.2717179  55.2792810  45.9673469  99.9845151  55.9140275  45.8949371
  98.7807208  55.3756676  45.1513471 100.9934706  49.1844063  37.5390761
 100.0590985  49.3045526  37.3695465 101.1711374  48.2816530  37.2750771
  96.4939894  42.5689759  39.6924022  96.1237682  42.0160799  40.3804928
  96.9898986  41.9647892  39.1399022 104.3807257  45.0261382  38.0740795
 104.8467710  45.8589374  38.0001098 104.8314758  44.5606364  38.7786053
  94.3229093  53.0287254  46.7879040  95.0238552  53.6623737  46.9408434
  93.8524208  53.3701985  46.0274679 102.4483488  51.3705204  35.0726947
 102.7243332  51.2561798  35.9820821 101.5787987  50.9722689  35.0339120
 102.3523920  37.3941969  42.1131696 101.4387000  37.6246196  42.2813903
 102.7817022  37.4780413  42.9645729 102.1230379  45.5831861  44.6131590
 101.4701829  45.8307769  43.9584043 102.5010758  44.7696000  44.2794068
  99.0837552  55.6191555  38.7159761  99.2659947  54.8013210  39.1787513
  99.9070538  55.8359247  38.2784651  99.4179718  54.5459740  35.9774809
  99.9467484  54.0352194  35.3644971  99.6807938  54.2302270  36.8420342
  98.1717952  46.3251672  51.0997627  97.4958589  46.2245802  51.7700003
  98.9945585  46.1690886  51.5633625  89.9196811  52.5623609  43.7210143
  90.5050247  51.8167297  43.8538047  89.7221649  52.8727566  44.6046807
  92.7735466  55.5974856  38.7372585  92.1045841  56.0820984  38.2536625
  92.6348336  55.8444077  39.6515964  84.5114465  45.1329209  42.4414586
  84.5498565  44.5992800  43.2351704  84.0054758  44.6064415  41.8225563
  96.9140734  57.6318600  45.3355243  97.4659043  57.7950221  46.1004329
  97.2546928  58.2223038  44.6635268  91.8905228  39.9793750  45.9377128
  91.9546554  40.8408581  45.5254526  91.8272348  39.3667751  45.2049487
  91.3657500  42.0516882  49.5850162  91.9929539  41.6693960  50.1987687
  90.5085419  41.8331084  49.9505855 101.7651609  52.4579857  51.1903898
 102.3091513  53.0709816  50.6958853 101.1838454  53.0159436  51.7070911
  88.1423043  43.8593311  35.5168517  88.4376484  42.9503990  35.4635571
  87.2411079  43.8381051  35.1949520 100.0509122  55.5800575  42.3218926
  99.9260261  54.7790315  41.8129871 100.7088213  56.0746769  41.8332896
  91.6717290  41.9349308  41.4996066  90.9503876  42.5485276  41.3603539
  92.4610546  42.4707073  41.4212712 102.1144030  53.3809595  43.9498476
 101.1674366  53.2614947  43.8776802 102.4626803  52.4932093  44.0324737
  94.4743604  39.2703734  47.7736718  94.9978005  39.5166031  48.5363027
  94.2555937  40.1023769  47.3539855  89.8710885  41.5407409  35.6407842
  89.5423591  40.6604788  35.4582948  90.2250255  41.4855078  36.5284232
  99.1190463  53.1762312  40.1502828  98.9715426  52.2479019  40.3310398
  99.9443957  53.1982402  39.6659903  92.9852708  41.8280379  36.0083320
  93.3248780  42.3566300  35.2861928  93.4324828  42.1660785  36.7841887
 102.7224585  53.9990870  41.2367701 103.6471133  53.7933732  41.0992152
 102.5539889  53.7507272  42.1457042  95.6796149  40.2117429  45.4586388
  95.3392969  39.4125243  45.8607068  94.9735155  40.5119140  44.8863221
  96.3312620  37.2966742  43.9113711  97.1538690  36.8227220  43.7892601
  96.5750684  38.0757226  44.4112397  94.9720855  40.3255000  34.2076613
  95.6929217  40.7036253  33.7040330  94.3486159  41.0443877  34.3111591
  99.1151978  41.0300149  35.1434945  99.3315592  41.9124787  34.8423773
  98.6346045  40.6386363  34.4140587  93.8551199  43.9885863  41.7205690
  93.7095780  44.3026166  42.6129971  93.3776403  44.6070763  41.1676588
  95.7147582  40.9788411  41.7686579  95.7009151  40.0829504  41.4318877
  96.4320010  40.9859074  42.4024865  97.5673713  41.4125751  43.8139707
  97.3091491  42.3342821  43.8124037  97.0358753  41.0156185  44.5040171
 102.5119901  54.5176538  36.5929792 102.6856779  53.9522960  35.8403645
 103.0048793  55.3177433  36.4109282  88.3296861  46.5291207  44.6593351
  87.7850329  47.3051015  44.7913625  89.2076211  46.8762011  44.5012472
  95.1184478  39.8602791  37.0374149  95.2400389  38.9319437  37.2365037
  94.8286520  39.8741477  36.1252465  97.9875668  37.5457701  40.1740869
  98.0097365  37.6097034  39.2192849  98.4043727  36.7062210  40.3681375
 103.4995074  53.8343302  33.6926690 104.1945979  54.4549995  33.9114005
 103.8418224  52.9838653  33.9679068  89.1162883  45.6561103  47.5523508
  88.3744619  45.8043739  48.1388138  88.7955627  45.9169369  46.6890257
 105.3986497  51.2843008  35.2214021 105.9237821  51.6230281  34.4963341
 105.3108850  50.3490023  35.0377156  97.0606546  55.1977081  47.3503898
  97.3693672  54.9526228  48.2226597  97.8582028  55.4023720  46.8622768
  97.0827158  57.3514991  39.5809274  96.6432148  56.8591370  40.2742131
  97.8335275  56.8087959  39.3401350  89.5619497  53.5426532  39.5833902
  90.3877517  53.2430304  39.2032546  89.2113549  52.7734154  40.0323691
  94.5301030  52.8953000  41.6531576  93.9081039  52.2323705  41.3533804
  95.2005897  52.9214132  40.9705224  87.7628102  51.4612858  40.5422836
  86.9260010  51.0335033  40.3606837  87.7351747  51.6545302  41.4793627
  94.6025557  41.3734788  51.2464082  94.6513713  42.2496911  50.8641852
  95.1448072  40.8312181  50.6735725 105.0880403  51.9175911  50.5265219
 104.2975947  51.9000050  49.9869719 104.8513758  52.4564205  51.2814256
 105.2078278  48.7668378  47.8397948 105.2576283  48.6018385  48.7813470
 105.0992202  47.8995637  47.4495828  94.0914537  51.4456923  35.1290037
  94.2402657  52.1292388  34.4756709  94.8980980  51.4262014  35.6439492
 102.4982041  44.7499306  49.1557254 103.3991903  44.6105771  48.8641252
 102.5730015  44.9153761  50.0955432  96.8324846  42.1266161  48.0010441
  95.9628155  42.4199727  47.7293029  97.0684326  42.7106606  48.7217704
 106.7096475  51.1865319  48.0839969 106.4181283  51.5495300  48.9203430
 106.0968606  50.4732328  47.9053301 104.9583663  46.3097934  46.5520027
 105.4337785  46.5025580  45.7438879 104.0349229  46.3657120  46.3063411
  91.8467170  47.4722101  36.1351105  91.6013212  46.5684431  36.3331316
  92.0163084  47.4739252  35.1930583  99.5363880  38.3445778  45.5175861
 100.0545824  39.0806804  45.1922350  99.1819013  38.6509771  46.3522620
  91.1162817  43.2050459  33.6337267  90.4232062  43.2794814  32.9777303
  90.8714569  42.4410802  34.1558784  99.7876474  34.7646060  41.0376758
 100.0678228  34.0969249  41.6637184 100.5727081  34.9575156  40.5251422
  97.5909942  53.9405054  32.6001784  97.0183910  54.5595241  32.1472256
  98.1642736  54.4904416  33.1341706 103.6585332  43.1863694  44.7848333
 104.6102755  43.2861792  44.8060557 103.4888783  42.3941963  45.2946417
 101.6799712  40.2719277  44.9707734 101.0849644  40.5524290  44.2754222
 101.3949408  40.7613178  45.7424475 100.8107202  54.2242204  33.7310366
 101.7437875  54.1587766  33.9343242 100.7230415  55.0598471  33.2724899
 103.4395219  53.5408074  30.6914314 103.3608850  53.2067938  31.5850072
 104.2604886  54.0329842  30.6905786 106.1373410  46.4069814  43.8990632
 106.1049730  45.4685814  44.0850316 106.7474034  46.4853850  43.1656457
  97.9756741  45.2765867  29.9417836  98.9215846  45.1472075  30.0106255
  97.5970986  44.5380529  30.4187265 106.2867899  43.1980857  43.9448916
 105.7706947  42.4139314  43.7578844 107.1707847  42.8699574  44.1095435
 103.9478625  36.9421873  39.9044728 103.7503447  36.6336961  40.7888060
 104.5578331  37.6683512  40.0342658  97.8595433  49.3283613  51.4018493
  98.7798443  49.5062212  51.5958540  97.8245016  48.3839658  51.2498193
  96.1599658  43.2015843  29.8772722  95.2531113  42.9048956  29.9535435
  96.4375639  42.9045661  29.0107008  87.0777598  44.5222206  40.3271768
  86.7580383  43.6687515  40.0346142  86.5311027  44.7370785  41.0829735
  90.8557506  47.2384647  44.0441275  91.0743516  48.1701755  44.0629308
  91.2683280  46.8792622  44.8296078  97.7761724  37.7452733  36.0316963
  96.9662452  37.3999818  36.4072209  98.4646141  37.4360277  36.6204575
  99.7052272  36.8230780  37.6541260 100.2583311  37.2426233  38.3131283
  99.9422358  35.8966528  37.6964216  95.7285371  42.8117853  53.4344024
  95.6282098  43.7612210  53.3656115  95.5106913  42.4836092  52.5620094
  94.9298443  40.0602778  30.0184701  95.7917607  40.3857677  30.2780518
  95.1148787  39.2734274  29.5057767  86.9465858  48.1425118  42.2964890
  86.2529330  47.7279071  41.7834844  87.6938849  48.1845654  41.6998309
 103.0831079  38.9331305  37.1619924 102.5029748  39.5916109  36.7797976
 102.8167012  38.1108649  36.7507341 101.5334646  38.3336362  39.3641244
 102.0334424  38.4452897  38.5555563 102.1770253  38.0297415  40.0042053
  95.5916641  46.2414992  52.2509085  95.1083723  47.0415352  52.4572974
  95.6777580  46.2522937  51.2976529  88.8602601  48.0743372  40.1730905
  88.8373289  48.1731059  39.2212788  89.1703237  48.9208523  40.4948071
  91.5189979  50.1319527  44.2877519  92.4733232  50.1003469  44.2207451
  91.3202502  49.6710151  45.1027745  92.1089361  48.7020643  46.8548317
  92.9282250  49.1964722  46.8783154  92.3826169  47.7852611  46.8265884
 101.8655957  41.0931395  36.2176272 100.9781812  41.3781046  35.9996467
 102.2809946  40.9325159  35.3703549 105.2170493  41.1177916  39.9330611
 105.9930883  41.6074369  40.2055228 104.4918628  41.5435970  40.3902481
 107.6543052  41.8305535  40.9904552 108.2487543  41.5901271  40.2797860
 107.7269636  41.1112666  41.6178088  89.8740208  55.6739146  41.3047717
  89.7394676  54.9139547  40.7385715  89.4572270  56.3980046  40.8376506
 101.0099171  50.8576070  30.3124292 101.7135021  51.0626072  30.9281948
 100.2861819  51.4252832  30.5773376 101.8396981  46.6085931  36.4326562
 101.7832182  47.0654483  35.5934195 102.3925323  45.8476616  36.2549405
 105.6501787  42.3975663  37.2576682 105.3938721  41.9972299  38.0884890
 105.0254655  43.1119457  37.1326821  93.0309334  56.5708463  41.5166160
  92.9141718  57.5153896  41.4144850  92.2101780  56.2682025  41.9051959
 102.9185868  51.2958599  32.3622752 103.7531472  50.8639797  32.1800227
 102.7570211  51.1240613  33.2899647 102.5731760  47.7990712  33.7279092
 102.5180564  47.6334984  32.7867536 101.9477816  48.5066745  33.8841281
  87.3624275  43.0358777  47.5540514  88.0083139  42.5257731  48.0427739
  87.1541426  43.7727458  48.1283939  99.8877667  50.1039624  53.0532654
 100.7568827  50.2780276  52.6919289  99.4084419  50.9234041  52.9308384
  95.8827886  37.2998821  33.3064410  95.8706556  38.2440661  33.4632681
  96.7751308  37.1168967  33.0123871  94.0563848  57.2236725  44.7322088
  94.9591094  57.2560335  45.0488583  93.8301218  56.2937176  44.7468424
  95.8117450  55.9767712  41.3932167  94.8613081  55.9769573  41.2796539
  96.1149936  55.2300446  40.8768201  99.6980005  33.8941598  37.5610347
  98.9312401  33.3400085  37.7067029 100.1090710  33.9663467  38.4224498
  91.7021766  40.1826394  51.6515528  92.5653228  39.8263199  51.8618853
  91.1287177  39.8440289  52.3390932 104.2146665  63.6191155  38.3836345
 103.6511530  63.5281092  37.6152632 104.0999060  62.7991059  38.8638837
 101.7611097  65.1142346  41.2220565 102.5532389  64.7733171  40.8066864
 102.0007747  65.2237321  42.1422718 103.7201851  64.3751259  34.0937944
 104.4932727  63.8280247  33.9550820 104.0727250  65.2395509  34.3052405
 105.5586894  65.7027642  47.3004843 105.2676760  66.6073273  47.1851509
 106.1943878  65.7444169  48.0148913 106.4843100  63.0804490  43.8906203
 107.0806673  62.8560513  43.1763166 106.5418072  62.3389236  44.4931651
 106.0568129  60.5343926  31.7256394 106.3093650  60.0125447  30.9639857
 105.1192688  60.3710071  31.8283077 105.7764418  62.4372032  33.9280769
 105.6600676  61.7616935  34.5961853 105.8866677  61.9504405  33.1112922
 107.7601445  56.9272078  32.6288806 107.9275848  57.7952315  32.9959278
 107.5698615  57.0899360  31.7050096 103.9689260  61.8402854  40.3291341
 103.0439757  61.7079068  40.5369033 104.2173673  62.6197073  40.8261284
 107.7390666  59.3829736  33.6135473 107.6190292  59.8286787  34.4520954
 107.0443255  59.7315054  33.0549011 101.3298071  61.4836128  41.1635130
 101.4590452  61.7370607  42.0774542 100.6495522  62.0763836  40.8439785
 105.4997558  72.1533378  37.2625605 105.4221588  73.1041203  37.3414085
 104.8959202  71.8079250  37.9200531 106.2461161  62.1346696  49.4804938
 106.9875845  62.6731740  49.2039762 105.5398146  62.7612985  49.6376490
 107.5973277  64.5751436  39.0979474 108.0611622  64.8539139  38.3084096
 107.3330075  63.6734880  38.9152565 104.4897358  64.1222917  42.0359237
 105.0598715  64.5510185  41.3976722 105.0805470  63.8405502  42.7343423
 106.5342163  60.6974588  35.9069039 107.2366206  61.1495632  36.3742965
 106.2022791  60.0558407  36.5348932 104.9822524  59.2886345  50.2820248
 104.3521185  59.9702625  50.5155645 104.8758612  59.1769426  49.3373387
 100.2767497  58.9558141  41.2086173  99.4866551  59.2115669  40.7326283
 100.7678744  59.7706478  41.3138213 102.2282242  59.3202720  38.1669649
 101.4313405  59.4321414  38.6853145 102.0007834  59.6589372  37.3010540
 108.0587910  65.8447423  46.1152164 108.1232342  66.3067830  46.9510336
 107.3498834  65.2144788  46.2434474  98.5605200  59.2088631  43.6401163
  98.8113238  60.0935641  43.9058739  99.0964748  59.0293233  42.8676255
 107.7735927  67.5115531  35.9831144 107.6381602  68.3567066  36.4115992
 108.3145740  67.7134808  35.2197078 104.2603267  53.5907110  52.6445499
 103.8670213  53.0373309  53.3193144 105.0769407  53.9017689  53.0352017
 101.2265325  65.0290969  36.5559069 101.7389845  65.8234219  36.7064634
 101.8788038  64.3317259  36.4892671 103.0360209  68.1456725  38.6381823
 103.2126838  69.0674690  38.4502806 103.8317043  67.8315144  39.0676202
 107.1771228  55.0064990  50.2365756 107.9180941  55.6072143  50.1570219
 107.4089151  54.2642627  49.6783799 102.3212566  60.1921357  48.5143986
 102.2066081  59.2906614  48.8151085 101.4657084  60.4385054  48.1628802
 104.1591525  69.6634899  44.6392165 104.7098950  69.5351962  43.8669159
 103.3203001  69.9629788  44.2887058  99.1914242  63.3579623  37.3318640
 100.0289464  63.7676631  37.1152348  99.3692509  62.4179065  37.3018834
 106.4467817  53.4889477  41.4845453 107.3120814  53.2932286  41.1251342
 106.5145326  53.2599829  42.4114809 104.0530136  55.7191685  38.8561820
 104.6273888  55.4966867  38.1235012 104.6401119  55.7880380  39.6090421
 104.3799723  57.7496146  32.8757705 103.5437036  58.0870833  33.1966980
 104.2404493  57.6145126  31.9384842 106.3552804  52.5932934  37.5836889
 105.7017216  52.2781951  36.9593504 106.3133278  51.9708675  38.3096712
 107.4664009  62.8752229  29.4990181 106.5591071  62.6441483  29.6981330
 107.9635041  62.0789848  29.6864163  99.2140413  60.6970338  38.0029373
  99.0164813  60.1039699  37.2780440  98.6587077  60.3922548  38.7205312
 107.1937136  60.5893445  40.1223966 107.2485746  59.6367281  40.0466443
 106.3828338  60.7452884  40.6065265 105.1329496  59.2070504  37.8814345
 104.3197362  59.5064675  38.2879537 105.6288490  58.8126193  38.5988828
 107.2838074  69.2028261  39.8148610 107.2414253  69.4289108  38.8857142
 108.2000773  68.9691636  39.9634411 104.6243571  56.7788860  43.4975580
 105.2642950  56.6377619  42.7998544 103.7921102  56.4923373  43.1214182
 105.4003875  66.0791290  39.6110573 106.1944473  65.5841611  39.4093148
 104.6895567  65.5509154  39.2478278 101.7086638  60.2234372  35.6870325
 100.7784226  60.1618828  35.9040288 101.8044110  59.7010325  34.8906967
 101.6272187  56.7489185  38.2748567 101.8879005  57.6634518  38.1657728
 102.4489360  56.2813628  38.4245180 103.0997113  58.1626942  45.4447392
 103.7720166  57.9544304  44.7960041 102.2726899  57.9649028  45.0052624
 107.9775151  66.6520312  43.2908410 107.8386237  66.2839097  44.1634348
 107.1889747  67.1667952  43.1192368 103.5024610  61.4369545  46.2049829
 103.3644408  60.7049784  46.8061368 104.4129533  61.3478445  45.9234017
 106.1306911  61.1489504  45.6933508 106.8406529  60.5082697  45.6520127
 106.0876219  61.4002399  46.6159689 104.8435845  58.1354722  47.5129148
 104.3073202  57.6845461  48.1650744 104.2552553  58.2700631  46.7699612
 103.1384388  74.9018772  41.4073807 103.3780986  75.5337296  42.0852825
 102.2953585  74.5506812  41.6939166 104.2538104  57.5943374  30.0755612
 103.3767570  57.4732175  29.7117858 104.7295857  56.8029452  29.8234500
  95.7740244  62.3820533  40.1697119  96.4611284  62.0682263  39.5818134
  95.6188372  63.2861898  39.8964370 100.5774966  57.2710730  44.5982142
 100.4933155  56.6636400  43.8632552  99.7557672  57.7619748  44.5991639
 107.6512250  70.7097894  43.8115311 107.5782422  71.5152866  44.3234615
 107.2089643  70.9089860  42.9863332 107.4402030  69.9469664  37.3218132
 106.6569552  70.4891344  37.4156357 108.1394775  70.4643644  37.7212373
 107.3333649  57.8981677  39.6924022 106.9631436  57.3452717  40.3804928
 107.8292741  57.2939810  39.1399022 105.1622847  68.3579172  46.7879040
 105.8632307  68.9915655  46.9408434 104.6917962  68.6993903  46.0274679
 100.7590565  67.8915527  43.7210143 101.3444002  67.1459215  43.8538047
 100.5615404  68.2019483  44.6046807 103.6129220  70.9266774  38.7372585
 102.9439596  71.4112902  38.2536625 103.4742090  71.1735994  39.6515964
  95.3508220  60.4621127  42.4414586  95.3892319  59.9284718  43.2351704
  94.8448513  59.9356332  41.8225563 107.7534489  72.9610518  45.3355243
 108.3052797  73.1242139  46.1004329 108.0940682  73.5514955  44.6635268
 102.7298982  55.3085667  45.9377128 102.7940309  56.1700498  45.5254526
 102.6666102  54.6959669  45.2049487 102.2051255  57.3808800  49.5850162
 102.8323294  56.9985877  50.1987687 101.3479174  57.1623002  49.9505855
  98.9816797  59.1885229  35.5168517  99.2770239  58.2795907  35.4635571
  98.0804833  59.1672968  35.1949520 102.5111044  57.2641226  41.4996066
 101.7897630  57.8777193  41.3603539 103.3004300  57.7998990  41.4212712
 105.3137358  54.5995652  47.7736718 105.8371760  54.8457949  48.5363027
 105.0949691  55.4315687  47.3539855 100.7104639  56.8699327  35.6407842
 100.3817345  55.9896706  35.4582948 101.0644010  56.8146995  36.5284232
 103.8246462  57.1572296  36.0083320 104.1642535  57.6858218  35.2861928
 104.2718583  57.4952703  36.7841887 106.5189903  55.5409347  45.4586388
 106.1786723  54.7417160  45.8607068 105.8128909  55.8411058  44.8863221
 107.1706375  52.6258660  43.9113711 107.9932444  52.1519138  43.7892601
 107.4144438  53.4049143  44.4112397 105.8114609  55.6546918  34.2076613
 106.5322972  56.0328171  33.7040330 105.1879913  56.3735795  34.3111591
 104.6944954  59.3177780  41.7205690 104.5489534  59.6318083  42.6129971
 104.2170157  59.9362681  41.1676588 106.5541337  56.3080328  41.7686579
 106.5402905  55.4121422  41.4318877 107.2713765  56.3150992  42.4024865
  99.1690616  61.8583125  44.6593351  98.6244084  62.6342933  44.7913625
 100.0469966  62.2053929  44.5012472 105.9578232  55.1894708  37.0374149
 106.0794144  54.2611355  37.2365037 105.6680275  55.2033394  36.1252465
  99.9556638  60.9853021  47.5523508  99.2138374  61.1335656  48.1388138
  99.6349382  61.2461286  46.6890257 100.4013251  68.8718450  39.5833902
 101.2271271  68.5722221  39.2032546 100.0507303  68.1026072  40.0323691
 105.3694784  68.2244918  41.6531576 104.7474794  67.5615623  41.3533804
 106.0399651  68.2506050  40.9705224  98.6021856  66.7904776  40.5422836
  97.7653765  66.3626950  40.3606837  98.5745502  66.9837219  41.4793627
 105.4419312  56.7026706  51.2464082 105.4907467  57.5788829  50.8641852
 105.9841826  56.1604099  50.6735725 104.9308291  66.7748841  35.1290037
 105.0796412  67.4584306  34.4756709 105.7374735  66.7553931  35.6439492
 107.6718600  57.4558078  48.0010441 106.8021910  57.7491644  47.7293029
 107.9078081  58.0398523  48.7217704 102.6860924  62.8014019  36.1351105
 102.4406966  61.8976349  36.3331316 102.8556839  62.8031169  35.1930583
 101.9556572  58.5342376  33.6337267 101.2625817  58.6086731  32.9777303
 101.7108324  57.7702720  34.1558784 106.9993413  58.5307761  29.8772722
 106.0924868  58.2340873  29.9535435 107.2769394  58.2337579  29.0107008
  97.9171353  59.8514124  40.3271768  97.5974137  58.9979432  40.0346142
  97.3704781  60.0662702  41.0829735 101.6951261  62.5676565  44.0441275
 101.9137270  63.4993673  44.0629308 102.1077034  62.2084540  44.8296078
 106.5679126  58.1409771  53.4344024 106.4675853  59.0904128  53.3656115
 106.3500668  57.8128010  52.5620094 105.7692197  55.3894696  30.0184701
 106.6311361  55.7149594  30.2780518 105.9542541  54.6026192  29.5057767
  97.7859613  63.4717036  42.2964890  97.0923084  63.0570988  41.7834844
  98.5332604  63.5137572  41.6998309 106.4310396  61.5706910  52.2509085
 105.9477478  62.3707270  52.4572974 106.5171335  61.5814855  51.2976529
  99.6996355  63.4035289  40.1730905  99.6767044  63.5022977  39.2212788
 100.0096992  64.2500440  40.4948071 102.3583733  65.4611444  44.2877519
 103.3126987  65.4295387  44.2207451 102.1596257  65.0002068  45.1027745
 102.9483115  64.0312561  46.8548317 103.7676004  64.5256639  46.8783154
 103.2219923  63.1144529  46.8265884 100.7133962  71.0031064  41.3047717
 100.5788430  70.2431465  40.7385715 100.2966024  71.7271964  40.8376506
 103.8703088  71.9000381  41.5166160 103.7535472  72.8445813  41.4144850
 103.0495534  71.5973943  41.9051959  98.2018030  58.3650694  47.5540514
  98.8476893  57.8549648  48.0427739  97.9935181  59.1019376  48.1283939
 106.7221640  52.6290739  33.3064410 106.7100310  53.5732579  33.4632681
 107.6145062  52.4460884  33.0123871 104.8957602  72.5528643  44.7322088
 105.7984849  72.5852253  45.0488583 104.6694972  71.6229094  44.7468424
 106.6511204  71.3059629  41.3932167 105.7006835  71.3061491  41.2796539
 106.9543690  70.5592364  40.8768201 102.5415521  55.5118311  51.6515528
 103.4046982  55.1555116  51.8618853 101.9680931  55.1732206  52.3390932
 106.6133998  77.7112451  40.1697119 107.3005038  77.3974181  39.5818134
 106.4582127  78.6153816  39.8964370 106.1901974  75.7913044  42.4414586
 106.2286074  75.2576635  43.2351704 105.6842267  75.2648250  41.8225563
  70.6203126   5.9205141  28.1319113  70.8599724   6.5523665  28.8098132
  69.7772322   5.5693181  28.4184472  82.5359157   9.9669442  25.1081651
  81.9724023   9.8759379  24.3397939  82.4211552   9.1469346  25.5884144
  80.0823589  11.4620633  27.9465872  80.8744881  11.1211458  27.5312171
  80.3220240  11.5715609  28.8668025  88.1158716  13.6340410  20.4196116
  87.4646696  14.2194490  20.0330130  88.9103079  14.1646604  20.4791154
  82.0414343  10.7229547  20.8183250  82.8145219  10.1758534  20.6796126
  82.3939742  11.5873796  21.0297712  83.8799386  12.0505929  34.0250150
  83.5889252  12.9551560  33.9096816  84.5156370  12.0922457  34.7394219
  84.8055593   9.4282778  30.6151509  85.4019165   9.2038800  29.9008472
  84.8630564   8.6867523  31.2176957  89.5933981  11.3230842  20.9565100
  88.9579814  11.3965468  21.6686005  89.2631388  11.9124440  20.2784180
  84.0976910   8.7850319  20.6526075  83.9813168   8.1095222  21.3207160
  84.2079170   8.2982693  19.8358228  88.8389271  11.7367345  31.0199943
  88.5389994  12.6392383  30.9115751  88.4940330  11.4699528  31.8721096
  82.2901752   8.1881141  27.0536648  81.3652249   8.0557355  27.2614340
  82.5386166   8.9675361  27.5506590  79.6510563   7.8314415  27.8880437
  79.7802945   8.0848894  28.8019849  78.9708015   8.4242123  27.5685092
  83.8210051  18.5011665  23.9870911  83.7434080  19.4519490  24.0659392
  83.2171694  18.1557537  24.6445837  84.5673653   8.4824984  36.2050245
  85.3088337   9.0210028  35.9285069  83.8610638   9.1091272  36.3621797
  90.0428992  10.6254124  34.8022407  90.4512348  10.1836535  34.0577039
  89.3206254  10.0506752  35.0556599  90.3657807  11.1855315  28.5574695
  89.7366670  11.3501029  27.8550763  89.9783469  11.5996924  29.3285659
  94.2447039  12.1209753  25.9119059  93.5598077  12.5008654  25.3616093
  94.3290888  12.7305079  26.6451007  85.9185769  10.9229723  25.8224781
  86.3824115  11.2017426  25.0329403  85.6542567  10.0213167  25.6397871
  82.8109850  10.4701204  28.7604544  83.3811207  10.8988473  28.1222028
  83.4017962  10.1883789  29.4588729  92.6143799  12.6441667  30.6836760
  93.4361242  12.2421854  30.4019442  92.6106201  12.5409901  31.6352876
  86.3800402  12.1925710  32.8397471  86.4444835  12.6546118  33.6755642
  85.6711326  11.5623075  32.9679780  76.8817692   5.5566918  30.3646470
  77.1325730   6.4413928  30.6304046  77.4177240   5.3771520  29.5921562
  86.0948420  13.8593818  22.7076451  85.9594094  14.7045354  23.1361299
  86.6358232  14.0613095  21.9442385  79.5477817  11.3769256  23.2804376
  80.0602338  12.1712506  23.4309941  80.2000530  10.6795546  23.2137977
  81.3572702  14.4935012  25.3627129  81.5339330  15.4152977  25.1748113
  82.1529535  14.1793431  25.7921509  87.7216896  14.4817384  36.8376793
  87.2780750  13.6953763  36.5197697  88.3834110  14.6696535  36.1720684
  82.4804017  16.0113186  31.3637471  83.0311442  15.8830249  30.5914465
  81.6415493  16.3108075  31.0132364  89.8198134  14.7620184  34.8658194
  89.8016609  15.5829065  34.3738463  90.7418054  14.6374259  35.0908335
  86.2771188  12.2764314  35.7081703  86.8099525  11.5152602  35.4781011
  85.7485269  11.9837966  36.4505857  77.5126734   9.7057910  24.0563947
  78.3501956  10.1154919  23.8397654  77.6905002   8.7657352  24.0264140
  87.6423901  11.4050306  23.2200515  87.1145263  10.6703066  22.9073752
  87.1411404  12.1824983  22.9740483  88.6944580  17.9328024  19.1432174
  88.0206279  18.2359720  19.7517132  89.0810402  18.7357104  18.7937631
  86.9664735   9.3243111  20.7459478  86.0575954   9.0402144  20.8431947
  86.9959818   9.7442190  19.8862785  92.1984002  12.9349701  24.5150645
  91.7446329  12.0940611  24.5715836  91.5677969  13.5711099  24.8525425
  90.6416941  14.7726198  25.4500463  90.9339916  15.3331255  24.7312829
  91.1515562  15.0654759  26.2053623  77.5352905   7.0448625  24.7274680
  77.3377305   6.4517986  24.0025747  76.9799569   6.7400836  25.4450619
  85.6050566  15.5506549  26.5393917  85.5626745  15.7767395  25.6102449
  86.5213265  15.3169923  26.6879718  83.7216367  12.4269578  26.3355879
  84.5156966  11.9319898  26.1338454  83.0108060  11.8987441  25.9723585
  88.5411212  14.8087673  30.6868247  88.5948234  15.3778609  31.4545963
  87.6725993  14.9789558  30.3222284  90.7313975  11.4016022  37.2608912
  90.5799481  11.1726574  36.3438996  90.7218654  12.3586624  37.2740257
  87.4999311   8.9747935  32.2455179  88.4291371   9.1259095  32.0724146
  87.0790341   9.0631956  31.3903825  86.2987643  12.9998600  30.0153716
  86.1598729  12.6317384  30.8879655  85.5102239  13.5146239  29.8437674
  86.8935795  18.1007696  21.3579253  87.0687551  17.6295739  22.1724876
  86.2068583  18.7273462  21.5860514  87.8492858  12.3780202  27.4042554
  87.5142691  12.3380972  28.3000204  87.3496804  11.7124918  26.9312964
  81.8237102   7.7847832  32.9295135  81.6856900   7.0528071  33.5306674
  82.7342026   7.6956732  32.6479323  92.4406182  14.4335145  35.3385394
  92.3818728  13.7494365  34.6715977  92.8425700  15.1754135  34.8866020
  81.4596880  21.2497059  28.1319113  81.6993479  21.8815583  28.8098132
  80.6166077  20.8985099  28.4184472  92.4423589  12.3974729  33.5699374
  91.5550368  12.0600651  33.6925773  93.0122140  11.6657760  33.8068139
  74.0952736   8.7298821  26.8942425  74.7823776   8.4160551  26.3063441
  73.9400865   9.6340185  26.6209677  85.9724742  17.0576181  30.5360617
  85.8994914  17.8631153  31.0479922  85.5302135  17.2568147  29.7108639
  85.7614522  16.2947951  24.0463439  84.9782044  16.8369632  24.1401663
  86.4607267  16.8121931  24.4457680  88.4323426  16.9563015  32.6918776
  89.1451398  17.5910480  32.6194677  87.9413454  17.0526881  31.8758778
  90.1540953  10.8614268  24.2636067  89.2197231  10.9815730  24.0940772
  90.3317621   9.9586735  23.9996077  83.4835339  14.7057459  33.5124347
  84.1844799  15.3393942  33.6653741  83.0130454  15.0472190  32.7519986
  91.6089735  13.0475409  21.7972254  91.8849579  12.9332003  22.7066128
  90.7394234  12.6492893  21.7584427  88.2443799  17.2961759  25.4405067
  88.4266194  16.4783415  25.9032820  89.0676785  17.5129452  25.0029957
  88.5785965  16.2229945  22.7020116  89.1073731  15.7122399  22.0890278
  88.8414184  15.9072475  23.5665649  79.0803057  14.2393814  30.4455449
  79.6656494  13.4937502  30.5783354  78.8827896  14.5497771  31.3292113
  81.9341713  17.2745061  25.4617892  81.2652088  17.7591189  24.9781932
  81.7954582  17.5214282  26.3761270  73.6720712   6.8099414  29.1659892
  73.7104812   6.2763005  29.9597011  73.1661005   6.2834620  28.5470870
  86.0746981  19.3088805  32.0600550  86.6265289  19.4720426  32.8249635
  86.4153175  19.8993243  31.3880575  90.9257856  14.1350062  37.9149204
  91.4697760  14.7480021  37.4204159  90.3444700  14.6929641  38.4316217
  89.2115369  17.2570780  29.0464232  89.0866508  16.4560520  28.5375178
  89.8694460  17.7516974  28.5578202  91.2750277  15.0579800  30.6743782
  90.3280612  14.9385152  30.6022109  91.6233050  14.1702298  30.7570044
  88.2796710  14.8532517  26.8748135  88.1321673  13.9249224  27.0555705
  89.1050204  14.8752607  26.3905210  91.8830832  15.6761075  27.9613007
  92.8077380  15.4703937  27.8237458  91.7146135  15.4277476  28.8702349
  91.6726148  16.1946743  23.3175099  91.8463026  15.6293165  22.5648951
  92.1655039  16.9947638  23.1354589  77.4903108   8.2061412  31.3838658
  76.9456576   8.9821220  31.5158932  78.3682458   8.5532216  31.2257779
  92.6601321  15.5113507  20.4171997  93.3552225  16.1320200  20.6359312
  93.0024471  14.6608858  20.6924375  78.2769130   7.3331308  34.2768814
  77.5350866   7.4813943  34.8633445  77.9561874   7.5939574  33.4135564
  86.2212793  16.8747286  34.0749204  86.5299919  16.6296433  34.9471904
  87.0188275  17.0793925  33.5868075  86.2433405  19.0285196  26.3054581
  85.8038395  18.5361575  26.9987438  86.9941522  18.4858164  26.0646656
  78.7225744  15.2196737  26.3079209  79.5483764  14.9200509  25.9277853
  78.3719796  14.4504359  26.7568998  83.6907277  14.5723205  28.3776883
  83.0687286  13.9093910  28.0779111  84.3612144  14.5984337  27.6950530
  76.9234349  13.1383063  27.2668143  76.0866257  12.7105238  27.0852144
  76.8957994  13.3315507  28.2038934  94.2486650  13.5946116  37.2510526
  93.4582194  13.5770255  36.7115025  94.0120004  14.1334410  38.0059562
  83.2520784  13.1227128  21.8535343  83.4008904  13.8062593  21.2002016
  84.0587227  13.1032218  22.3684799  95.8702722  12.8635524  34.8085276
  95.5787530  13.2265505  35.6448737  95.2574853  12.1502533  34.6298608
  81.0073417   9.1492306  22.8596412  80.7619459   8.2454636  23.0576622
  81.1769331   9.1509456  21.9175890  86.7516189  15.6175259  19.3247091
  86.1790156  16.2365446  18.8717562  87.3248983  16.1674621  19.8587013
  89.9713449  15.9012409  20.4555673  90.9044122  15.8357971  20.6588548
  89.8836662  16.7368676  19.9970206  87.0201680  11.0053818  38.1263800
  87.9404690  11.1832417  38.3203847  86.9851263  10.0609863  37.9743499
  76.2383845   6.1992411  27.0517075  75.9186630   5.3457720  26.7591449
  75.6917273   6.4140990  27.8075042  80.0163753   8.9154852  30.7686581
  80.2349763   9.8471960  30.7874615  80.4289527   8.5562827  31.5541385
  76.1072105   9.8195323  29.0210196  75.4135577   9.4049276  28.5080151
  76.8545096   9.8615859  28.4243615  84.7522888   7.9185197  38.9754392
  84.2689970   8.7185557  39.1818281  84.8383827   7.9293142  38.0221836
  78.0208848   9.7513577  26.8976211  77.9979536   9.8501264  25.9458094
  78.3309484  10.5978727  27.2193377  80.6796226  11.8089732  31.0122826
  81.6339479  11.7773674  30.9452757  80.4808749  11.3480355  31.8273052
  81.2695608  10.3790848  33.5793623  82.0888497  10.8734926  33.6028461
  81.5432415   9.4622816  33.5511191  79.0346454  17.3509351  28.0293023
  78.9000922  16.5909752  27.4631022  78.6178517  18.0750251  27.5621812
  82.1915580  18.2478668  28.2411466  82.0747964  19.1924101  28.1390156
  81.3708027  17.9452230  28.6297265  89.0483914  11.7809829  39.7777961
  89.9175074  11.9550481  39.4164596  88.5690666  12.6004246  39.6553690
  83.2170094  18.9006930  31.4567395  84.1197341  18.9330540  31.7733890
  82.9907464  17.9707381  31.4713730  84.9723696  17.6537917  28.1177473
  84.0219327  17.6539778  28.0041845  85.2756183  16.9070651  27.6013508
 100.7076390  23.4898455  29.1823236 101.3454800  23.3705202  28.4786576
 100.5897233  24.4379299  29.2411188  97.5166096  23.4425883  29.1184760
  97.1784608  23.3266948  28.2305295  98.3855864  23.0417048  29.0985766
  93.3752912  25.2961360  25.1081651  92.8117777  25.2051297  24.3397939
  93.2605307  24.4761264  25.5884144  97.9985879  24.5960735  35.0770966
  97.9874520  24.2013533  34.2051469  98.1606519  23.8626807  35.6704737
  90.9217344  26.7912551  27.9465872  91.7138636  26.4503376  27.5312171
  91.1613994  26.9007526  28.8668025  98.9552471  28.9632327  20.4196116
  98.3040450  29.5486408  20.0330130  99.7496833  29.4938522  20.4791154
  92.8808098  26.0521464  20.8183250  93.6538974  25.5050451  20.6796126
  93.2333497  26.9165714  21.0297712  94.7193140  27.3797847  34.0250150
  94.4283006  28.2843478  33.9096816  95.3550125  27.4214374  34.7394219
  95.6449347  24.7574695  30.6151509  96.2412919  24.5330718  29.9008472
  95.7024319  24.0159441  31.2176957 100.2617658  21.2149909  26.2576444
 101.0480748  20.7969332  25.9066861 100.5256363  22.1196001  26.4258092
 100.4327736  26.6522759  20.9565100  99.7973569  26.7257386  21.6686005
 100.1025142  27.2416358  20.2784180  94.9370664  24.1142236  20.6526075
  94.8206922  23.4387140  21.3207160  95.0472924  23.6274610  19.8358228
  97.2802205  23.5752384  24.3572765  96.9160412  23.0483005  25.0685686
  98.1369321  23.1850853  24.1839250 103.1851506  14.8646716  31.6204031
 102.8534831  15.7342127  31.3965246 102.5897119  14.5483000  32.2998061
  99.6783025  27.0659262  31.0199943  99.3783749  27.9684301  30.9115751
  99.3334085  26.7991445  31.8721096  93.1295507  23.5173059  27.0536648
  92.2046003  23.3849273  27.2614340  93.3779920  24.2967278  27.5506590
 103.0780169  19.5841802  28.6997381 102.1697047  19.5157211  28.4056142
 103.0267765  20.0613747  29.5279206  96.8996913  21.0599941  20.3380780
  96.7796538  21.5056992  21.1766260  96.2049501  21.4085258  19.7794318
  90.4904318  23.1606333  27.8880437  90.6196699  23.4140812  28.8019849
  89.8101769  23.7534041  27.5685092  94.6603805  33.8303583  23.9870911
  94.5827835  34.7811408  24.0659392  94.0565449  33.4849455  24.6445837
  97.1521035  21.0031448  36.6432278  96.3754369  21.5625368  36.6335143
  97.7911598  21.4888231  37.1647148 104.9441816  17.7858241  30.4775255
 104.3016196  18.0790774  29.8315049 104.4396744  17.6711161  31.2828451
  95.4067407  23.8116901  36.2050245  96.1482092  24.3501945  35.9285069
  94.7004393  24.4383190  36.3621797 100.8822747  25.9546042  34.8022407
 101.2906103  25.5128452  34.0577039 100.1600008  25.3798669  35.0556599
  97.2353817  20.8918649  32.1755963  98.0815012  21.3158062  32.3190612
  97.1752455  20.2352273  32.8694527 101.2051562  26.5147232  28.5574695
 100.5760424  26.6792947  27.8550763 100.8177224  26.9288842  29.3285659
 105.0840793  27.4501670  25.9119059 104.3991832  27.8300572  25.3616093
 105.1684643  28.0596997  26.6451007 100.3853262  18.5523017  33.8337137
 100.1414194  19.3065077  33.2971413 100.6613193  18.9308365  34.6684384
 102.3391725  25.0961629  32.5114403 102.5508620  25.7393389  31.8348784
 102.2921473  24.2623946  32.0436333  99.9417954  17.7079450  29.4150975
  99.0802433  18.0060704  29.7067712  99.9680389  17.9249849  28.4832007
  96.7579523  26.2521641  25.8224781  97.2217869  26.5309343  25.0329403
  96.4936322  25.3505085  25.6397871  93.6503605  25.7993122  28.7604544
  94.2204962  26.2280390  28.1222028  94.2411716  25.5175707  29.4588729
  95.6948410  22.3744793  22.6314346  96.3972453  22.8265837  23.0988272
  95.3629038  21.7328612  23.2594239  94.1428771  20.9656550  37.0065555
  93.5127432  21.6472830  37.2400952  94.0364859  20.8539631  36.0618693
  89.4373743  20.6328346  27.9331479  88.6472797  20.8885874  27.4571590
  89.9284991  21.4476683  28.0383520 103.4537553  27.9733585  30.6836760
 104.2754997  27.5713772  30.4019442 103.4499956  27.8701819  31.6352876
  91.3888489  20.9972925  24.8914956  90.5919652  21.1091619  25.4098452
  91.1614081  21.3359577  24.0255846  97.2194156  27.5217628  32.8397471
  97.2838589  27.9838035  33.6755642  96.5105080  26.8914993  32.9679780
  87.7211446  20.8858836  30.3646470  87.9719485  21.7705846  30.6304046
  88.2570995  20.7063438  29.5921562  96.9342174  29.1885735  22.7076451
  96.7987849  30.0337271  23.1361299  97.4751987  29.3905013  21.9442385
  93.4209514  15.2677315  39.3690806  93.0276459  14.7143514  40.0438450
  94.2375654  15.5787894  39.7597324  90.3871572  26.7061174  23.2804376
  90.8996092  27.5004424  23.4309941  91.0394284  26.0087464  23.2137977
  92.1966456  29.8226930  25.3627129  92.3733085  30.7444895  25.1748113
  92.9923290  29.5085349  25.7921509  96.3377475  16.6835194  36.9611063
  97.0787188  17.2842348  36.8815525  96.5695398  15.9412832  36.4029105
  91.4818813  21.8691562  35.2389292  91.3672328  20.9676819  35.5396391
  90.6263331  22.1155258  34.8874109  98.5610651  29.8109302  36.8376793
  98.1174505  29.0245681  36.5197697  99.2227864  29.9988453  36.1720684
  93.3197772  31.3405104  31.3637471  93.8705197  31.2122167  30.5914465
  92.4809248  31.6399993  31.0132364 100.6591889  30.0912102  34.8658194
 100.6410364  30.9120983  34.3738463 101.5811809  29.9666177  35.0908335
  97.1164943  27.6056231  35.7081703  97.6493280  26.8444520  35.4781011
  96.5879024  27.3129883  36.4505857  88.3520488  25.0349828  24.0563947
  89.1895710  25.4446836  23.8397654  88.5298756  24.0949270  24.0264140
  97.8332031  17.5474609  24.8033018  96.9773628  17.1581460  24.6238657
  98.2458983  17.6266570  23.9432803  99.3631178  15.0820953  29.2024578
  98.8595974  15.0451088  28.3892383  99.6561785  15.9913695  29.2621234
  95.6074064  15.1659682  28.2090759  96.4727061  14.9702491  27.8496649
  95.6751573  14.9370034  29.1360116  98.4817655  26.7342224  23.2200515
  97.9539017  25.9994983  22.9073752  97.9805158  27.5116900  22.9740483
 103.4610501  24.9291244  28.3367561 102.8034176  25.6190506  28.4247690
 104.2650901  25.3187676  28.6801547  93.2136383  17.3961890  25.5807126
  93.7880135  17.1737072  24.8480319  93.8007365  17.4650585  26.3335727
 102.2715960  23.2835617  26.3871503 102.7847842  23.9165609  26.8893212
 102.9217184  22.6836813  26.0214863  93.5405970  19.4266351  19.6003011
  92.7043282  19.7641038  19.9212286  93.4010740  19.2915331  18.6630148
  95.5159051  14.2703139  24.3082196  94.8623463  13.9552156  23.6838810
  95.4739525  13.6478880  25.0342019  99.5338335  33.2619941  19.1432174
  98.8600033  33.5651638  19.7517132  99.9204156  34.0649022  18.7937631
  98.7496791  20.7585073  28.6329843  97.8319353  20.9800020  28.4751531
  99.1656935  20.8331383  27.7741551  99.5331839  22.1576488  23.7632523
 100.2803658  22.6697886  23.4539646  99.8023428  21.8360541  24.6236917
  97.8058489  24.6535029  20.7459478  96.8969708  24.3694062  20.8431947
  97.8353573  25.0734108  19.8862785 103.0377756  28.2641619  24.5150645
 102.5840084  27.4232528  24.5715836 102.4071723  28.9003017  24.8525425
 101.4810696  30.1018115  25.4500463 101.7733670  30.6623172  24.7312829
 101.9909316  30.3946676  26.2053623  88.3746659  22.3740543  24.7274680
  88.1771059  21.7809904  24.0025747  87.8193323  22.0692753  25.4450619
  96.3543383  22.2663650  26.8469273  96.4091993  21.3137486  26.7711750
  95.5434585  22.4223089  27.3310572  94.2935743  20.8840709  24.6059652
  93.4803609  21.1834880  25.0124844  94.7894737  20.4896398  25.3234134
  96.4444321  30.8798466  26.5393917  96.4020500  31.1059313  25.6102449
  97.3607020  30.6461841  26.6879718  99.8909955  21.3482534  33.4374546
 100.2459342  21.5754007  34.2969012 100.5382086  21.6800911  32.8151801
  93.7849818  18.4559065  30.2220887  94.4249197  18.3147824  29.5243850
  92.9527348  18.1693578  29.8459489 105.6477071  26.5377497  29.1535146
 106.0813578  26.4452786  30.0018200 106.3608652  26.5134997  28.5155162
  94.5610122  27.7561495  26.3355879  95.3550720  27.2611815  26.1338454
  93.8501814  27.2279358  25.9723585  99.3804966  30.1379591  30.6868247
  99.4341988  30.7070527  31.4545963  98.5119748  30.3081476  30.3222284
  90.8692885  21.9004577  22.4115632  89.9390473  21.8389033  22.6285594
  90.9650357  21.3780530  21.6152273  90.7878434  18.4259390  24.9993874
  91.0485252  19.3404723  24.8903034  91.6095607  17.9583832  25.1490487
  92.2603360  19.8397147  32.1692698  92.9326413  19.6314509  31.5205347
  91.4333146  19.6419233  31.7297931 106.5092621  26.5801197  31.6868032
 106.7028511  27.4847008  31.9327307 106.4093239  26.1208616  32.5206617
  98.1628932  16.4659088  34.1858359  97.5156847  17.1649038  34.0922836
  98.9329947  16.8995232  34.5534607 101.5707729  26.7307940  37.2608912
 101.4193236  26.5018492  36.3438996 101.5612409  27.6878542  37.2740257
  98.3393066  24.3039853  32.2455179  99.2685126  24.4551012  32.0724146
  97.9184096  24.3923874  31.3903825  97.1381398  28.3290517  30.0153716
  96.9992483  27.9609302  30.8879655  96.3495994  28.8438157  29.8437674
  97.7329550  33.4299614  21.3579253  97.9081305  32.9587657  22.1724876
  97.0462338  34.0565380  21.5860514  98.6886613  27.7072120  27.4042554
  98.3536445  27.6672890  28.3000204  98.1890559  27.0416836  26.9312964
  92.6630857  23.1139750  32.9295135  92.5250655  22.3819989  33.5306674
  93.5735780  23.0248650  32.6479323  95.2913157  22.8259709  32.4178815
  96.0012776  22.1852902  32.3765433  95.2482466  23.0772604  33.3404996
 103.2799936  29.7627063  35.3385394 103.2212482  29.0786283  34.6715977
 103.6819455  30.5046053  34.8866020  94.0042091  19.8124927  34.2374455
  93.4679448  19.3615666  34.8896051  93.4158800  19.9470836  33.4944919
  92.2990635  36.5788977  28.1319113  92.5387233  37.2107501  28.8098132
  91.4559831  36.2277017  28.4184472 103.2817343  27.7266647  33.5699374
 102.3944122  27.3892568  33.6925773 103.8515894  26.9949678  33.8068139
  84.9346491  24.0590738  26.8942425  85.6217530  23.7452468  26.3063441
  84.7794619  24.9632103  26.6209677  89.7381213  18.9480935  31.3227449
  89.6539401  18.3406604  30.5877859  88.9163919  19.4389953  31.3236945
  96.8118497  32.3868099  30.5360617  96.7388668  33.1923070  31.0479922
  96.3695890  32.5860065  29.7108639  96.6008276  31.6239869  24.0463439
  95.8175798  32.1661549  24.1401663  97.3001022  32.1413849  24.4457680
  99.9104927  17.4334498  26.6897644 100.4073626  16.6804461  26.3698714
  99.1391908  17.4698815  26.1240853 107.7634684  23.1374864  28.3315936
 107.7524560  24.0199579  27.9609869 106.8952063  22.7846415  28.1370473
  99.2717180  32.2854933  32.6918776  99.9845153  32.9202398  32.6194677
  98.7807209  32.3818799  31.8758778 100.9934707  26.1906186  24.2636067
 100.0590986  26.3107648  24.0940772 101.1711376  25.2878652  23.9996077
  96.4939895  19.5751881  26.4169329  96.1237683  19.0222922  27.1050234
  96.9898988  18.9710015  25.8644329  94.3229094  30.0349376  33.5124347
  95.0238553  30.6685859  33.6653741  93.8524209  30.3764108  32.7519986
 102.4483490  28.3767326  21.7972254 102.7243334  28.2623921  22.7066128
 101.5787988  27.9784811  21.7584427 102.3523921  14.4004092  28.8377003
 101.4387001  14.6308319  29.0059210 102.7817023  14.4842536  29.6891035
 102.1230380  22.5893984  31.3376897 101.4701830  22.8369891  30.6829350
 102.5010760  21.7758122  31.0039374  99.0837554  32.6253677  25.4405067
  99.2659948  31.8075333  25.9032820  99.9070540  32.8421369  25.0029957
  99.4179719  31.5521862  22.7020116  99.9467486  31.0414317  22.0890278
  99.6807939  31.2364392  23.5665649  98.1717953  23.3313795  37.8242934
  97.4958590  23.2307924  38.4945309  98.9945587  23.1753009  38.2878931
  89.9196812  29.5685732  30.4455449  90.5050249  28.8229419  30.5783354
  89.7221650  29.8789688  31.3292113  92.7735467  32.6036979  25.4617892
  92.1045842  33.0883107  24.9781932  92.6348337  32.8506199  26.3761270
  84.5114467  22.1391332  29.1659892  84.5498566  21.6054922  29.9597011
  84.0054759  21.6126537  28.5470870  96.9140736  34.6380722  32.0600550
  97.4659044  34.8012344  32.8249635  97.2546929  35.2285160  31.3880575
  91.8905229  16.9855872  32.6622435  91.9546555  17.8470703  32.2499832
  91.8272349  16.3729874  31.9294793  91.3657501  19.0579005  36.3095469
  91.9929540  18.6756082  36.9232993  90.5085420  18.8393207  36.6751162
 101.7651610  29.4641980  37.9149204 102.3091514  30.0771938  37.4204159
 101.1838455  30.0221558  38.4316217  88.1423044  20.8655434  22.2413824
  88.4376485  19.9566112  22.1880878  87.2411080  20.8443173  21.9194826
 100.0509123  32.5862698  29.0464232  99.9260262  31.7852438  28.5375178
 100.7088214  33.0808891  28.5578202  91.6717291  18.9411430  28.2241372
  90.9503877  19.5547398  28.0848846  92.4610547  19.4769195  28.1458018
 102.1144031  30.3871718  30.6743782 101.1674367  30.2677069  30.6022109
 102.4626804  29.4994216  30.7570044  94.4743605  16.2765857  34.4982024
  94.9978007  16.5228154  35.2608334  94.2555938  17.1085892  34.0785162
  89.8710886  18.5469532  22.3653149  89.5423592  17.6666910  22.1828255
  90.2250257  18.4917200  23.2529538  99.1190465  30.1824434  26.8748135
  98.9715427  29.2541142  27.0555705  99.9443958  30.2044525  26.3905210
  92.9852709  18.8342501  22.7328627  93.3248781  19.3628423  22.0107235
  93.4324829  19.1722907  23.5087193 102.7224587  31.0052993  27.9613007
 103.6471134  30.7995854  27.8237458 102.5539890  30.7569394  28.8702349
  95.6796150  17.2179552  32.1831695  95.3392970  16.4187365  32.5852375
  94.9735156  17.5181263  31.6108528  96.3312622  14.3028864  30.6359018
  97.1538691  13.8289343  30.5137908  96.5750685  15.0819348  31.1357704
  93.8551200  20.9947985  28.4450996  93.7095781  21.3088288  29.3375278
  93.3776404  21.6132885  27.8921895  95.7147583  17.9850533  28.4931886
  95.7009152  17.0891626  28.1564184  96.4320011  17.9921197  29.1270172
  97.5673714  18.4187873  30.5385013  97.3091492  19.3404944  30.5369344
  97.0358754  18.0218308  31.2285477 102.5119903  31.5238660  23.3175099
 102.6856780  30.9585083  22.5648951 103.0048794  32.3239555  23.1354589
  88.3296863  23.5353330  31.3838658  87.7850331  24.3113137  31.5158932
  89.2076212  23.8824134  31.2257779  95.1184479  16.8664913  23.7619456
  95.2400390  15.9381560  23.9610344  94.8286522  16.8803599  22.8497771
  97.9875670  14.5519824  26.8986176  98.0097366  14.6159157  25.9438155
  98.4043729  13.7124332  27.0926682 103.4995075  30.8405425  20.4171997
 104.1945980  31.4612118  20.6359312 103.8418225  29.9900776  20.6924375
  89.1162884  22.6623226  34.2768814  88.3744620  22.8105861  34.8633445
  88.7955629  22.9231491  33.4135564  97.0606547  32.2039204  34.0749204
  97.3693673  31.9588351  34.9471904  97.8582029  32.4085842  33.5868075
  97.0827159  34.3577114  26.3054581  96.6432149  33.8653492  26.9987438
  97.8335276  33.8150081  26.0646656  89.5619498  30.5488655  26.3079209
  90.3877518  30.2492426  25.9277853  89.2113550  29.7796277  26.7568998
  94.5301031  29.9015123  28.3776883  93.9081041  29.2385828  28.0779111
  95.2005898  29.9276255  27.6950530  87.7628103  28.4674981  27.2668143
  86.9260011  28.0397155  27.0852144  87.7351749  28.6607424  28.2038934
  94.6025559  18.3796911  37.9709389  94.6513714  19.2559034  37.5887158
  95.1448073  17.8374304  37.3981032 105.0880404  28.9238034  37.2510526
 104.2975948  28.9062173  36.7115025 104.8513759  29.4626328  38.0059562
 105.2078279  25.7730500  34.5643254 105.2576284  25.6080508  35.5058777
 105.0992203  24.9057759  34.1741135  94.0914538  28.4519046  21.8535343
  94.2402659  29.1354510  21.2002016  94.8980982  28.4324136  22.3684799
 102.4982042  21.7561428  35.8802561 103.3991905  21.6167893  35.5886559
 102.5730016  21.9215883  36.8200738  96.8324847  19.1328283  34.7255747
  95.9628157  19.4261849  34.4538336  97.0684328  19.7168728  35.4463011
 106.7096476  28.1927442  34.8085276 106.4181285  28.5557422  35.6448737
 106.0968608  27.4794450  34.6298608 104.9583665  23.3160057  33.2765334
 105.4337786  23.5087703  32.4684185 104.0349230  23.3719242  33.0308717
  91.8467171  24.4784224  22.8596412  91.6013213  23.5746554  23.0576622
  92.0163086  24.4801374  21.9175890  99.5363881  15.3507900  32.2421168
 100.0545825  16.0868927  31.9167656  99.1819014  15.6571893  33.0767927
  91.1162819  20.2112581  20.3582574  90.4232064  20.2856936  19.7022610
  90.8714571  19.4472925  20.8804090  97.5909944  30.9467177  19.3247091
  97.0183911  31.5657364  18.8717562  98.1642737  31.4966538  19.8587013
 103.6585334  20.1925817  31.5093639 104.6102756  20.2923914  31.5305863
 103.4888784  19.4004085  32.0191724 101.6799713  17.2781400  31.6953040
 101.0849645  17.5586413  30.9999529 101.3949410  17.7675301  32.4669781
 100.8107203  31.2304327  20.4555673 101.7437877  31.1649888  20.6588548
 100.7230416  32.0660594  19.9970206 106.1373411  23.4131936  30.6235939
 106.1049731  22.4747937  30.8095623 106.7474035  23.4915973  29.8901764
 106.2867900  20.2042980  30.6694222 105.7706948  19.4201436  30.4824151
 107.1707848  19.8761696  30.8340742  97.8595435  26.3345735  38.1263800
  98.7798444  26.5124334  38.3203847  97.8245018  25.3901781  37.9743499
  87.0777600  21.5284329  27.0517075  86.7580384  20.6749637  26.7591449
  86.5311028  21.7432907  27.8075042  90.8557507  24.2446770  30.7686581
  91.0743517  25.1763878  30.7874615  91.2683281  23.8854744  31.5541385
  95.7285373  19.8179976  40.1589330  95.6282099  20.7674333  40.0901421
  95.5106915  19.4898215  39.2865400  86.9465860  25.1487241  29.0210196
  86.2529331  24.7341193  28.5080151  87.6938851  25.1907777  28.4243615
  95.5916643  23.2477115  38.9754392  95.1083724  24.0477475  39.1818281
  95.6777582  23.2585060  38.0221836  88.8602602  25.0805494  26.8976211
  88.8373290  25.1793182  25.9458094  89.1703239  25.9270645  27.2193377
  91.5189980  27.1381649  31.0122826  92.4733234  27.1065592  30.9452757
  91.3202504  26.6772273  31.8273052  92.1089362  25.7082765  33.5793623
  92.9282251  26.2026844  33.6028461  92.3826170  24.7914734  33.5511191
  89.8740209  32.6801269  28.0293023  89.7394677  31.9201670  27.4631022
  89.4572271  33.4042169  27.5621812  93.0309335  33.5770586  28.2411466
  92.9141719  34.5216018  28.1390156  92.2101781  33.2744147  28.6297265
  87.3624276  20.0420899  34.2785820  88.0083140  19.5319853  34.7673046
  87.1541428  20.7789581  34.8529246  99.8877669  27.1101747  39.7777961
 100.7568828  27.2842399  39.4164596  99.4084420  27.9296164  39.6553690
  94.0563849  34.2298848  31.4567395  94.9591096  34.2622458  31.7733890
  93.8301219  33.2999299  31.4713730  95.8117451  32.9829834  28.1177473
  94.8613082  32.9831696  28.0041845  96.1149937  32.2362569  27.6013508
  91.7021767  17.1888516  38.3760835  92.5653229  16.8325321  38.5864159
  91.1287178  16.8502411  39.0636239 104.2146666  40.6253277  25.1081651
 103.6511532  40.5343214  24.3397939 104.0999061  39.8053182  25.5884144
 101.7611098  42.1204469  27.9465872 102.5532390  41.7795293  27.5312171
 102.0007748  42.2299444  28.8668025 103.7201852  41.3813382  20.8183250
 104.4932728  40.8342369  20.6796126 104.0727251  42.2457631  21.0297712
 105.5586895  42.7089764  34.0250150 105.2676761  43.6135395  33.9096816
 106.1943879  42.7506292  34.7394219 106.4843102  40.0866613  30.6151509
 107.0806674  39.8622635  29.9008472 106.5418073  39.3451358  31.2176957
 105.7764419  39.4434154  20.6526075 105.6600677  38.7679058  21.3207160
 105.8866679  38.9566528  19.8358228 103.9689261  38.8464977  27.0536648
 103.0439758  38.7141191  27.2614340 104.2173675  39.6259196  27.5506590
 107.7390668  36.3891858  20.3380780 107.6190293  36.8348909  21.1766260
 107.0443256  36.7377176  19.7794318 101.3298072  38.4898250  27.8880437
 101.4590454  38.7432729  28.8019849 100.6495524  39.0825958  27.5685092
 105.4997560  49.1595500  23.9870911 105.4221589  50.1103325  24.0659392
 104.8959203  48.8141373  24.6445837 106.2461162  39.1408819  36.2050245
 106.9875846  39.6793863  35.9285069 105.5398147  39.7675108  36.3621797
 107.5973278  41.5813558  25.8224781 108.0611623  41.8601261  25.0329403
 107.3330076  40.6797003  25.6397871 104.4897359  41.1285040  28.7604544
 105.0598716  41.5572308  28.1222028 105.0805471  40.8467624  29.4588729
 106.5342164  37.7036711  22.6314346 107.2366207  38.1557754  23.0988272
 106.2022793  37.0620529  23.2594239 104.9822526  36.2948467  37.0065555
 104.3521186  36.9764748  37.2400952 104.8758613  36.1831549  36.0618693
 100.2767498  35.9620263  27.9331479  99.4866552  36.2177792  27.4571590
 100.7678745  36.7768601  28.0383520 102.2282243  36.3264842  24.8914956
 101.4313407  36.4383537  25.4098452 102.0007836  36.6651495  24.0255846
 108.0587911  42.8509546  32.8397471 108.1232343  43.3129953  33.6755642
 107.3498835  42.2206911  32.9679780  98.5605201  36.2150754  30.3646470
  98.8113239  37.0997764  30.6304046  99.0964749  36.0355355  29.5921562
 107.7735929  44.5177653  22.7076451 107.6381603  45.3629189  23.1361299
 108.3145741  44.7196931  21.9442385 104.2603268  30.5969233  39.3690806
 103.8670214  30.0435432  40.0438450 105.0769409  30.9079811  39.7597324
 101.2265326  42.0353091  23.2804376 101.7389847  42.8296341  23.4309941
 101.8788039  41.3379382  23.2137977 103.0360211  45.1518847  25.3627129
 103.2126839  46.0736812  25.1748113 103.8317044  44.8377267  25.7921509
 107.1771229  32.0127112  36.9611063 107.9180943  32.6134265  36.8815525
 107.4089152  31.2704750  36.4029105 102.3212567  37.1983479  35.2389292
 102.2066082  36.2968737  35.5396391 101.4657085  37.4447176  34.8874109
 104.1591526  46.6697021  31.3637471 104.7098951  46.5414085  30.5914465
 103.3203002  46.9691910  31.0132364  99.1914243  40.3641746  24.0563947
 100.0289465  40.7738754  23.8397654  99.3692511  39.4241188  24.0264140
 106.4467818  30.4951600  28.2090759 107.3120815  30.2994409  27.8496649
 106.5145327  30.2661952  29.1360116 104.0530138  32.7253808  25.5807126
 104.6273889  32.5028989  24.8480319 104.6401120  32.7942502  26.3335727
 104.3799725  34.7558269  19.6003011 103.5437037  35.0932955  19.9212286
 104.2404494  34.6207249  18.6630148 106.3552805  29.5995057  24.3082196
 105.7017218  29.2844074  23.6838810 106.3133279  28.9770797  25.0342019
  99.2140414  37.7032461  24.7274680  99.0164814  37.1101822  24.0025747
  98.6587078  37.3984671  25.4450619 107.1937138  37.5955567  26.8469273
 107.2485747  36.6429404  26.7711750 106.3828340  37.7515006  27.3310572
 105.1329498  36.2132627  24.6059652 104.3197363  36.5126798  25.0124844
 105.6288492  35.8188316  25.3234134 107.2838075  46.2090384  26.5393917
 107.2414254  46.4351230  25.6102449 108.2000774  45.9753759  26.6879718
 104.6243572  33.7850983  30.2220887 105.2642952  33.6439742  29.5243850
 103.7921103  33.4985496  29.8459489 105.4003876  43.0853413  26.3355879
 106.1944475  42.5903733  26.1338454 104.6895569  42.5571276  25.9723585
 101.7086640  37.2296495  22.4115632 100.7784228  37.1680950  22.6285594
 101.8044112  36.7072447  21.6152273 101.6272189  33.7551308  24.9993874
 101.8879006  34.6696641  24.8903034 102.4489361  33.2875750  25.1490487
 103.0997114  35.1689065  32.1692698 103.7720167  34.9606427  31.5205347
 102.2726901  34.9711151  31.7297931 107.9775152  43.6582435  30.0153716
 107.8386238  43.2901219  30.8879655 107.1889748  44.1730074  29.8437674
 103.5024611  38.4431668  32.9295135 103.3644409  37.7111907  33.5306674
 104.4129535  38.3540568  32.6479323 106.1306912  38.1551627  32.4178815
 106.8406530  37.5144819  32.3765433 106.0876220  38.4064522  33.3404996
 104.8435846  35.1416845  34.2374455 104.3073203  34.6907583  34.8896051
 104.2552554  35.2762754  33.4944919 103.1384389  51.9080894  28.1319113
 103.3780988  52.5399418  28.8098132 102.2953586  51.5568934  28.4184472
  95.7740245  39.3882656  26.8942425  96.4611285  39.0744386  26.3063441
  95.6188374  40.2924021  26.6209677 100.5774967  34.2772853  31.3227449
 100.4933156  33.6698522  30.5877859  99.7557674  34.7681871  31.3236945
 107.6512251  47.7160017  30.5360617 107.5782423  48.5214988  31.0479922
 107.2089644  47.9151982  29.7108639 107.4402031  46.9531787  24.0463439
 106.6569553  47.4953467  24.1401663 108.1394776  47.4705766  24.4457680
 107.3333650  34.9043799  26.4169329 106.9631437  34.3514840  27.1050234
 107.8292742  34.3001933  25.8644329 105.1622848  45.3641294  33.5124347
 105.8632308  45.9977777  33.6653741 104.6917963  45.7056026  32.7519986
 100.7590566  44.8977649  30.4455449 101.3444003  44.1521337  30.5783354
 100.5615405  45.2081606  31.3292113 103.6129222  47.9328897  25.4617892
 102.9439597  48.4175024  24.9781932 103.4742091  48.1798117  26.3761270
  95.3508221  37.4683249  29.1659892  95.3892321  36.9346840  29.9597011
  94.8448514  36.9418455  28.5470870 107.7534490  49.9672640  32.0600550
 108.3052798  50.1304262  32.8249635 108.0940684  50.5577078  31.3880575
 102.7298983  32.3147790  32.6622435 102.7940310  33.1762621  32.2499832
 102.6666104  31.7021792  31.9294793 102.2051256  34.3870922  36.3095469
 102.8323295  34.0048000  36.9232993 101.3479175  34.1685124  36.6751162
  98.9816799  36.1947352  22.2413824  99.2770240  35.2858030  22.1880878
  98.0804834  36.1735091  21.9194826 102.5111046  34.2703348  28.2241372
 101.7897631  34.8839316  28.0848846 103.3004301  34.8061113  28.1458018
 105.3137359  31.6057775  34.4982024 105.8371761  31.8520071  35.2608334
 105.0949693  32.4377809  34.0785162 100.7104640  33.8761449  22.3653149
 100.3817346  32.9958828  22.1828255 101.0644011  33.8209118  23.2529538
 103.8246463  34.1634419  22.7328627 104.1642536  34.6920340  22.0107235
 104.2718584  34.5014825  23.5087193 106.5189904  32.5471470  32.1831695
 106.1786725  31.7479283  32.5852375 105.8128911  32.8473181  31.6108528
 107.1706376  29.6320782  30.6359018 107.9932445  29.1581260  30.5137908
 107.4144440  30.4111266  31.1357704 104.6944955  36.3239903  28.4450996
 104.5489536  36.6380206  29.3375278 104.2170159  36.9424803  27.8921895
 106.5541338  33.3142451  28.4931886 106.5402907  32.4183544  28.1564184
 107.2713766  33.3213115  29.1270172  99.1690617  38.8645247  31.3838658
  98.6244085  39.6405055  31.5158932 100.0469967  39.2116052  31.2257779
 105.9578234  32.1956831  23.7619456 106.0794145  31.2673477  23.9610344
 105.6680276  32.2095517  22.8497771  99.9556639  37.9915143  34.2768814
  99.2138375  38.1397779  34.8633445  99.6349383  38.2523409  33.4135564
 100.4013253  45.8780572  26.3079209 101.2271272  45.5784344  25.9277853
 100.0507305  45.1088195  26.7568998 105.3694786  45.2307040  28.3776883
 104.7474795  44.5677745  28.0779111 106.0399653  45.2568172  27.6950530
  98.6021858  43.7966899  27.2668143  97.7653766  43.3689073  27.0852144
  98.5745503  43.9899342  28.2038934 105.4419313  33.7088828  37.9709389
 105.4907469  34.5850951  37.5887158 105.9841827  33.1666221  37.3981032
 104.9308293  43.7810964  21.8535343 105.0796413  44.4646428  21.2002016
 105.7374736  43.7616054  22.3684799 107.6718602  34.4620201  34.7255747
 106.8021911  34.7553767  34.4538336 107.9078082  35.0460646  35.4463011
 102.6860926  39.8076141  22.8596412 102.4406968  38.9038471  23.0576622
 102.8556840  39.8093292  21.9175890 101.9556573  35.5404499  20.3582574
 101.2625818  35.6148854  19.7022610 101.7108325  34.7764843  20.8804090
  97.9171354  36.8576247  27.0517075  97.5974139  36.0041555  26.7591449
  97.3704782  37.0724825  27.8075042 101.6951262  39.5738688  30.7686581
 101.9137272  40.5055796  30.7874615 102.1077036  39.2146662  31.5541385
 106.5679127  35.1471894  40.1589330 106.4675854  36.0966250  40.0901421
 106.3500669  34.8190132  39.2865400  97.7859614  40.4779158  29.0210196
  97.0923086  40.0633111  28.5080151  98.5332605  40.5199695  28.4243615
 106.4310397  38.5769032  38.9754392 105.9477479  39.3769392  39.1818281
 106.5171336  38.5876977  38.0221836  99.6996357  40.4097412  26.8976211
  99.6767045  40.5085099  25.9458094 100.0096993  41.2562563  27.2193377
 102.3583735  42.4673567  31.0122826 103.3126988  42.4357509  30.9452757
 102.1596258  42.0064191  31.8273052 102.9483117  41.0374683  33.5793623
 103.7676006  41.5318762  33.6028461 103.2219924  40.1206651  33.5511191
 100.7133963  48.0093187  28.0293023 100.5788431  47.2493587  27.4631022
 100.2966026  48.7334086  27.5621812 103.8703089  48.9062504  28.2411466
 103.7535473  49.8507936  28.1390156 103.0495536  48.6036065  28.6297265
  98.2018031  35.3712817  34.2785820  98.8476895  34.8611771  34.7673046
  97.9935182  36.1081499  34.8529246 104.8957603  49.5590765  31.4567395
 105.7984850  49.5914376  31.7733890 104.6694973  48.6291216  31.4713730
 106.6511205  48.3121752  28.1177473 105.7006836  48.3123614  28.0041845
 106.9543692  47.5654487  27.6013508 102.5415522  32.5180434  38.3760835
 103.4046984  32.1617239  38.5864159 101.9680933  32.1794329  39.0636239
 106.6134000  54.7174574  26.8942425 107.3005039  54.4036304  26.3063441
 106.4582128  55.6215938  26.6209677 106.1901976  52.7975167  29.1659892
 106.2286075  52.2638758  29.9597011 105.6842268  52.2710373  28.5470870
   1.4008674  51.9570208  86.7969580   0.7496654  52.5424289  86.4103594
   2.1953037  52.4876403  86.8564617   2.7073862  44.2087790  92.6349907
   3.4936951  43.7907213  92.2840324   2.9712566  45.1133882  92.8031556
   2.8783939  49.6460640  87.3338564   2.2429772  49.7195267  88.0459469
   2.5481345  50.2354239  86.6557643   8.1082289  44.1463023  93.5382886
   8.8407461  43.5762240  93.7720715   7.3521645  43.7584624  93.9789391
   5.0438183  44.5259295  87.5434578   5.9556039  44.7586682  87.3682275
   4.5347830  45.1096339  86.9809656   3.6507765  49.5085113  94.9348159
   3.0216627  49.6730828  94.2324227   3.2633427  49.9226723  95.7059123
   7.5296997  50.4439551  92.2892523   6.8448035  50.8238453  91.7389556
   7.6140846  51.0534878  93.0224471   5.8993756  50.9671466  97.0610224
   6.7211200  50.5651653  96.7792905   5.8956159  50.8639700  98.0126340
  13.9899749  47.3110214  93.4095195  13.2363458  46.7417612  93.2539200
  14.1247291  47.2772879  94.3565830   2.6941124  45.6962789  86.1221243
   2.1787747  46.4667394  86.3609631   2.4218432  45.0227926  86.7454305
   7.6675398  48.4495144  88.0574417   6.8904841  48.1106304  87.6129579
   8.3466879  48.4547767  87.3829382   2.4827427  43.5689882  87.9481024
   2.1777562  43.8836031  88.7991168   3.4357869  43.6471301  87.9908357
   5.9066705  47.9229125  94.7141025   5.2490379  48.6128387  94.8021153
   6.7107104  48.3125557  95.0575011   4.7172164  46.2773498  92.7644966
   5.2304045  46.9103490  93.2666676   5.3673387  45.6774694  92.3988326
   1.9794538  56.2557822  85.5205638   1.3056237  56.5589519  86.1290595
   2.3660360  57.0586903  85.1711095   1.9788042  45.1514369  90.1405987
   2.7259861  45.6635766  89.8313109   2.2479632  44.8298422  91.0010381
   5.4833960  51.2579499  90.8924109   5.0296287  50.4170409  90.9489300
   4.8527926  51.8940898  91.2298889   4.4266879  42.1871486  92.1224776
   3.6889636  41.6748872  92.4535019   4.6793653  41.7471867  91.3108053
   3.9266899  53.0955996  91.8273927   4.2189873  53.6561053  91.1086293
   4.4365520  53.3884557  92.5827086   8.0663895  47.4638851  90.5197339
   7.9281794  47.6540447  89.5918528   7.7100114  48.2258234  90.9765390
   8.0933275  49.5315378  95.5308610   8.5269781  49.4390667  96.3791664
   8.8064855  49.5072878  94.8928626   1.8261169  53.1317472  97.0641711
   1.8798192  53.7008408  97.8319427   0.9575951  53.3019357  96.6995748
   1.1342816  50.7010001  93.7816018   0.7992649  50.6610771  94.6773668
   0.6346762  50.0354717  93.3086428   4.0702008  48.0466035  84.0553078
   3.4531178  47.3212863  83.9586130   3.6018496  48.8075396  83.7120152
  10.2090887  46.1312745  94.7089399  10.1980763  47.0137460  94.3383332
   9.3408267  45.7784296  94.5143936   3.4390911  49.1844067  90.6409531
   2.5047189  49.3045529  90.4714236   3.6167579  48.2816533  90.3769541
   6.8263462  45.0261386  91.1759565   7.2923914  45.8589378  91.1019868
   7.2770962  44.5606368  91.8804824   4.8939693  51.3705207  88.1745717
   5.1699537  51.2561802  89.0839591   4.0244192  50.9722692  88.1357890
   1.5293757  55.6191558  91.8178531   1.7116152  54.8013214  92.2806283
   2.3526743  55.8359250  91.3803421   1.8635923  54.5459743  89.0793579
   2.3923689  54.0352198  88.4663742   2.1264142  54.2302273  89.9439113
   2.4965326  55.5800579  95.4237696   2.3716466  54.7790319  94.9148641
   3.1544417  56.0746772  94.9351666   4.5600235  53.3809599  97.0517246
   3.6130570  53.2614950  96.9795573   4.9083008  52.4932097  97.1343507
   1.5646668  53.1762315  93.2521598   1.4171630  52.2479023  93.4329168
   2.3900161  53.1982406  92.7678673   5.1680790  53.9990874  94.3386471
   6.0927337  53.7933735  94.2010922   4.9996093  53.7507275  95.2475813
   1.5608182  41.0300153  88.2453716   1.7771797  41.9124791  87.9442544
   1.0802249  40.6386366  87.5159357   4.9576106  54.5176541  89.6948562
   5.1312984  53.9522964  88.9422415   5.4504997  55.3177436  89.5128052
  10.8115497  47.2812964  91.3138862  11.2546643  46.5320290  90.9157985
   9.9342008  47.2723101  90.9312594   5.9451279  53.8343306  86.7945461
   6.6402183  54.4549998  87.0132775   6.2874429  52.9838657  87.0697839
   7.8442702  51.2843011  88.3232792   8.3694026  51.6230284  87.5982112
   7.7565054  50.3490027  88.1395926  10.3548362  48.7518203  93.7061310
  11.1895253  49.1908007  93.8698870  10.4907491  48.2756856  92.8869556
   3.2563407  54.2242208  86.8329137   4.1894080  54.1587769  87.0362012
   3.1686620  55.0598474  86.3743669   5.8851423  53.5408078  83.7933084
   5.8065055  53.2067942  84.6868842   6.7061090  54.0329846  83.7924557
  14.4006164  47.4685824  96.1415440  15.1309553  47.2071112  96.7023143
  13.7913110  46.7314546  96.1817508  12.4821462  45.6093687  96.7389891
  11.7554625  45.4749652  96.1306382  12.0668748  45.9170515  97.5446609
   5.5287284  38.9331308  90.2638694   4.9485953  39.5916112  89.8816747
   5.2623216  38.1108653  89.8526112   4.3112162  41.0931399  89.3195043
   3.4238017  41.3781049  89.1015237   4.7266151  40.9325162  88.4722319
   7.6626698  41.1177920  93.0349382   8.4387088  41.6074372  93.3073999
   6.9374832  41.5435974  93.4921251  10.0999257  41.8305539  94.0923322
  10.6943747  41.5901275  93.3816631  10.1725840  41.1112669  94.7196859
   3.4555375  50.8576073  83.4143063   4.1591225  51.0626076  84.0300718
   2.7318024  51.4252835  83.6792146   4.2853185  46.6085935  89.5345333
   4.2288387  47.0654486  88.6952965   4.8381528  45.8476619  89.3568175
   8.0957991  42.3975666  90.3595452   7.8394926  41.9972302  91.1903660
   7.4710859  43.1119460  90.2345591  12.4070329  45.1371740  92.8666744
  11.8469887  45.2064929  93.6398306  11.8013833  44.9612724  92.1466240
   5.3642073  51.2958603  85.4641523   6.1987677  50.8639801  85.2818997
   5.2026416  51.1240616  86.3918417   5.0187965  47.7990716  86.8297862
   4.9636769  47.6334987  85.8886306   4.3934020  48.5066749  86.9860052
  13.9926348  61.8128254  95.5596699  14.6304758  61.6935001  94.8560039
  13.8747191  62.7609098  95.6184651  10.8016054  61.7655682  95.4958224
  10.4634566  61.6496746  94.6078759  11.6705822  61.3646847  95.4759230
   6.6602870  63.6191158  91.4855115   6.0967735  63.5281095  90.7171403
   6.5455265  62.7991063  91.9657607  11.2835837  62.9190534 101.4544430
  11.2724478  62.5243332 100.5824933  11.4456476  62.1856606 102.0478201
   4.2067302  65.1142350  94.3239335   4.9988594  64.7733174  93.9085635
   4.4463952  65.2237325  95.2441489  12.2402428  67.2862126  86.7969580
  11.5890408  67.8716206  86.4103594  13.0346791  67.8168321  86.8564617
   6.1658056  64.3751263  87.1956714   6.9388932  63.8280250  87.0569590
   6.5183454  65.2395512  87.4071176   8.9299305  63.0804494  96.9924973
   9.5262877  62.8560516  96.2781936   8.9874277  62.3389239  97.5950421
   8.5024333  60.5343929  84.8275164   8.7549854  60.0125450  84.0658627
   7.5648892  60.3710075  84.9301848  13.5467616  59.5379708  92.6349907
  14.3330705  59.1199131  92.2840324  13.8106321  60.4425800  92.8031556
  13.7177694  64.9752558  87.3338564  13.0823527  65.0487184  88.0459469
  13.3875100  65.5646157  86.6557643  18.9476043  59.4754941  93.5382886
  19.6801215  58.9054158  93.7720715  18.1915399  59.0876541  93.9789391
   8.2220622  62.4372035  87.0299539   8.1056880  61.7616939  87.6980623
   8.3322882  61.9504409  86.2131692  10.5652163  61.8982182  90.7346228
  10.2010370  61.3712803  91.4459150  11.4219279  61.5080651  90.5612714
  16.4701464  53.1876515  97.9977494  16.1384788  54.0571926  97.7738709
  15.8747077  52.8712799  98.6771525  10.2057650  56.9272082  85.7307577
  10.3732052  57.7952318  86.0978048  10.0154819  57.0899364  84.8068866
  12.9632983  65.3889061  97.3973407  12.6633706  66.2914100  97.2889214
  12.6184043  65.1221244  98.2494560   6.4145465  61.8402858  93.4310112
   5.4895961  61.7079072  93.6387803   6.6629878  62.6197077  93.9280054
  16.3630127  57.9071601  95.0770845  15.4547004  57.8387009  94.7829605
  16.3117723  58.3843546  95.9052670  10.1846871  59.3829739  86.7154244
  10.0646496  59.8286790  87.5539724   9.4899459  59.7315057  86.1567782
   3.7754276  61.4836131  94.2653901   3.9046657  61.7370610  95.1793312
   3.0951727  62.0763839  93.9458556   7.9453763  72.1533381  90.3644375
   7.8677793  73.1041206  90.4432855   7.3415407  71.8079254  91.0219301
  18.2291773  56.1088039  96.8548718  17.5866154  56.4020573  96.2088513
  17.7246702  55.9940960  97.6601915  15.8831937  59.8551213  87.5434578
  16.7949793  60.0878599  87.3682275  15.3741584  60.4388257  86.9809656
  14.1672705  64.2775840 101.1795870  14.5756061  63.8358251 100.4350503
  13.4449966  63.7028468 101.4330063  10.5203775  59.2148447  98.5529427
  11.3664970  59.6387861  98.6964076  10.4602412  58.5582072  99.2467990
  14.4901519  64.8377031  94.9348159  13.8610382  65.0022745  94.2324227
  14.1027181  65.2518641  95.7059123  18.3690751  65.7731469  92.2892523
  17.6841789  66.1530370  91.7389556  18.4534601  66.3826796  93.0224471
  13.6703220  56.8752816 100.2110601  13.4264152  57.6294876  99.6744877
  13.9463151  57.2538163 101.0457848  15.6241683  63.4191428  98.8887866
  15.8358578  64.0623188  98.2122248  15.5771431  62.5853744  98.4209797
  13.2267912  56.0309249  95.7924439  12.3652391  56.3290502  96.0841176
  13.2530346  56.2479647  94.8605471  10.0429481  64.5751439  92.1998244
  10.5067827  64.8539142  91.4102867   9.7786279  63.6734884  92.0171335
   6.9353562  64.1222921  95.1378008   7.5054919  64.5510189  94.4995492
   7.5261674  63.8405505  95.8362193   8.9798367  60.6974592  89.0087809
   9.6822411  61.1495635  89.4761736   8.6478996  60.0558410  89.6367703
   2.7223701  58.9558144  94.3104943   1.9322755  59.2115673  93.8345054
   3.2134949  59.7706482  94.4156983  16.7387511  66.2963383  97.0610224
  17.5604955  65.8943571  96.7792905  16.7349914  66.1931618  98.0126340
   4.6738447  59.3202723  91.2688420   3.8769610  59.4321418  91.7871915
   4.4464039  59.6589376  90.4029310  24.8293504  62.6402132  93.4095195
  24.0757212  62.0709530  93.2539200  24.9641045  62.6064796  94.3565830
  10.2192132  67.5115534  89.0849915  10.0837807  68.3567070  89.5134762
  10.7601944  67.7134812  88.3215848   3.6721529  65.0290972  89.6577840
   4.1846050  65.8234222  89.8083404   4.3244242  64.3317263  89.5911441
   5.4816414  68.1456728  91.7400593   5.6583042  69.0674693  91.5521577
   6.2773248  67.8315148  92.1694973  13.9441846  68.4141901 101.2431658
  13.9260322  69.2350782 100.7511927  14.8661766  68.2895976 101.4681799
  13.5684596  51.0346096  97.6148808  13.2248865  51.9247738  97.5387919
  13.9363558  50.8447754  96.7518393   1.6370446  63.3579626  90.4337410
   2.4745668  63.7676635  90.2171118   1.8148714  62.4179069  90.4037604
  13.5334878  61.0254707  86.1221243  13.0181502  61.7959312  86.3609631
  13.2612187  60.3519843  86.7454305  11.1181989  55.8704408  91.1806482
  10.2623586  55.4811258  91.0012120  11.5308941  55.9496369  90.3206267
  12.6481136  53.4050751  95.5798041  12.1445931  53.3680886  94.7665847
  12.9411743  54.3143494  95.6394698   8.8924022  53.4889481  94.5864223
   9.7577019  53.2932290  94.2270113   8.9601531  53.2599833  95.5133580
  18.5069152  63.7787062  88.0574417  17.7298595  63.4398221  87.6129579
  19.1860633  63.7839685  87.3829382  13.3221181  58.8981799  87.9481024
  13.0171317  59.2127948  88.7991168  14.2751624  58.9763219  87.9908357
  11.7667613  65.0572023  89.5973978  11.2388975  64.3224782  89.2847216
  11.2655116  65.8346699  89.3513947  16.7460459  63.2521043  94.7141025
  16.0884134  63.9420304  94.8021153  17.5500858  63.6417475  95.0575011
   6.4986341  55.7191689  91.9580590   7.0730093  55.4966870  91.2253783
   7.0857323  55.7880383  92.7109191  15.5565918  61.6065416  92.7644966
  16.0697800  62.2395408  93.2666676  16.2067142  61.0066611  92.3988326
   6.8255928  57.7496150  85.9776475   5.9893240  58.0870836  86.2985750
   6.6860698  57.6145130  85.0403612   8.8009009  52.5932938  90.6855659
   8.1473421  52.2781955  90.0612274   8.7589483  51.9708678  91.4115482
   9.9120213  62.8752233  82.6008951   9.0047275  62.6441486  82.8000100
  10.4091245  62.0789852  82.7882933  12.8188292  71.5849740  85.5205638
  12.1449991  71.8881437  86.1290595  13.2054114  72.3878820  85.1711095
  12.0346749  59.0814871  95.0103307  11.1169310  59.3029818  94.8524995
  12.4506893  59.1561182  94.1515014  12.8181797  60.4806287  90.1405987
  13.5653616  60.9927684  89.8313109  13.0873386  60.1590340  91.0010381
  11.0908447  62.9764828  87.1232941  10.1819666  62.6923860  87.2205411
  11.1203531  63.3963906  86.2636248  16.3227714  66.5871417  90.8924109
  15.8690041  65.7462327  90.9489300  15.6921681  67.2232816  91.2298889
  15.2660634  57.5163403  92.1224776  14.5283391  57.0040789  92.4535019
  15.5187407  57.0763785  91.3108053  14.7660654  68.4247914  91.8273927
  15.0583628  68.9852971  91.1086293  15.2759274  68.7176475  92.5827086
  15.3672261  50.2939655  92.7166546  15.6731138  49.4337019  92.4292461
  16.0924866  50.8857275  92.5165540   1.6596617  60.6970342  91.1048144
   1.4621017  60.1039702  90.3799210   1.1043281  60.3922552  91.8224082
   9.6393341  60.5893448  93.2242737   9.6941951  59.6367285  93.1485213
   8.8284543  60.7452887  93.7084035  10.7884535  64.5173571  84.4621020
  10.3503965  63.8009430  84.0026657  11.5294976  64.7449686  83.9006111
   7.5785701  59.2070508  90.9833116   6.7653566  59.5064679  91.3898308
   8.0744695  58.8126197  91.7007598   9.7294279  69.2028265  92.9167380
   9.6870458  69.4289111  91.9875912  10.6456978  68.9691640  93.0653182
  13.1759913  59.6712332  99.8148010  13.5309300  59.8983806 100.6742475
  13.8232044  60.0030709  99.1925265  18.9057649  62.7930768  90.5197339
  18.7675548  62.9832364  89.5918528  18.5493868  63.5550151  90.9765390
   7.0699776  56.7788864  96.5994351   7.7099155  56.6377623  95.9017314
   6.2377306  56.4923377  96.2232953  18.9327029  64.8607295  95.5308610
  19.3663536  64.7682584  96.3791664  19.6458610  64.8364796  94.8928626
   7.8460079  66.0791294  92.7129343   8.6400678  65.5841614  92.5111918
   7.1351772  65.5509157  92.3497049  12.6654924  68.4609389  97.0641711
  12.7191946  69.0300326  97.8319427  11.7969705  68.6311275  96.6995748
   4.1542843  60.2234376  88.7889096   3.2240431  60.1618831  89.0059058
   4.2500315  59.7010328  87.9925737   4.0728392  56.7489189  91.3767337
   4.3335209  57.6634522  91.2676498   4.8945564  56.2813631  91.5263950
   5.5453317  58.1626946  98.5466162   6.2176371  57.9544308  97.8978811
   4.7183104  57.9649032  98.1071394  19.7942579  64.9030996  98.0641496
  19.9878469  65.8076807  98.3100770  19.6943197  64.4438415  98.8980081
  11.4478889  54.7888887 100.5631823  10.8006804  55.4878836 100.4696299
  12.2179905  55.2225031 100.9308071  11.6243024  62.6269652  98.6228643
  12.5535084  62.7780811  98.4497610  11.2034054  62.7153672  97.7677289
  10.4231355  66.6520316  96.3927180  10.2842441  66.2839100  97.2653118
   9.6345952  67.1667955  96.2211138  11.0179507  71.7529412  87.7352717
  11.1931263  71.2817456  88.5498339  10.3312295  72.3795179  87.9633977
  11.9736571  66.0301919  93.7816018  11.6386403  65.9902689  94.6773668
  11.4740516  65.3646635  93.3086428  14.9095762  63.3757953  84.0553078
  14.2924933  62.6504781  83.9586130  14.4412251  64.1367313  83.7120152
   8.5763115  61.1489508  98.7952279   9.2862734  60.5082700  98.7538897
   8.5332423  61.4002403  99.7178460  16.5649894  68.0856861 101.7158858
  16.5062440  67.4016081 101.0489441  16.9669412  68.8275851 101.2639484
   7.2892049  58.1354726 100.6147918   6.7529406  57.6845464 101.2669515
   6.7008758  58.2700635  99.8718383   6.6994308  57.5943377  83.1774382
   5.8223775  57.4732178  82.8136629   7.1752061  56.8029456  82.9253271
  16.5667301  66.0496445  99.9472838  15.6794080  65.7122367 100.0699237
  17.1365852  65.3179476 100.1841603   3.0231170  57.2710734  97.7000913
   2.9389359  56.6636403  96.9651323   2.2013877  57.7619752  97.7010409
   9.8858234  69.9469668  90.4236902   9.1025756  70.4891348  90.5175127
  10.5850979  70.4643647  90.8231144  13.1954884  55.7564297  93.0671108
  13.6923584  55.0034259  92.7472178  12.4241866  55.7928614  92.5014317
  21.0484642  61.4604663  94.7089399  21.0374518  62.3429378  94.3383332
  20.1802021  61.1076213  94.5143936  14.2784665  64.5135984  90.6409531
  13.3440944  64.6337447  90.4714236  14.4561333  63.6108451  90.3769541
   9.7789853  57.8981680  92.7942792   9.4087641  57.3452720  93.4823698
  10.2748946  57.2939814  92.2417792  17.6657216  60.3553304  91.1759565
  18.1317669  61.1881295  91.1019868  18.1164717  59.8898285  91.8804824
  15.7333447  66.6997125  88.1745717  16.0093291  66.5853719  89.0839591
  14.8637946  66.3014610  88.1357890  15.6373879  52.7233891  95.2150467
  14.7236959  52.9538117  95.3832674  16.0666981  52.8072335  96.0664499
  15.4080338  60.9123783  97.7150361  14.7551788  61.1599690  97.0602813
  15.7860718  60.0987921  97.3812838  12.3687511  70.9483476  91.8178531
  12.5509906  70.1305132  92.2806283  13.1920498  71.1651168  91.3803421
  12.7029677  69.8751661  89.0793579  13.2317443  69.3644115  88.4663742
  12.9657897  69.5594191  89.9439113   6.0585425  70.9266778  91.8391355
   5.3895800  71.4112905  91.3555395   5.9198295  71.1735998  92.7534734
   5.1755187  55.3085671  99.0395898   5.2396513  56.1700502  98.6273296
   5.1122307  54.6959673  98.3068257   1.4273002  59.1885233  88.6187288
   1.7226443  58.2795911  88.5654341   0.5261038  59.1672972  88.2968290
  13.3359081  70.9092497  95.4237696  13.2110220  70.1082236  94.9148641
  13.9938172  71.4038690  94.9351666   4.9567249  57.2641229  94.6014836
   4.2353835  57.8777197  94.4622309   5.7460505  57.7998994  94.5231482
  15.3993989  68.7101517  97.0517246  14.4524325  68.5906868  96.9795573
  15.7476762  67.8224015  97.1343507   7.7593563  54.5995656 100.8755488
   8.2827964  54.8457952 101.6381797   7.5405896  55.4315690 100.4558625
   3.1560844  56.8699330  88.7426613   2.8273550  55.9896709  88.5601719
   3.5100214  56.8146999  89.6303002  12.4040422  68.5054233  93.2521598
  12.2565385  67.5770940  93.4329168  13.2293916  68.5274324  92.7678673
   6.2702667  57.1572300  89.1102090   6.6098739  57.6858221  88.3880699
   6.7174787  57.4952706  89.8860657  16.0074544  69.3282792  94.3386471
  16.9321092  69.1225653  94.2010922  15.8389848  69.0799193  95.2475813
   8.9646108  55.5409351  98.5605158   8.6242928  54.7417164  98.9625838
   8.2585114  55.8411062  97.9881992   9.6162579  52.6258663  97.0132481
  10.4388649  52.1519141  96.8911372   9.8600643  53.4049147  97.5131168
   8.2570814  55.6546922  87.3095383   8.9779176  56.0328174  86.8059100
   7.6336118  56.3735798  87.4130361  12.4001937  56.3592071  88.2453716
  12.6165551  57.2416708  87.9442544  11.9196004  55.9678284  87.5159357
   7.1401158  59.3177784  94.8224460   6.9945739  59.6318087  95.7148742
   6.6626362  59.9362684  94.2695359   8.9997541  56.3080332  94.8705350
   8.9859110  55.4121425  94.5337648   9.7169969  56.3150995  95.5043636
  10.8523672  56.7417672  96.9158477  10.5941450  57.6634743  96.9142808
  10.3208712  56.3448106  97.6058941  15.7969861  69.8468459  89.6948562
  15.9706738  69.2814882  88.9422415  16.2898752  70.6469354  89.5128052
   8.4034437  55.1894712  90.1392920   8.5250348  54.2611358  90.3383807
   8.1136479  55.2033398  89.2271235  11.2725627  52.8749622  93.2759640
  11.2947324  52.9388956  92.3211619  11.6893686  52.0354131  93.4700146
  21.6509252  62.6104882  91.3138862  22.0940398  61.8612207  90.9157985
  20.7735762  62.6015018  90.9312594  16.7845033  69.1635223  86.7945461
  17.4795938  69.7841916  87.0132775  17.1268183  68.3130575  87.0697839
  18.6836456  66.6134929  88.3232792  19.2087780  66.9522202  87.5982112
  18.5958809  65.6781944  88.1395926  10.3677117  72.6806912  92.6828045
   9.9282107  72.1883291  93.3760901  11.1185234  72.1379880  92.4420120
   7.8150989  68.2244921  94.7550346   7.1930998  67.5615626  94.4552574
   8.4855856  68.2506053  94.0723994  18.3730362  67.2467833 103.6283989
  17.5825906  67.2291972 103.0888489  18.1363717  67.7856126 104.3833026
  18.4928237  64.0960299 100.9416718  18.5426242  63.9310306 101.8832241
  18.3842161  63.2287558 100.5514599   7.3764496  66.7748845  88.2308807
   7.5252616  67.4584309  87.5775480   8.1830939  66.7553935  88.7458263
  15.7832000  60.0791227 102.2576025  16.6841862  59.9397692 101.9660023
  15.8579974  60.2445682 103.1974202  10.1174805  57.4558082 101.1029211
   9.2478114  57.7491648 100.8311800  10.3534285  58.0398527 101.8236475
  19.9946434  66.5157241 101.1858740  19.7031242  66.8787221 102.0222201
  19.3818565  65.8024249 101.0072072  21.1942116  64.0810120  93.7061310
  22.0289008  64.5199924  93.8698870  21.3301245  63.6048774  92.8869556
  18.2433622  61.6389855  99.6538798  18.7187744  61.8317501  98.8457649
  17.3199188  61.6949041  99.4082181   5.1317129  62.8014022  89.2369876
   4.8863171  61.8976352  89.4350086   5.3013043  62.8031173  88.2949354
  12.8213839  53.6737699  98.6194631  13.3395783  54.4098726  98.2941120
  12.4668972  53.9801692  99.4541391   4.4012776  58.5342380  86.7356037
   3.7082021  58.6086735  86.0796073   4.1564528  57.7702724  87.2577554
  13.0726433  50.0937981  94.1395528  13.3528187  49.4261170  94.7655955
  13.8577040  50.2867077  93.6270192  10.8759901  69.2696975  85.7020554
  10.3033869  69.8887162  85.2491026  11.4492695  69.8196337  86.2360476
  16.9435291  58.5155615  97.8867103  17.8952714  58.6153713  97.9079327
  16.7738742  57.7233884  98.3965188  14.9649671  55.6011198  98.0726504
  14.3699603  55.8816211  97.3772993  14.6799367  56.0905099  98.8443245
  14.0957161  69.5534125  86.8329137  15.0287834  69.4879687  87.0362012
  14.0080374  70.3890392  86.3743669  16.7245178  68.8699996  83.7933084
  16.6458809  68.5359859  84.6868842  17.5454845  69.3621764  83.7924557
  19.4223369  61.7361735  97.0009403  19.3899689  60.7977736  97.1869087
  20.0323993  61.8145772  96.2675228  11.2606700  60.6057788  83.0436607
  12.2065805  60.4763996  83.1125025  10.8820945  59.8672450  83.5206035
  19.5717858  58.5272778  97.0467686  19.0556906  57.7431235  96.8597615
  20.4557806  58.1991495  97.2114205  17.2328585  52.2713794  93.0063499
  17.0353406  51.9628882  93.8906831  17.8428290  52.9975433  93.1361429
  25.2399919  62.7977742  96.1415440  25.9703307  62.5363030  96.7023143
  24.6306864  62.0606464  96.1817508  23.3215216  60.9385604  96.7389891
  22.5948380  60.8041569  96.1306382  22.9062503  61.2462433  97.5446609
   9.4449617  58.5307764  82.9791492   8.5381073  58.2340877  83.0554206
   9.7225598  58.2337582  82.1125778  11.0611683  53.0744654  89.1335733
  10.2512411  52.7291739  89.5090979  11.7496100  52.7652198  89.7223345
  12.9902231  52.1522701  90.7560030  13.5433270  52.5718154  91.4150053
  13.2272317  51.2258449  90.7982986   8.2148402  55.3894700  83.1203471
   9.0767566  55.7149598  83.3799289   8.3998746  54.6026195  82.6076537
  16.3681038  54.2623226  90.2638694  15.7879707  54.9208030  89.8816747
  16.1016971  53.4400571  89.8526112  14.8184605  53.6628284  92.4660015
  15.3184383  53.7744818  91.6574333  15.4620213  53.3589337  93.1060823
   2.1452560  63.4035293  93.2749675   2.1223248  63.5022980  92.3231558
   2.4553197  64.2500444  93.5966841  15.1505916  56.4223316  89.3195043
  14.2631771  56.7072967  89.1015237  15.5659905  56.2617080  88.4722319
  18.5020452  56.4469837  93.0349382  19.2780842  56.9366290  93.3073999
  17.7768587  56.8727892  93.4921251  20.9393011  57.1597457  94.0923322
  21.5337502  56.9193193  93.3816631  21.0119595  56.4404587  94.7196859
  14.2949130  66.1867991  83.4143063  14.9984980  66.3917994  84.0300718
  13.5711778  66.7544753  83.6792146  15.1246940  61.9377852  89.5345333
  15.0682141  62.3946404  88.6952965  15.6775282  61.1768537  89.3568175
  18.9351746  57.7267584  90.3595452  18.6788680  57.3264220  91.1903660
  18.3104614  58.4411378  90.2345591  23.2464084  60.4663657  92.8666744
  22.6863642  60.5356847  93.6398306  22.6407587  60.2904642  92.1466240
  16.2035827  66.6250520  85.4641523  17.0381431  66.1931719  85.2818997
  16.0420170  66.4532534  86.3918417  15.8581719  63.1282634  86.8297862
  15.8030523  62.9626905  85.8886306  15.2327775  63.8358666  86.9860052
   9.1677845  52.6290743  86.4083180   9.1556515  53.5732582  86.5651451
  10.0601267  52.4460888  86.1142641   9.0967409  71.3059633  94.4950937
   8.1463040  71.3061495  94.3815309   9.3999895  70.5592368  93.9786972
  12.9829964  49.2233519  90.6629117  12.2162360  48.6692006  90.8085799
  13.3940669  49.2955388  91.5243269  24.8320102  77.1420171  95.5596699
  25.4698512  77.0226919  94.8560039  24.7140945  78.0901015  95.6184651
  21.6409808  77.0947599  95.4958224  21.3028320  76.9788664  94.6078759
  22.5099577  76.6938765  95.4759230  17.4996624  78.9483076  91.4855115
  16.9361489  78.8573013  90.7171403  17.3849019  78.1282980  91.9657607
  22.1229591  78.2482451 101.4544430  22.1118232  77.8535249 100.5824933
  22.2850231  77.5148524 102.0478201  15.0461056  80.4434267  94.3239335
  15.8382348  80.1025092  93.9085635  15.2857706  80.5529243  95.2441489
  23.0796183  82.6154044  86.7969580  22.4284163  83.2008124  86.4103594
  23.8740546  83.1460238  86.8564617  17.0051810  79.7043181  87.1956714
  17.7782686  79.1572168  87.0569590  17.3577209  80.5687430  87.4071176
  19.7693059  78.4096412  96.9924973  20.3656632  78.1852434  96.2781936
  19.8268031  77.6681157  97.5950421  19.3418088  75.8635847  84.8275164
  19.5943609  75.3417368  84.0658627  18.4042647  75.7001992  84.9301848
  24.3861371  74.8671625  92.6349907  25.1724460  74.4491048  92.2840324
  24.6500075  75.7717717  92.8031556  24.5571448  80.3044476  87.3338564
  23.9217281  80.3779102  88.0459469  24.2268854  80.8938074  86.6557643
  29.7869798  74.8046858  93.5382886  30.5194970  74.2346075  93.7720715
  29.0309154  74.4168459  93.9789391  19.0614377  77.7663953  87.0299539
  18.9450635  77.0908856  87.6980623  19.1716637  77.2796327  86.2131692
  21.4045918  77.2274100  90.7346228  21.0404125  76.7004721  91.4459150
  22.2613033  76.8372569  90.5612714  27.3095218  68.5168433  97.9977494
  26.9778543  69.3863843  97.7738709  26.7140832  68.2004717  98.6771525
  21.0451405  72.2564000  85.7307577  21.2125807  73.1244236  86.0978048
  20.8548574  72.4191281  84.8068866  23.8026738  80.7180979  97.3973407
  23.5027461  81.6206017  97.2889214  23.4577797  80.4513162  98.2494560
  17.2539219  77.1694775  93.4310112  16.3289716  77.0370989  93.6387803
  17.5023632  77.9488995  93.9280054  27.2023882  73.2363519  95.0770845
  26.2940759  73.1678927  94.7829605  27.1511477  73.7135464  95.9052670
  21.0240625  74.7121657  86.7154244  20.9040251  75.1578708  87.5539724
  20.3293214  75.0606975  86.1567782  14.6148030  76.8128049  94.2653901
  14.7440411  77.0662528  95.1793312  13.9345482  77.4055757  93.9458556
  18.7847518  87.4825299  90.3644375  18.7071547  88.4333124  90.4432855
  18.1809161  87.1371171  91.0219301  29.0685528  71.4379957  96.8548718
  28.4259908  71.7312490  96.2088513  28.5640456  71.3232877  97.6601915
  26.7225692  75.1843130  87.5434578  27.6343548  75.4170517  87.3682275
  26.2135339  75.7680174  86.9809656  25.0066459  79.6067758 101.1795870
  25.4149815  79.1650169 100.4350503  24.2843721  79.0320386 101.4330063
  21.3597529  74.5440365  98.5529427  22.2058724  74.9679778  98.6964076
  21.2996167  73.8873989  99.2467990  25.3295274  80.1668949  94.9348159
  24.7004136  80.3314663  94.2324227  24.9420936  80.5810558  95.7059123
  29.2084506  81.1023387  92.2892523  28.5235544  81.4822288  91.7389556
  29.2928355  81.7118713  93.0224471  24.5096975  72.2044733 100.2110601
  24.2657906  72.9586794  99.6744877  24.7856905  72.5830081 101.0457848
  26.4635437  78.7483346  98.8887866  26.6752333  79.3915105  98.2122248
  26.4165186  77.9145662  98.4209797  24.0661666  71.3601166  95.7924439
  23.2046145  71.6582420  96.0841176  24.0924101  71.5771565  94.8605471
  20.8823236  79.9043357  92.1998244  21.3461581  80.1831060  91.4102867
  20.6180034  79.0026801  92.0171335  17.7747317  79.4514838  95.1378008
  18.3448674  79.8802107  94.4995492  18.3655429  79.1697423  95.8362193
  19.8192122  76.0266509  89.0087809  20.5216165  76.4787553  89.4761736
  19.4872750  75.3850328  89.6367703  13.5617456  74.2850062  94.3104943
  12.7716510  74.5407590  93.8345054  14.0528703  75.0998400  94.4156983
  27.5781265  81.6255301  97.0610224  28.3998709  81.2235488  96.7792905
  27.5743668  81.5223535  98.0126340  15.5132201  74.6494641  91.2688420
  14.7163364  74.7613335  91.7871915  15.2857793  74.9881293  90.4029310
  35.6687258  77.9694050  93.4095195  34.9150967  77.4001448  93.2539200
  35.8034800  77.9356714  94.3565830  21.0585886  82.8407452  89.0849915
  20.9231561  83.6858988  89.5134762  21.5995699  83.0426729  88.3215848
  14.5115284  80.3582890  89.6577840  15.0239804  81.1526140  89.8083404
  15.1637997  79.6609180  89.5911441  16.3210169  83.4748646  91.7400593
  16.4976797  84.3966611  91.5521577  17.1167002  83.1607065  92.1694973
  20.4621187  70.3356911 103.3384526  21.2030900  70.9364064 103.2588989
  20.6939110  69.5934549 102.7802569  24.7835601  83.7433818 101.2431658
  24.7654076  84.5642699 100.7511927  25.7055521  83.6187893 101.4681799
  24.4078350  66.3638014  97.6148808  24.0642619  67.2539655  97.5387919
  24.7757313  66.1739671  96.7518393  12.4764201  78.6871544  90.4337410
  13.3139423  79.0968553  90.2171118  12.6542468  77.7470986  90.4037604
  24.3728633  76.3546625  86.1221243  23.8575256  77.1251229  86.3609631
  24.1005941  75.6811761  86.7454305  21.9575744  71.1996326  91.1806482
  21.1017340  70.8103176  91.0012120  22.3702696  71.2788286  90.3206267
  23.4874890  68.7342669  95.5798041  22.9839686  68.6972804  94.7665847
  23.7805497  69.6435412  95.6394698  19.7317776  68.8181399  94.5864223
  20.5970773  68.6224207  94.2270113  19.7995285  68.5891750  95.5133580
  29.3462907  79.1078979  88.0574417  28.5692350  78.7690139  87.6129579
  30.0254388  79.1131603  87.3829382  24.1614936  74.2273717  87.9481024
  23.8565071  74.5419866  88.7991168  25.1145378  74.3055137  87.9908357
  22.6061368  80.3863940  89.5973978  22.0782729  79.6516700  89.2847216
  22.1048870  81.1638617  89.3513947  27.5854214  78.5812961  94.7141025
  26.9277888  79.2712222  94.8021153  28.3894613  78.9709393  95.0575011
  17.3380095  71.0483606  91.9580590  17.9123847  70.8258788  91.2253783
  17.9251078  71.1172301  92.7109191  26.3959673  76.9357333  92.7644966
  26.9091554  77.5687325  93.2666676  27.0460896  76.3358529  92.3988326
  17.6649682  73.0788068  85.9776475  16.8286995  73.4162754  86.2985750
  17.5254452  72.9437047  85.0403612  19.6402763  67.9224855  90.6855659
  18.9867175  67.6073873  90.0612274  19.5983237  67.3000596  91.4115482
  20.7513968  78.2044150  82.6008951  19.8441030  77.9733404  82.8000100
  21.2485000  77.4081770  82.7882933  23.6582047  86.9141658  85.5205638
  22.9843746  87.2173354  86.1290595  24.0447869  87.7170738  85.1711095
  22.8740503  74.4106789  95.0103307  21.9563065  74.6321736  94.8524995
  23.2900647  74.4853099  94.1515014  23.6575551  75.8098205  90.1405987
  24.4047370  76.3219602  89.8313109  23.9267141  75.4882257  91.0010381
  21.9302201  78.3056745  87.1232941  21.0213421  78.0215778  87.2205411
  21.9597285  78.7255824  86.2636248  27.1621469  81.9163335  90.8924109
  26.7083796  81.0754245  90.9489300  26.5315435  82.5524733  91.2298889
  26.1054388  72.8455321  92.1224776  25.3677145  72.3332707  92.4535019
  26.3581162  72.4055702  91.3108053  25.6054408  83.7539832  91.8273927
  25.8977382  84.3144889  91.1086293  26.1153029  84.0468393  92.5827086
  26.2066016  65.6231573  92.7166546  26.5124892  64.7628936  92.4292461
  26.9318620  66.2149193  92.5165540  12.4990372  76.0262259  91.1048144
  12.3014772  75.4331620  90.3799210  11.9437036  75.7214470  91.8224082
  20.4787095  75.9185366  93.2242737  20.5335705  74.9659202  93.1485213
  19.6678297  76.0744805  93.7084035  21.6278289  79.8465489  84.4621020
  21.1897719  79.1301348  84.0026657  22.3688730  80.0741604  83.9006111
  18.4179455  74.5362426  90.9833116  17.6047321  74.8356596  91.3898308
  18.9138449  74.1418114  91.7007598  20.5688033  84.5320183  92.9167380
  20.5264212  84.7581029  91.9875912  21.4850732  84.2983557  93.0653182
  24.0153667  75.0004250  99.8148010  24.3703055  75.2275723 100.6742475
  24.6625798  75.3322627  99.1925265  29.7451404  78.1222686  90.5197339
  29.6069303  78.3124282  89.5918528  29.3887623  78.8842069  90.9765390
  17.9093530  72.1080781  96.5994351  18.5492909  71.9669540  95.9017314
  17.0771061  71.8215295  96.2232953  29.7720784  80.1899213  95.5308610
  30.2057290  80.0974502  96.3791664  30.4852364  80.1656714  94.8928626
  18.6853834  81.4083212  92.7129343  19.4794432  80.9133532  92.5111918
  17.9745526  80.8801075  92.3497049  23.5048678  83.7901307  97.0641711
  23.5585701  84.3592243  97.8319427  22.6363460  83.9603192  96.6995748
  14.9936597  75.5526293  88.7889096  14.0634186  75.4910749  89.0059058
  15.0894069  75.0302246  87.9925737  14.9122146  72.0781106  91.3767337
  15.1728964  72.9926439  91.2676498  15.7339319  71.6105549  91.5263950
  16.3847072  73.4918863  98.5466162  17.0570125  73.2836226  97.8978811
  15.5576858  73.2940949  98.1071394  30.6336333  80.2322914  98.0641496
  30.8272223  81.1368724  98.3100770  30.5336951  79.7730333  98.8980081
  22.2872644  70.1180804 100.5631823  21.6400559  70.8170754 100.4696299
  23.0573659  70.5516948 100.9308071  22.4636778  77.9561569  98.6228643
  23.3928838  78.1072729  98.4497610  22.0427808  78.0445590  97.7677289
  21.2625110  81.9812234  96.3927180  21.1236196  81.6131018  97.2653118
  20.4739706  82.4959873  96.2211138  21.8573262  87.0821330  87.7352717
  22.0325018  86.6109373  88.5498339  21.1706050  87.7087096  87.9633977
  22.8130325  81.3593836  93.7816018  22.4780158  81.3194606  94.6773668
  22.3134271  80.6938552  93.3086428  25.7489517  78.7049871  84.0553078
  25.1318687  77.9796699  83.9586130  25.2806005  79.4659231  83.7120152
  19.4156870  76.4781426  98.7952279  20.1256488  75.8374618  98.7538897
  19.3726178  76.7294321  99.7178460  27.4043648  83.4148779 101.7158858
  27.3456195  82.7307999 101.0489441  27.8063167  84.1567769 101.2639484
  18.1285804  73.4646644 100.6147918  17.5923161  73.0137382 101.2669515
  17.5402512  73.5992552  99.8718383  17.5388063  72.9235295  83.1774382
  16.6617529  72.8024096  82.8136629  18.0145816  72.1321373  82.9253271
  27.4061056  81.3788363  99.9472838  26.5187834  81.0414285 100.0699237
  27.9759607  80.6471394 100.1841603  13.8624925  72.6002651  97.7000913
  13.7783114  71.9928321  96.9651323  13.0407631  73.0911670  97.7010409
  20.7251989  85.2761585  90.4236902  19.9419511  85.8183266  90.5175127
  21.4244734  85.7935565  90.8231144  24.0348639  71.0856215  93.0671108
  24.5317338  70.3326177  92.7472178  23.2635620  71.1220531  92.5014317
  31.8878396  76.7896580  94.7089399  31.8768272  77.6721296  94.3383332
  31.0195776  76.4368131  94.5143936  25.1178420  79.8427902  90.6409531
  24.1834698  79.9629364  90.4714236  25.2955088  78.9400369  90.3769541
  20.6183608  73.2273598  92.7942792  20.2481395  72.6744638  93.4823698
  21.1142700  72.6231731  92.2417792  28.5050971  75.6845221  91.1759565
  28.9711423  76.5173213  91.1019868  28.9558471  75.2190203  91.8804824
  26.5727202  82.0289043  88.1745717  26.8487046  81.9145637  89.0839591
  25.7031701  81.6306527  88.1357890  26.4767634  68.0525808  95.2150467
  25.5630713  68.2830035  95.3832674  26.9060735  68.1364252  96.0664499
  26.2474092  76.2415700  97.7150361  25.5945542  76.4891608  97.0602813
  26.6254472  75.4279838  97.3812838  23.2081266  86.2775393  91.8178531
  23.3903661  85.4597049  92.2806283  24.0314252  86.4943086  91.3803421
  23.5423431  85.2043579  89.0793579  24.0711198  84.6936033  88.4663742
  23.8051651  84.8886109  89.9439113  16.8979179  86.2558695  91.8391355
  16.2289555  86.7404823  91.3555395  16.7592049  86.5027916  92.7534734
  16.0148941  70.6377589  99.0395898  16.0790268  71.4992419  98.6273296
  15.9516061  70.0251590  98.3068257  12.2666757  74.5177150  88.6187288
  12.5620198  73.6087829  88.5654341  11.3654792  74.4964890  88.2968290
  24.1752835  86.2384414  95.4237696  24.0503975  85.4374154  94.9148641
  24.8331926  86.7330608  94.9351666  15.7961004  72.5933147  94.6014836
  15.0747589  73.2069114  94.4622309  16.5854259  73.1290912  94.5231482
  26.2387744  84.0393434  97.0517246  25.2918079  83.9198786  96.9795573
  26.5870517  83.1515932  97.1343507  18.5987317  69.9287573 100.8755488
  19.1221719  70.1749870 101.6381797  18.3799650  70.7607608 100.4558625
  13.9954598  72.1991248  88.7426613  13.6667304  71.3188627  88.5601719
  14.3493969  72.1438917  89.6303002  23.2434177  83.8346151  93.2521598
  23.0959139  82.9062858  93.4329168  24.0687670  83.8566241  92.7678673
  17.1096421  72.4864218  89.1102090  17.4492494  73.0150139  88.3880699
  17.5568542  72.8244624  89.8860657  26.8468299  84.6574709  94.3386471
  27.7714846  84.4517571  94.2010922  26.6783602  84.4091110  95.2475813
  19.8039862  70.8701268  98.5605158  19.4636682  70.0709081  98.9625838
  19.0978868  71.1702979  97.9881992  20.4556334  67.9550581  97.0132481
  21.2782403  67.4811059  96.8911372  20.6994397  68.7341065  97.5131168
  19.0964568  70.9838839  87.3095383  19.8172931  71.3620092  86.8059100
  18.4729873  71.7027716  87.4130361  23.2395691  71.6883988  88.2453716
  23.4559306  72.5708626  87.9442544  22.7589758  71.2970202  87.5159357
  17.9794913  74.6469701  94.8224460  17.8339493  74.9610005  95.7148742
  17.5020116  75.2654602  94.2695359  19.8391296  71.6372249  94.8705350
  19.8252864  70.7413343  94.5337648  20.5563724  71.6442913  95.5043636
  21.6917426  72.0709590  96.9158477  21.4335204  72.9926660  96.9142808
  21.1602467  71.6740024  97.6058941  26.6363615  85.1760377  89.6948562
  26.8100493  84.6106799  88.9422415  27.1292506  85.9761272  89.5128052
  19.2428191  70.5186630  90.1392920  19.3644103  69.5903276  90.3383807
  18.9530234  70.5325316  89.2271235  22.1119382  68.2041540  93.2759640
  22.1341079  68.2680873  92.3211619  22.5287441  67.3646049  93.4700146
  32.4903006  77.9396800  91.3138862  32.9334152  77.1904125  90.9157985
  31.6129516  77.9306936  90.9312594  27.6238788  84.4927141  86.7945461
  28.3189692  85.1133834  87.0132775  27.9661938  83.6422492  87.0697839
  29.5230211  81.9426847  88.3232792  30.0481535  82.2814119  87.5982112
  29.4352563  81.0073862  88.1395926  21.2070871  88.0098830  92.6828045
  20.7675862  87.5175209  93.3760901  21.9578988  87.4671798  92.4420120
  18.6544744  83.5536839  94.7550346  18.0324753  82.8907544  94.4552574
  19.3249610  83.5797971  94.0723994  29.2124117  82.5759750 103.6283989
  28.4219660  82.5583889 103.0888489  28.9757471  83.1148044 104.3833026
  29.3321992  79.4252217 100.9416718  29.3819997  79.2602224 101.8832241
  29.2235915  78.5579476 100.5514599  18.2158250  82.1040762  88.2308807
  18.3646371  82.7876227  87.5775480  19.0224694  82.0845852  88.7458263
  26.6225754  75.4083145 102.2576025  27.5235617  75.2689610 101.9660023
  26.6973729  75.5737600 103.1974202  20.9568559  72.7849999 101.1029211
  20.0871869  73.0783566 100.8311800  21.1928040  73.3690444 101.8236475
  30.8340189  81.8449158 101.1858740  30.5424997  82.2079139 102.0222201
  30.2212320  81.1316167 101.0072072  32.0335871  79.4102038  93.7061310
  32.8682762  79.8491842  93.8698870  32.1695000  78.9340691  92.8869556
  29.0827377  76.9681773  99.6538798  29.5581498  77.1609419  98.8457649
  28.1592942  77.0240959  99.4082181  15.9710883  78.1305940  89.2369876
  15.7256925  77.2268270  89.4350086  16.1406798  78.1323090  88.2949354
  23.6607593  69.0029616  98.6194631  24.1789537  69.7390643  98.2941120
  23.3062726  69.3093610  99.4541391  15.2406531  73.8634298  86.7356037
  14.5475776  73.9378653  86.0796073  14.9958283  73.0994641  87.2577554
  23.9120187  65.4229899  94.1395528  24.1921941  64.7553088  94.7655955
  24.6970794  65.6158995  93.6270192  21.7153656  84.5988893  85.7020554
  21.1427623  85.2179080  85.2491026  22.2886450  85.1488255  86.2360476
  27.7829046  73.8447533  97.8867103  28.7346469  73.9445631  97.9079327
  27.6132496  73.0525801  98.3965188  25.8043425  70.9303116  98.0726504
  25.2093357  71.2108129  97.3772993  25.5193122  71.4197017  98.8443245
  24.9350916  84.8826043  86.8329137  25.8681589  84.8171605  87.0362012
  24.8474129  85.7182310  86.3743669  27.5638932  84.1991913  83.7933084
  27.4852564  83.8651777  84.6868842  28.3848599  84.6913681  83.7924557
  30.2617124  77.0653653  97.0009403  30.2293444  76.1269653  97.1869087
  30.8717747  77.1437689  96.2675228  22.1000454  75.9349706  83.0436607
  23.0459559  75.8055914  83.1125025  21.7214699  75.1964368  83.5206035
  30.4111612  73.8564696  97.0467686  29.8950661  73.0723153  96.8597615
  31.2951561  73.5283413  97.2114205  28.0722339  67.6005712  93.0063499
  27.8747160  67.2920800  93.8906831  28.6822045  68.3267351  93.1361429
  36.0793673  78.1269659  96.1415440  36.8097062  77.8654948  96.7023143
  35.4700619  77.3898381  96.1817508  34.1608971  76.2677522  96.7389891
  33.4342134  76.1333487  96.1306382  33.7456257  76.5754351  97.5446609
  20.2843372  73.8599682  82.9791492  19.3774827  73.5632795  83.0554206
  20.5619353  73.5629500  82.1125778  11.2021312  75.1806045  93.4290538
  10.8824096  74.3271354  93.1364912  10.6554740  75.3954624  94.1848506
  21.9005437  68.4036572  89.1335733  21.0906166  68.0583657  89.5090979
  22.5889854  68.0944115  89.7223345  23.8295986  67.4814619  90.7560030
  24.3827024  67.9010072  91.4150053  24.0666072  66.5550367  90.7982986
  19.0542156  70.7186617  83.1203471  19.9161320  71.0441516  83.3799289
  19.2392500  69.9318113  82.6076537  27.2074793  69.5915144  90.2638694
  26.6273462  70.2499948  89.8816747  26.9410725  68.7692488  89.8526112
  25.6578359  68.9920201  92.4660015  26.1578137  69.1036736  91.6574333
  26.3013967  68.6881254  93.1060823  12.9846315  78.7327211  93.2749675
  12.9617003  78.8314898  92.3231558  13.2946951  79.5792361  93.5966841
  25.9899671  71.7515234  89.3195043  25.1025526  72.0364885  89.1015237
  26.4053660  71.5908997  88.4722319  29.3414207  71.7761755  93.0349382
  30.1174597  72.2658207  93.3073999  28.6162341  72.2019809  93.4921251
  31.7786765  72.4889374  94.0923322  32.3731256  72.2485110  93.3816631
  31.8513349  71.7696505  94.7196859  25.1342884  81.5159909  83.4143063
  25.8378734  81.7209911  84.0300718  24.4105533  82.0836671  83.6792146
  25.9640694  77.2669770  89.5345333  25.9075896  77.7238321  88.6952965
  26.5169037  76.5060455  89.3568175  29.7745500  73.0559502  90.3595452
  29.5182435  72.6556138  91.1903660  29.1498368  73.7703296  90.2345591
  34.0857838  75.7955575  92.8666744  33.5257396  75.8648764  93.6398306
  33.4801342  75.6196560  92.1466240  27.0429582  81.9542438  85.4641523
  27.8775186  81.5223636  85.2818997  26.8813925  81.7824452  86.3918417
  26.6975474  78.4574551  86.8297862  26.6424278  78.2918823  85.8886306
  26.0721529  79.1650584  86.9860052  20.0071599  67.9582660  86.4083180
  19.9950269  68.9024500  86.5651451  20.8995021  67.7752806  86.1142641
  19.9361163  86.6351551  94.4950937  18.9856794  86.6353412  94.3815309
  20.2393649  85.8884285  93.9786972  23.8223719  64.5525437  90.6629117
  23.0556115  63.9983924  90.8085799  24.2334424  64.6247306  91.5243269
  35.6713857  92.4712089  95.5596699  36.3092267  92.3518836  94.8560039
  35.5534700  93.4192933  95.6184651  32.4803563  92.4239517  95.4958224
  32.1422075  92.3080582  94.6078759  33.3493331  92.0230682  95.4759230
  28.3390379  94.2774994  91.4855115  27.7755244  94.1864930  90.7171403
  28.2242774  93.4574898  91.9657607  32.9623346  93.5774369 101.4544430
  32.9511987  93.1827167 100.5824933  33.1243985  92.8440441 102.0478201
  25.8854811  95.7726185  94.3239335  26.6776103  95.4317010  93.9085635
  26.1251461  95.8821160  95.2441489  33.9189937  97.9445961  86.7969580
  33.2677917  98.5300042  86.4103594  34.7134300  98.4752156  86.8564617
  27.8445565  95.0335098  87.1956714  28.6176441  94.4864085  87.0569590
  28.1970963  95.8979348  87.4071176  30.6086814  93.7388329  96.9924973
  31.2050386  93.5144352  96.2781936  30.6661785  92.9973075  97.5950421
  30.1811842  91.1927765  84.8275164  30.4337363  90.6709286  84.0658627
  29.2436401  91.0293910  84.9301848  35.2255125  90.1963543  92.6349907
  36.0118214  89.7782966  92.2840324  35.4893830  91.1009635  92.8031556
  35.3965203  95.6336393  87.3338564  34.7611036  95.7071020  88.0459469
  35.0662609  96.2229992  86.6557643  40.6263552  90.1338776  93.5382886
  41.3588724  89.5637993  93.7720715  39.8702908  89.7460377  93.9789391
  29.9008131  93.0955870  87.0299539  29.7844389  92.4200774  87.6980623
  30.0110391  92.6088244  86.2131692  32.2439672  92.5566018  90.7346228
  31.8797879  92.0296639  91.4459150  33.1006788  92.1664487  90.5612714
  38.1488973  83.8460350  97.9977494  37.8172297  84.7155761  97.7738709
  37.5534586  83.5296634  98.6771525  31.8845159  87.5855917  85.7307577
  32.0519561  88.4536154  86.0978048  31.6942328  87.7483199  84.8068866
  34.6420492  96.0472896  97.3973407  34.3421215  96.9497935  97.2889214
  34.2971552  95.7805079  98.2494560  28.0932974  92.4986693  93.4310112
  27.1683470  92.3662907  93.6387803  28.3417387  93.2780912  93.9280054
  38.0417636  88.5655436  95.0770845  37.1334513  88.4970845  94.7829605
  37.9905232  89.0427381  95.9052670  31.8634380  90.0413575  86.7154244
  31.7434005  90.4870626  87.5539724  31.1686968  90.3898892  86.1567782
  25.4541785  92.1419967  94.2653901  25.5834166  92.3954446  95.1793312
  24.7739236  92.7347675  93.9458556  39.9079282  86.7671875  96.8548718
  39.2653663  87.0604408  96.2088513  39.4034211  86.6524795  97.6601915
  37.5619446  90.5135048  87.5434578  38.4737302  90.7462435  87.3682275
  37.0529093  91.0972092  86.9809656  35.8460214  94.9359676 101.1795870
  36.2543570  94.4942086 100.4350503  35.1237475  94.3612303 101.4330063
  32.1991284  89.8732283  98.5529427  33.0452479  90.2971696  98.6964076
  32.1389921  89.2165907  99.2467990  36.1689028  95.4960866  94.9348159
  35.5397891  95.6606581  94.2324227  35.7814690  95.9102476  95.7059123
  40.0478260  96.4315304  92.2892523  39.3629298  96.8114206  91.7389556
  40.1322110  97.0410631  93.0224471  35.3490729  87.5336651 100.2110601
  35.1051661  88.2878711  99.6744877  35.6250660  87.9121999 101.0457848
  37.3029192  94.0775263  98.8887866  37.5146087  94.7207023  98.2122248
  37.2558940  93.2437580  98.4209797  34.9055421  86.6893084  95.7924439
  34.0439900  86.9874337  96.0841176  34.9317855  86.9063483  94.8605471
  31.7216990  95.2335274  92.1998244  32.1855336  95.5122977  91.4102867
  31.4573788  94.3318719  92.0171335  28.6141071  94.7806756  95.1378008
  29.1842428  95.2094024  94.4995492  29.2049183  94.4989341  95.8362193
  30.6585876  91.3558427  89.0087809  31.3609920  91.8079471  89.4761736
  30.3266505  90.7142246  89.6367703  24.4011210  89.6141980  94.3104943
  23.6110264  89.8699508  93.8345054  24.8922458  90.4290317  94.4156983
  38.4175020  96.9547219  97.0610224  39.2392464  96.5527406  96.7792905
  38.4137423  96.8515453  98.0126340  26.3525956  89.9786559  91.2688420
  25.5557119  90.0905253  91.7871915  26.1251548  90.3173211  90.4029310
  46.5081013  93.2985967  93.4095195  45.7544721  92.7293365  93.2539200
  46.6428554  93.2648632  94.3565830  31.8979641  98.1699369  89.0849915
  31.7625316  99.0150905  89.5134762  32.4389453  98.3718647  88.3215848
  25.3509038  95.6874808  89.6577840  25.8633559  96.4818058  89.8083404
  26.0031751  94.9901098  89.5911441  27.1603923  98.8040564  91.7400593
  27.3370551  99.7258529  91.5521577  27.9560757  98.4898983  92.1694973
  31.3014942  85.6648828 103.3384526  32.0424655  86.2655982 103.2588989
  31.5332864  84.9226466 102.7802569  35.6229355  99.0725736 101.2431658
  35.6047831  99.8934617 100.7511927  36.5449275  98.9479811 101.4681799
  35.2472104  81.6929931  97.6148808  34.9036374  82.5831573  97.5387919
  35.6151067  81.5031589  96.7518393  23.3157955  94.0163462  90.4337410
  24.1533177  94.4260470  90.2171118  23.4936223  93.0762904  90.4037604
  35.2122387  91.6838542  86.1221243  34.6969011  92.4543147  86.3609631
  34.9399696  91.0103679  86.7454305  32.7969498  86.5288243  91.1806482
  31.9411095  86.1395094  91.0012120  33.2096450  86.6080204  90.3206267
  34.3268645  84.0634587  95.5798041  33.8233440  84.0264722  94.7665847
  34.6199252  84.9727329  95.6394698  30.5711531  84.1473316  94.5864223
  31.4364528  83.9516125  94.2270113  30.6389040  83.9183668  95.5133580
  40.1856661  94.4370897  88.0574417  39.4086104  94.0982057  87.6129579
  40.8648142  94.4423520  87.3829382  35.0008690  89.5565635  87.9481024
  34.6958826  89.8711784  88.7991168  35.9539132  89.6347054  87.9908357
  33.4455122  95.7155858  89.5973978  32.9176484  94.9808617  89.2847216
  32.9442625  96.4930534  89.3513947  38.4247968  93.9104878  94.7141025
  37.7671643  94.6004140  94.8021153  39.2288367  94.3001310  95.0575011
  28.1773850  86.3775524  91.9580590  28.7517602  86.1550706  91.2253783
  28.7644832  86.4464219  92.7109191  37.2353427  92.2649251  92.7644966
  37.7485309  92.8979243  93.2666676  37.8854651  91.6650447  92.3988326
  28.5043437  88.4079985  85.9776475  27.6680749  88.7454672  86.2985750
  28.3648207  88.2728965  85.0403612  30.4796518  83.2516773  90.6855659
  29.8260930  82.9365790  90.0612274  30.4376992  82.6292514  91.4115482
  31.5907722  93.5336068  82.6008951  30.6834784  93.3025322  82.8000100
  32.0878754  92.7373687  82.7882933  34.4975801 102.2433575  85.5205638
  33.8237500 102.5465272  86.1290595  34.8841623 103.0462656  85.1711095
  33.7134258  89.7398707  95.0103307  32.7956819  89.9613654  94.8524995
  34.1294402  89.8145017  94.1515014  34.4969306  91.1390122  90.1405987
  35.2441125  91.6511520  89.8313109  34.7660895  90.8174175  91.0010381
  32.7695956  93.6348663  87.1232941  31.8607175  93.3507696  87.2205411
  32.7991040  94.0547742  86.2636248  38.0015223  97.2455253  90.8924109
  37.5477550  96.4046162  90.9489300  37.3709190  97.8816651  91.2298889
  36.9448143  88.1747239  92.1224776  36.2070900  87.6624625  92.4535019
  37.1974916  87.7347620  91.3108053  36.4448162  99.0831749  91.8273927
  36.7371137  99.6436806  91.1086293  36.9546783  99.3760310  92.5827086
  37.0459770  80.9523491  92.7166546  37.3518647  80.0920854  92.4292461
  37.7712375  81.5441111  92.5165540  23.3384126  91.3554177  91.1048144
  23.1408526  90.7623538  90.3799210  22.7830790  91.0506387  91.8224082
  31.3180850  91.2477284  93.2242737  31.3729460  90.2951120  93.1485213
  30.5072052  91.4036723  93.7084035  32.4672044  95.1757407  84.4621020
  32.0291474  94.4593266  84.0026657  33.2082485  95.4033522  83.9006111
  29.2573210  89.8654343  90.9833116  28.4441075  90.1648514  91.3898308
  29.7532204  89.4710032  91.7007598  31.4081788  99.8612100  92.9167380
  31.3657966 100.0872947  91.9875912  32.3244487  99.6275475  93.0653182
  34.8547421  90.3296168  99.8148010  35.2096809  90.5567641 100.6742475
  35.5019553  90.6614545  99.1925265  40.5845158  93.4514604  90.5197339
  40.4463057  93.6416200  89.5918528  40.2281377  94.2133987  90.9765390
  28.7487285  87.4372699  96.5994351  29.3886664  87.2961458  95.9017314
  27.9164815  87.1507212  96.2232953  40.6114538  95.5191131  95.5308610
  41.0451045  95.4266420  96.3791664  41.3246119  95.4948631  94.8928626
  29.5247588  96.7375129  92.7129343  30.3188187  96.2425449  92.5111918
  28.8139281  96.2092992  92.3497049  34.3442433  99.1193225  97.0641711
  34.3979455  99.6884161  97.8319427  33.4757214  99.2895110  96.6995748
  25.8330352  90.8818211  88.7889096  24.9027940  90.8202667  89.0059058
  25.9287824  90.3594164  87.9925737  25.7515901  87.4073024  91.3767337
  26.0122718  88.3218357  91.2676498  26.5733073  86.9397466  91.5263950
  27.2240826  88.8210781  98.5466162  27.8963880  88.6128143  97.8978811
  26.3970613  88.6232867  98.1071394  41.4730088  95.5614831  98.0641496
  41.6665978  96.4660642  98.3100770  41.3730706  95.1022250  98.8980081
  33.1266398  85.4472722 100.5631823  32.4794313  86.1462672 100.4696299
  33.8967414  85.8808866 100.9308071  33.3030533  93.2853487  98.6228643
  34.2322593  93.4364646  98.4497610  32.8821563  93.3737508  97.7677289
  32.1018864  97.3104151  96.3927180  31.9629950  96.9422936  97.2653118
  31.3133461  97.8251791  96.2211138  32.6967016 102.4113248  87.7352717
  32.8718772 101.9401291  88.5498339  32.0099804 103.0379014  87.9633977
  33.6524080  96.6885754  93.7816018  33.3173912  96.6486524  94.6773668
  33.1528025  96.0230470  93.3086428  36.5883271  94.0341788  84.0553078
  35.9712442  93.3088616  83.9586130  36.1199760  94.7951149  83.7120152
  30.2550624  91.8073343  98.7952279  30.9650243  91.1666536  98.7538897
  30.2119932  92.0586238  99.7178460  28.9679558  88.7938561 100.6147918
  28.4316915  88.3429300 101.2669515  28.3796267  88.9284470  99.8718383
  28.3781817  88.2527213  83.1774382  27.5011283  88.1316013  82.8136629
  28.8539570  87.4613291  82.9253271  38.2454810  96.7080281  99.9472838
  37.3581589  96.3706202 100.0699237  38.8153361  95.9763312 100.1841603
  24.7018679  87.9294569  97.7000913  24.6176868  87.3220238  96.9651323
  23.8801386  88.4203587  97.7010409  31.5645743 100.6053503  90.4236902
  30.7813265 101.1475183  90.5175127  32.2638488 101.1227483  90.8231144
  34.8742393  86.4148132  93.0671108  35.3711093  85.6618095  92.7472178
  34.1029375  86.4512449  92.5014317  42.7272151  92.1188498  94.7089399
  42.7162027  93.0013213  94.3383332  41.8589530  91.7660049  94.5143936
  35.9572174  95.1719820  90.6409531  35.0228453  95.2921282  90.4714236
  36.1348842  94.2692286  90.3769541  31.4577362  88.5565515  92.7942792
  31.0875150  88.0036556  93.4823698  31.9536455  87.9523649  92.2417792
  39.3444725  91.0137139  91.1759565  39.8105178  91.8465131  91.1019868
  39.7952226  90.5482121  91.8804824  37.4120956  97.3580960  88.1745717
  37.6880800  97.2437555  89.0839591  36.5425455  96.9598445  88.1357890
  37.3161388  83.3817726  95.2150467  36.4024468  83.6121953  95.3832674
  37.7454490  83.4656170  96.0664499  37.0867847  91.5707618  97.7150361
  36.4339297  91.8183525  97.0602813  37.4648226  90.7571756  97.3812838
  34.0475020 101.6067311  91.8178531  34.2297415 100.7888967  92.2806283
  34.8708006 101.8235003  91.3803421  34.3817186 100.5335496  89.0793579
  34.9104952 100.0227951  88.4663742  34.6445406 100.2178026  89.9439113
  26.8542696  85.9669506  99.0395898  26.9184022  86.8284337  98.6273296
  26.7909816  85.3543508  98.3068257  23.1060511  89.8469068  88.6187288
  23.4013952  88.9379746  88.5654341  22.2048547  89.8256807  88.2968290
  35.0146590 101.5676332  95.4237696  34.8897729 100.7666072  94.9148641
  35.6725681 102.0622525  94.9351666  26.6354758  87.9225064  94.6014836
  25.9141344  88.5361032  94.4622309  27.4248014  88.4582829  94.5231482
  37.0781498  99.3685352  97.0517246  36.1311834  99.2490703  96.9795573
  37.4264271  98.4807850  97.1343507  29.4381072  85.2579491 100.8755488
  29.9615473  85.5041787 101.6381797  29.2193405  86.0899526 100.4558625
  24.8348353  87.5283166  88.7426613  24.5061059  86.6480544  88.5601719
  25.1887723  87.4730834  89.6303002  34.0827931  99.1638068  93.2521598
  33.9352894  98.2354776  93.4329168  34.9081425  99.1858159  92.7678673
  27.9490176  87.8156135  89.1102090  28.2886248  88.3442057  88.3880699
  28.3962296  88.1536541  89.8860657  37.6862053  99.9866627  94.3386471
  38.6108601  99.7809488  94.2010922  37.5177357  99.7383028  95.2475813
  30.6433617  86.1993186  98.5605158  30.3030437  85.4000999  98.9625838
  29.9372623  86.4994897  97.9881992  31.2950088  83.2842498  97.0132481
  32.1176158  82.8102977  96.8911372  31.5388152  84.0632982  97.5131168
  29.9358323  86.3130757  87.3095383  30.6566685  86.6912010  86.8059100
  29.3123627  87.0319634  87.4130361  34.0789446  87.0175906  88.2453716
  34.2953060  87.9000544  87.9442544  33.5983513  86.6262119  87.5159357
  28.8188667  89.9761619  94.8224460  28.6733248  90.2901922  95.7148742
  28.3413871  90.5946519  94.2695359  30.6785050  86.9664167  94.8705350
  30.6646619  86.0705260  94.5337648  31.3957478  86.9734831  95.5043636
  32.5311181  87.4001507  96.9158477  32.2728959  88.3218578  96.9142808
  31.9996221  87.0031942  97.6058941  37.4757370 100.5052294  89.6948562
  37.6494247  99.9398717  88.9422415  37.9686261 101.3053189  89.5128052
  30.0821946  85.8478547  90.1392920  30.2037857  84.9195194  90.3383807
  29.7923988  85.8617233  89.2271235  32.9513136  83.5333458  93.2759640
  32.9734833  83.5972791  92.3211619  33.3681195  82.6937966  93.4700146
  43.3296761  93.2688717  91.3138862  43.7727907  92.5196043  90.9157985
  42.4523271  93.2598854  90.9312594  38.4632542  99.8219059  86.7945461
  39.1583447 100.4425752  87.0132775  38.8055692  98.9714410  87.0697839
  40.3623965  97.2718764  88.3232792  40.8875289  97.6106037  87.5982112
  40.2746318  96.3365780  88.1395926  32.0464626 103.3390748  92.6828045
  31.6069616 102.8467126  93.3760901  32.7972743 102.7963715  92.4420120
  29.4938498  98.8828757  94.7550346  28.8718507  98.2199462  94.4552574
  30.1643365  98.9089889  94.0723994  40.1715746  94.7544134 100.9416718
  40.2213751  94.5894142 101.8832241  40.0629670  93.8871393 100.5514599
  29.0552005  97.4332680  88.2308807  29.2040125  98.1168144  87.5775480
  29.8618448  97.4137770  88.7458263  37.4619509  90.7375062 102.2576025
  38.3629371  90.5981527 101.9660023  37.5367483  90.9029517 103.1974202
  31.7962314  88.1141917 101.1029211  30.9265623  88.4075483 100.8311800
  32.0321794  88.6982362 101.8236475  42.8729625  94.7393956  93.7061310
  43.7076517  95.1783760  93.8698870  43.0088754  94.2632609  92.8869556
  39.9221131  92.2973691  99.6538798  40.3975253  92.4901337  98.8457649
  38.9986697  92.3532876  99.4082181  26.8104638  93.4597858  89.2369876
  26.5650680  92.5560188  89.4350086  26.9800552  93.4615008  88.2949354
  34.5001348  84.3321534  98.6194631  35.0183292  85.0682561  98.2941120
  34.1456481  84.6385527  99.4541391  26.0800285  89.1926215  86.7356037
  25.3869530  89.2670570  86.0796073  25.8352037  88.4286559  87.2577554
  34.7513942  80.7521817  94.1395528  35.0315696  80.0845006  94.7655955
  35.5364549  80.9450912  93.6270192  32.5547410  99.9280811  85.7020554
  31.9821378 100.5470998  85.2491026  33.1280204 100.4780172  86.2360476
  38.6222800  89.1739451  97.8867103  39.5740223  89.2737548  97.9079327
  38.4526251  88.3817719  98.3965188  36.6437180  86.2595034  98.0726504
  36.0487112  86.5400047  97.3772993  36.3586876  86.7488935  98.8443245
  35.7744670 100.2117961  86.8329137  36.7075343 100.1463522  87.0362012
  35.6867883 101.0474228  86.3743669  38.4032687  99.5283831  83.7933084
  38.3246318  99.1943695  84.6868842  39.2242354 100.0205599  83.7924557
  41.1010878  92.3945570  97.0009403  41.0687198  91.4561571  97.1869087
  41.7111502  92.4729607  96.2675228  32.9394209  91.2641623  83.0436607
  33.8853314  91.1347831  83.1125025  32.5608454  90.5256285  83.5206035
  41.2505367  89.1856614  97.0467686  40.7344415  88.4015070  96.8597615
  42.1345315  88.8575330  97.2114205  38.9116093  82.9297629  93.0063499
  38.7140915  82.6212717  93.8906831  39.5215799  83.6559268  93.1361429
  46.9187428  93.4561577  96.1415440  47.6490816  93.1946865  96.7023143
  46.3094373  92.7190299  96.1817508  45.0002725  91.5969440  96.7389891
  44.2735889  91.4625405  96.1306382  44.5850012  91.9046268  97.5446609
  31.1237126  89.1891600  82.9791492  30.2168581  88.8924712  83.0554206
  31.4013107  88.8921418  82.1125778  22.0415066  90.5097963  93.4290538
  21.7217851  89.6563271  93.1364912  21.4948495  90.7246541  94.1848506
  32.7399192  83.7328489  89.1335733  31.9299920  83.3875574  89.5090979
  33.4283609  83.4236033  89.7223345  34.6689740  82.8106536  90.7560030
  35.2220779  83.2301990  91.4150053  34.9059826  81.8842284  90.7982986
  29.8935911  86.0478535  83.1203471  30.7555075  86.3733433  83.3799289
  30.0786255  85.2610031  82.6076537  38.0468547  84.9207061  90.2638694
  37.4667216  85.5791865  89.8816747  37.7804480  84.0984406  89.8526112
  36.4972114  84.3212119  92.4660015  36.9971892  84.4328654  91.6574333
  37.1407721  84.0173172  93.1060823  23.8240069  94.0619128  93.2749675
  23.8010757  94.1606816  92.3231558  24.1340706  94.9084279  93.5966841
  36.8293425  87.0807152  89.3195043  35.9419280  87.3656802  89.1015237
  37.2447414  86.9200915  88.4722319  40.1807961  87.1053673  93.0349382
  40.9568351  87.5950125  93.3073999  39.4556096  87.5311727  93.4921251
  42.6180520  87.8181292  94.0923322  43.2125011  87.5777028  93.3816631
  42.6907104  87.0988422  94.7196859  35.9736639  96.8451826  83.4143063
  36.6772489  97.0501829  84.0300718  35.2499287  97.4128588  83.6792146
  36.8034449  92.5961688  89.5345333  36.7469650  93.0530239  88.6952965
  37.3562791  91.8352372  89.3568175  40.6139255  88.3851420  90.3595452
  40.3576189  87.9848055  91.1903660  39.9892123  89.0995213  90.2345591
  44.9251593  91.1247493  92.8666744  44.3651151  91.1940682  93.6398306
  44.3195096  90.9488477  92.1466240  37.8823336  97.2834356  85.4641523
  38.7168940  96.8515554  85.2818997  37.7207679  97.1116369  86.3918417
  37.5369228  93.7866469  86.8297862  37.4818032  93.6210740  85.8886306
  36.9115284  94.4942502  86.9860052  30.8465354  83.2874578  86.4083180
  30.8344024  84.2316418  86.5651451  31.7388776  83.1044723  86.1142641
  30.7754918 101.9643468  94.4950937  29.8250549 101.9645330  94.3815309
  31.0787404 101.2176203  93.9786972  34.6617473  79.8817355  90.6629117
  33.8949869  79.3275841  90.8085799  35.0728178  79.9539223  91.5243269
  41.0205597 106.5219682  84.8275164  41.2731118 106.0001203  84.0658627
  40.0830156 106.3585828  84.9301848  46.0648880 105.5255461  92.6349907
  46.8511969 105.1074884  92.2840324  46.3287584 106.4301553  92.8031556
  42.7238914 102.9147835  85.7307577  42.8913316 103.7828071  86.0978048
  42.5336083 103.0775117  84.8068866  42.7028134 105.3705492  86.7154244
  42.5827760 105.8162543  87.5539724  42.0080723 105.7190810  86.1567782
  48.4013201 105.8426966  87.5434578  49.3131057 106.0754352  87.3682275
  47.8922848 106.4264010  86.9809656  45.7449175 102.0185002  95.7924439
  44.8833654 102.3166255  96.0841176  45.7711610 102.2355401  94.8605471
  41.4979631 106.6850345  89.0087809  42.2003674 107.1371388  89.4761736
  41.1660259 106.0434163  89.6367703  46.0865859  97.0221849  97.6148808
  45.7430128  97.9123491  97.5387919  46.4544822  96.8323507  96.7518393
  46.0516142 107.0130460  86.1221243  45.5362765 107.7835065  86.3609631
  45.7793450 106.3395596  86.7454305  43.6363253 101.8580161  91.1806482
  42.7804849 101.4687011  91.0012120  44.0490204 101.9372122  90.3206267
  45.1662399  99.3926504  95.5798041  44.6627195  99.3556639  94.7665847
  45.4593006 100.3019247  95.6394698  41.4105285  99.4765234  94.5864223
  42.2758282  99.2808043  94.2270113  41.4782794  99.2475586  95.5133580
  51.0250416 109.7662815  88.0574417  50.2479859 109.4273974  87.6129579
  51.7041897 109.7715438  87.3829382  45.8402445 104.8857552  87.9481024
  45.5352580 105.2003701  88.7991168  46.7932887 104.9638972  87.9908357
  39.0167604 101.7067442  91.9580590  39.5911356 101.4842623  91.2253783
  39.6038587 101.7756136  92.7109191  39.3437191 103.7371903  85.9776475
  38.5074504 104.0746589  86.2985750  39.2041961 103.6020883  85.0403612
  41.3190272  98.5808691  90.6855659  40.6654684  98.2657708  90.0612274
  41.2770746  97.9584431  91.4115482  44.5528012 105.0690624  95.0103307
  43.6350574 105.2905571  94.8524995  44.9688156 105.1436935  94.1515014
  45.3363060 106.4682040  90.1405987  46.0834879 106.9803437  89.8313109
  45.6054650 106.1466093  91.0010381  47.7841897 103.5039156  92.1224776
  47.0464654 102.9916542  92.4535019  48.0368671 103.0639538  91.3108053
  47.8853525  96.2815408  92.7166546  48.1912401  95.4212772  92.4292461
  48.6106129  96.8733028  92.5165540  42.1574604 106.5769201  93.2242737
  42.2123214 105.6243038  93.1485213  41.3465806 106.7328640  93.7084035
  40.0966964 105.1946261  90.9833116  39.2834830 105.4940432  91.3898308
  40.5925958 104.8001950  91.7007598  39.5881039 102.7664617  96.5994351
  40.2280418 102.6253376  95.9017314  38.7558570 102.4799130  96.2232953
  36.5909655 102.7364942  91.3767337  36.8516473 103.6510275  91.2676498
  37.4126828 102.2689384  91.5263950  39.2175572 103.5819130  83.1774382
  38.3405038 103.4607931  82.8136629  39.6933325 102.7905209  82.9253271
  35.5412434 103.2586487  97.7000913  35.4570623 102.6512156  96.9651323
  34.7195140 103.7495505  97.7010409  45.7136148 101.7440050  93.0671108
  46.2104847 100.9910012  92.7472178  44.9423129 101.7804367  92.5014317
  42.2971117 103.8857433  92.7942792  41.9268904 103.3328474  93.4823698
  42.7930209 103.2815567  92.2417792  50.1838480 106.3429057  91.1759565
  50.6498932 107.1757048  91.1019868  50.6345980 105.8774038  91.8804824
  48.1555143  98.7109644  95.2150467  47.2418222  98.9413870  95.3832674
  48.5848244  98.7948088  96.0664499  37.6936450 101.2961424  99.0395898
  37.7577777 102.1576255  98.6273296  37.6303570 100.6835426  98.3068257
  37.4748513 103.2516982  94.6014836  36.7535098 103.8652950  94.4622309
  38.2641768 103.7874747  94.5231482  35.6742107 102.8575083  88.7426613
  35.3454813 101.9772462  88.5601719  36.0281478 102.8022752  89.6303002
  38.7883930 103.1448053  89.1102090  39.1280003 103.6733974  88.3880699
  39.2356051 103.4828459  89.8860657  42.1343843  98.6134416  97.0132481
  42.9569912  98.1394894  96.8911372  42.3781906  99.3924900  97.5131168
  40.7752077 101.6422675  87.3095383  41.4960440 102.0203927  86.8059100
  40.1517382 102.3611551  87.4130361  44.9183200 102.3467824  88.2453716
  45.1346815 103.2292461  87.9442544  44.4377267 101.9554037  87.5159357
  39.6582422 105.3053537  94.8224460  39.5127002 105.6193840  95.7148742
  39.1807625 105.9238437  94.2695359  41.5178805 102.2956085  94.8705350
  41.5040373 101.3997178  94.5337648  42.2351233 102.3026749  95.5043636
  40.9215700 101.1770465  90.1392920  41.0431612 100.2487111  90.3383807
  40.6317743 101.1909151  89.2271235  43.7906891  98.8625376  93.2759640
  43.8128588  98.9264709  92.3211619  44.2074950  98.0229884  93.4700146
  36.9194040 104.5218133  86.7356037  36.2263285 104.5962488  86.0796073
  36.6745792 103.7578477  87.2577554  45.5907696  96.0813734  94.1395528
  45.8709450  95.4136923  94.7655955  46.3758303  96.2742830  93.6270192
  43.7787963 106.5933541  83.0436607  44.7247068 106.4639749  83.1125025
  43.4002208 105.8548203  83.5206035  49.7509848  98.2589547  93.0063499
  49.5534669  97.9504635  93.8906831  50.3609554  98.9851186  93.1361429
  41.9630881 104.5183517  82.9791492  41.0562336 104.2216630  83.0554206
  42.2406862 104.2213335  82.1125778  43.5792946  99.0620407  89.1335733
  42.7693675  98.7167492  89.5090979  44.2677363  98.7527951  89.7223345
  45.5083495  98.1398454  90.7560030  46.0614533  98.5593907  91.4150053
  45.7453581  97.2134202  90.7982986  40.7329665 101.3770453  83.1203471
  41.5948829 101.7025351  83.3799289  40.9180009 100.5901948  82.6076537
  48.8862302 100.2498979  90.2638694  48.3060971 100.9083783  89.8816747
  48.6198234  99.4276324  89.8526112  47.3365868  99.6504037  92.4660015
  47.8365646  99.7620571  91.6574333  47.9801476  99.3465090  93.1060823
  47.6687180 102.4099069  89.3195043  46.7813035 102.6948720  89.1015237
  48.0841169 102.2492833  88.4722319  51.0201716 102.4345590  93.0349382
  51.7962106 102.9242043  93.3073999  50.2949850 102.8603645  93.4921251
  47.6428203 107.9253605  89.5345333  47.5863405 108.3822157  88.6952965
  48.1956546 107.1644290  89.3568175  51.4533009 103.7143337  90.3595452
  51.1969944 103.3139973  91.1903660  50.8285877 104.4287131  90.2345591
  41.6859108  98.6166496  86.4083180  41.6737778  99.5608336  86.5651451
  42.5782530  98.4336641  86.1142641  45.5011228  95.2109272  90.6629117
  44.7343623  94.6567759  90.8085799  45.9121933  95.2831141  91.5243269
   1.4008675  28.9632331  73.5214887   0.7496655  29.5486411  73.1348900
   2.1953038  29.4938526  73.5809924   2.7073863  21.2149912  79.3595214
   3.4936952  20.7969336  79.0085631   2.9712567  22.1196005  79.5276862
   2.8783940  26.6522763  74.0583871   2.2429773  26.7257389  74.7704775
   2.5481347  27.2416362  73.3802950   8.1082290  21.1525146  80.2628193
   8.8407462  20.5824362  80.4966022   7.3521646  20.7646746  80.7034698
   5.0438184  21.5321418  74.2679884   5.9556040  21.7648804  74.0927582
   4.5347831  22.1158462  73.7054963   3.6507766  26.5147236  81.6593466
   3.0216629  26.6792950  80.9569534   3.2633428  26.9288846  82.4304430
   7.5296998  27.4501674  79.0137830   6.8448036  27.8300575  78.4634863
   7.6140847  28.0597000  79.7469777   5.8993758  27.9733588  83.7855530
   6.7211201  27.5713776  83.5038212   5.8956160  27.8701822  84.7371646
  13.9899751  24.3172337  80.1340502  13.2363459  23.7479735  79.9784506
  14.1247292  24.2835001  81.0811137   2.6941125  22.7024912  72.8466550
   2.1787748  23.4729517  73.0854937   2.4218433  22.0290048  73.4699611
   7.6675399  25.4557267  74.7819723   6.8904842  25.1168426  74.3374885
   8.3466880  25.4609890  74.1074688   2.4827428  20.5752004  74.6726331
   2.1777564  20.8898153  75.5236474   3.4357870  20.6533424  74.7153664
   5.9066706  24.9291248  81.4386331   5.2490380  25.6190509  81.5266460
   6.7107105  25.3187680  81.7820318   4.7172165  23.2835621  79.4890273
   5.2304047  23.9165612  79.9911983   5.3673389  22.6836816  79.1233633
   1.9794539  33.2619945  72.2450944   1.3056238  33.5651642  72.8535902
   2.3660361  34.0649025  71.8956401   1.9788043  22.1576492  76.8651294
   2.7259862  22.6697889  76.5558416   2.2479633  21.8360545  77.7255687
   5.4833961  28.2641622  77.6169416   5.0296288  27.4232532  77.6734606
   4.8527928  28.9003020  77.9544196   4.4266881  19.1933608  78.8470083
   3.6889637  18.6810994  79.1780326   4.6793654  18.7533990  78.0353360
   3.9266900  30.1018119  78.5519234   4.2189875  30.6623176  77.8331599
   4.4365521  30.3946680  79.3072393   8.0663896  24.4700973  77.2442645
   7.9281795  24.6602569  76.3163834   7.7100115  25.2320356  77.7010696
   8.0933276  26.5377500  82.2553917   8.5269782  26.4452789  83.1036971
   8.8064857  26.5135001  81.6173933   1.8261171  30.1379594  83.7887017
   1.8798193  30.7070531  84.5564733   0.9575952  30.3081479  83.4241054
   1.1342817  27.7072124  80.5061325   0.7992650  27.6672894  81.4018975
   0.6346763  27.0416839  80.0331735   4.0702009  25.0528158  70.7798384
   3.4531180  24.3274986  70.6831437   3.6018497  25.8137518  70.4365459
  10.2090889  23.1374868  81.4334706  10.1980765  24.0199583  81.0628639
   9.3408268  22.7846418  81.2389243   1.7173385  32.2854937  85.7937546
   2.4301357  32.9202401  85.7213448   1.2263414  32.3818803  84.9777548
   3.4390912  26.1906189  77.3654838   2.5047191  26.3107652  77.1959542
   3.6167580  25.2878656  77.1014848   6.8263463  22.0323509  77.9004872
   7.2923915  22.8651500  77.8265175   7.2770964  21.5668490  78.6050130
   4.8939694  28.3767330  74.8991024   5.1699538  28.2623924  75.8084898
   4.0244193  27.9784815  74.8603197   1.5293758  32.6253681  78.5423838
   1.7116153  31.8075337  79.0051590   2.3526744  32.8421373  78.1048728
   1.8635924  31.5521866  75.8038886   2.3923690  31.0414320  75.1909048
   2.1264143  31.2364396  76.6684419   2.4965328  32.5862702  82.1483003
   2.3716467  31.7852441  81.6393948   3.1544419  33.0808895  81.6596973
   4.5600236  30.3871722  83.7762553   3.6130571  30.2677073  83.7040879
   4.9083009  29.4994220  83.8588814   1.5646669  30.1824438  79.9766905
   1.4171632  29.2541145  80.1574475   2.3900163  30.2044529  79.4923980
   5.1680791  31.0052997  81.0631778   6.0927339  30.7995858  80.9256229
   4.9996094  30.7569398  81.9721119   1.5608184  18.0362275  74.9699022
   1.7771798  18.9186913  74.6687850   1.0802251  17.6448489  74.2404664
   4.9576107  31.5238664  76.4193869   5.1312985  30.9585086  75.6667722
   5.4504999  32.3239559  76.2373359  10.8115498  24.2875087  78.0384169
  11.2546645  23.5382412  77.6403292   9.9342009  24.2785223  77.6557901
   5.9451280  30.8405428  73.5190767   6.6402184  31.4612121  73.7378082
   6.2874430  29.9900780  73.7943145   7.8442703  28.2905134  75.0478098
   8.3694027  28.6292407  74.3227418   7.7565055  27.3552149  74.8641233
  10.3548363  25.7580325  80.4306616  11.1895255  26.1970129  80.5944177
  10.4907492  25.2818978  79.6114862   3.2563408  31.2304330  73.5574443
   4.1894081  31.1649892  73.7607319   3.1686621  32.0660597  73.0988976
   5.8851425  30.5470201  70.5178391   5.8065056  30.2130064  71.4114149
   6.7061091  31.0391968  70.5169863  14.4006166  24.4747947  82.8660746
  15.1309554  24.2133235  83.4268450  13.7913111  23.7376669  82.9062814
  12.4821463  22.6155809  83.4635197  11.7554626  22.4811774  82.8551689
  12.0668750  22.9232638  84.2691915   5.5287285  15.9393431  76.9884001
   4.9485954  16.5978235  76.6062053   5.2623218  15.1170776  76.5771418
   4.3112163  18.0993521  76.0440349   3.4238018  18.3843172  75.8260544
   4.7266152  17.9387285  75.1967626   7.6626699  18.1240042  79.7594688
   8.4387089  18.6136495  80.0319305   6.9374833  18.5498096  80.2166558
  10.0999258  18.8367661  80.8168629  10.6943749  18.5963397  80.1061937
  10.1725841  18.1174792  81.4442165   3.4555376  27.8638196  70.1388369
   4.1591227  28.0688198  70.7546025   2.7318025  28.4314958  70.4037453
   4.2853187  23.6148057  76.2590639   4.2288388  24.0716609  75.4198272
   4.8381529  22.8538742  76.0813482   8.0957993  19.4037789  77.0840759
   7.8394927  19.0034425  77.9148967   7.4710861  20.1181583  76.9590898
  12.4070331  22.1433862  79.5912050  11.8469889  22.2127052  80.3643612
  11.8013834  21.9674847  78.8711546   5.3642074  28.3020725  72.1886829
   6.1987678  27.8701924  72.0064304   5.2026417  28.1302739  73.1163724
   5.0187966  24.8052838  73.5543169   4.9636770  24.6397110  72.6131613
   4.3934021  25.5128871  73.7105358  10.8016055  38.7717804  82.2203531
  10.4634567  38.6558869  81.3324066  11.6705823  38.3708969  82.2004537
   6.6602871  40.6253281  78.2100422   6.0967736  40.5343218  77.4416709
   6.5455266  39.8053185  78.6902914  11.2835838  39.9252656  88.1789736
  11.2724479  39.5305454  87.3070240  11.4456478  39.1918729  88.7723508
   4.2067303  42.1204472  81.0484642   4.9988595  41.7795297  80.6330941
   4.4463953  42.2299447  81.9686795  12.2402430  44.2924248  73.5214887
  11.5890409  44.8778329  73.1348900  13.0346792  44.8230443  73.5809924
   6.1658057  41.3813386  73.9202021   6.9388933  40.8342373  73.7814897
   6.5183456  42.2457635  74.1316482   8.0043099  42.7089768  87.1268920
   7.7132965  43.6135399  87.0115586   8.6400084  42.7506296  87.8412990
   8.9299306  40.0866616  83.7170280   9.5262878  39.8622639  83.0027243
   8.9874278  39.3451362  84.3195728   8.5024335  37.5406052  71.5520471
   8.7549855  37.0187573  70.7903934   7.5648894  37.3772197  71.6547154
  13.5467617  36.5441830  79.3595214  14.3330707  36.1261253  79.0085631
  13.8106322  37.4487922  79.5276862  18.9476045  36.4817063  80.2628193
  19.6801217  35.9116280  80.4966022  18.1915400  36.0938664  80.7034698
   8.2220623  39.4434158  73.7544846   8.1056881  38.7679061  74.4225930
   8.3322883  38.9566532  72.9376999  10.5652164  38.9044305  77.4591535
  10.2010372  38.3774926  78.1704456  11.4219280  38.5142774  77.2858020
  16.4701465  30.1938637  84.7222801  16.1384790  31.0634048  84.4984016
  15.8747078  29.8774921  85.4016831  10.2057651  33.9334205  72.4552883
  10.3732054  34.8014441  72.8223355  10.0154820  34.0961486  71.5314173
   6.4145466  38.8464980  80.1555418   5.4895962  38.7141194  80.3633110
   6.6629879  39.6259200  80.6525361  16.3630128  34.9133724  81.8016151
  15.4547006  34.8449132  81.5074912  16.3117724  35.3905669  82.6297977
  10.1846872  36.3891862  73.4399550  10.0646497  36.8348913  74.2785031
   9.4899461  36.7377180  72.8813088   3.7754277  38.4898254  80.9899207
   3.9046658  38.7432733  81.9038619   3.0951728  39.0825962  80.6703862
   7.9453764  49.1595504  77.0889682   7.8677794  50.1103329  77.1678162
   7.3415408  48.8141376  77.7464608  10.4370994  36.3323369  89.7451048
   9.6604328  36.8917289  89.7353913  11.0761557  36.8180152  90.2665919
  18.2291775  33.1150162  83.5794025  17.5866155  33.4082695  82.9333820
  17.7246703  33.0003082  84.3847222  15.8831938  36.8613335  74.2679884
  16.7949794  37.0940722  74.0927582  15.3741585  37.4450379  73.7054963
   8.6917366  39.1408823  89.3069015   9.4332051  39.6793867  89.0303839
   7.9854352  39.7675111  89.4640567  14.1672706  41.2837963  87.9041177
  14.5756062  40.8420374  87.1595809  13.4449967  40.7090591  88.1575370
  10.5203776  36.2210570  85.2774734  11.3664971  36.6449983  85.4209383
  10.4602414  35.5644194  85.9713297  13.6703221  33.8814938  86.9355908
  13.4264153  34.6356999  86.3990183  13.9463152  34.2600286  87.7703155
  15.6241684  40.4253551  85.6133173  15.8358579  41.0685310  84.9367554
  15.5771432  39.5915867  85.1455103  13.2267913  33.0371371  82.5169745
  12.3652392  33.3352625  82.8086483  13.2530348  33.2541770  81.5850778
   6.9353564  41.1285043  81.8623314   7.5054921  41.5572312  81.2240799
   7.5261675  40.8467628  82.5607500   8.9798369  37.7036714  75.7333116
   9.6822412  38.1557758  76.2007042   8.6478997  37.0620533  76.3613009
   7.4278730  36.2948471  90.1084325   6.7977391  36.9764752  90.3419722
   7.3214818  36.1831552  89.1637464   2.7223703  35.9620267  81.0350250
   1.9322757  36.2177795  80.5590360   3.2134950  36.7768605  81.1402290
   4.6738448  36.3264846  77.9933726   3.8769611  36.4383540  78.5117222
   4.4464040  36.6651498  77.1274617  10.5044116  42.8509549  85.9416241
  10.5688548  43.3129956  86.7774413   9.7955039  42.2206914  86.0698551
   1.0061406  36.2150757  83.4665240   1.2569444  37.0997767  83.7322816
   1.5420954  36.0355359  82.6940332  10.2192133  44.5177657  75.8095221
  10.0837808  45.3629192  76.2380069  10.7601946  44.7196934  75.0461155
   3.6721531  42.0353095  76.3823146   4.1846051  42.8296345  76.5328711
   4.3244243  41.3379385  76.3156748   5.4816415  45.1518851  78.4645900
   5.6583044  46.0736816  78.2766883   6.2773249  44.8377270  78.8940279
   4.7668772  37.1983483  88.3408063   4.6522287  36.2968740  88.6415162
   3.9113290  37.4447180  87.9892879  11.8460610  45.1401223  89.9395563
  11.4024464  44.3537602  89.6216468  12.5077823  45.3280374  89.2739454
   6.6047731  46.6697025  84.4656242   7.1555156  46.5414088  83.6933236
   5.7659207  46.9691914  84.1151135  13.9441848  45.4204023  87.9676965
  13.9260323  46.2412904  87.4757234  14.8661768  45.2958098  88.1927106
  10.4014902  42.9348153  88.8100473  10.9343239  42.1736441  88.5799781
   9.8728983  42.6421804  89.5524627  13.5684597  28.0408219  84.3394115
  13.2248866  28.9309860  84.2633225  13.9363559  27.8509876  83.4763700
   1.6370447  40.3641749  77.1582717   2.4745669  40.7738757  76.9416425
   1.8148715  39.4241191  77.1282911  13.5334879  38.0316830  72.8466550
  13.0181503  38.8021434  73.0854937  13.2612188  37.3581966  73.4699611
  11.1181991  32.8766530  77.9051788  10.2623587  32.4873381  77.7257427
  11.5308942  32.9558491  77.0451574  12.6481137  30.4112874  82.3043348
  12.1445933  30.3743009  81.4911153  12.9411744  31.3205616  82.3640005
   8.8924023  30.4951603  81.3109530   9.7577020  30.2994412  80.9515419
   8.9601532  30.2661955  82.2378886  13.3221183  35.9043922  74.6726331
  13.0171318  36.2190071  75.5236474  14.2751625  35.9825342  74.7153664
   6.4986342  32.7253811  78.6825897   7.0730094  32.5028993  77.9499089
   7.0857325  32.7942506  79.4354498   6.8255929  34.7558272  72.7021782
   5.9893241  35.0932959  73.0231057   6.6860699  34.6207252  71.7648919
   8.8009010  29.5995060  77.4100966   8.1473422  29.2844077  76.7857581
   8.7589484  28.9770801  78.1360789   9.9120215  39.8814355  69.3254258
   9.0047276  39.6503609  69.5245407  10.4091247  39.0851975  69.5128240
  12.8188294  48.5911863  72.2450944  12.1449992  48.8943559  72.8535902
  13.2054116  49.3940943  71.8956401  12.0346750  36.0876994  81.7348614
  11.1169312  36.3091941  81.5770302  12.4506894  36.1623304  80.8760321
  11.0908448  39.9826950  73.8478248  10.1819667  39.6985983  73.9450718
  11.1203532  40.4026029  72.9881555  15.2660635  34.5225526  78.8470083
  14.5283392  34.0102912  79.1780326  15.5187409  34.0825907  78.0353360
  15.3672262  27.3001778  79.4411852  15.6731139  26.4399141  79.1537767
  16.0924867  27.8919398  79.2410846   1.6596618  37.7032464  77.8293450
   1.4621018  37.1101825  77.1044517   1.1043282  37.3984675  78.5469389
   9.6393342  37.5955571  79.9488043   9.6941952  36.6429407  79.8730520
   8.8284544  37.7515010  80.4329342  10.7884536  41.5235694  71.1866327
  10.3503966  40.8071553  70.7271964  11.5294977  41.7511809  70.6251418
   7.5785702  36.2132631  77.7078422   6.7653568  36.5126801  78.1143614
   8.0744696  35.8188319  78.4252905   9.7294280  46.2090388  79.6412687
   9.6870459  46.4351234  78.7121219  10.6456979  45.9753762  79.7898488
  13.1759914  36.6774455  86.5393316  13.5309301  36.9045928  87.3987782
  13.8232045  37.0092832  85.9170572   7.0699777  33.7850986  83.3239657
   7.7099156  33.6439745  82.6262621   6.2377307  33.4985500  82.9478259
   7.8460081  43.0853417  79.4374650   8.6400679  42.5903737  79.2357225
   7.1351773  42.5571280  79.0742355  12.6654925  45.4671512  83.7887017
  12.7191947  46.0362448  84.5564733  11.7969707  45.6373397  83.4241054
   4.1542844  37.2296498  75.5134402   3.2240432  37.1680954  75.7304365
   4.2500316  36.7072451  74.7171044   4.0728393  33.7551311  78.1012644
   4.3335211  34.6696644  77.9921805   4.8945566  33.2875754  78.2509257
   5.5453319  35.1689068  85.2711469   6.2176372  34.9606430  84.6224118
   4.7183105  34.9711154  84.8316701  11.4478891  31.7951009  87.2877130
  10.8006806  32.4940959  87.1941606  12.2179906  32.2287153  87.6553378
  14.8557689  42.0599861  90.3627683  14.7043195  41.8310413  89.4457766
  14.8462368  43.0170463  90.3759028  11.6243025  39.6331774  85.3473949
  12.5535085  39.7842934  85.1742917  11.2034055  39.7215795  84.4922596
  11.0179509  48.7591535  74.4598023  11.1931264  48.2879578  75.2743646
  10.3312297  49.3857301  74.6879284   5.9480816  38.4431671  86.0313906
   5.8100614  37.7111910  86.6325445   6.8585739  38.3540571  85.7498094
  14.9095764  40.3820076  70.7798384  14.2924934  39.6566904  70.6831437
  14.4412252  41.1429436  70.4365459   8.5763117  38.1551631  85.5197585
   9.2862735  37.5144823  85.4784204   8.5332425  38.4064525  86.4423766
  16.5649895  45.0918984  88.4404165  16.5062441  44.4078204  87.7734748
  16.9669414  45.8337974  87.9884791   7.2892050  35.1416848  87.3393225
   6.7529408  34.6907587  87.9914821   6.7008759  35.2762757  86.5963689
   5.5840594  51.9080898  81.2337884   5.8237192  52.5399422  81.9116902
   4.7409790  51.5568938  81.5203243   6.6994309  34.6005500  69.9019689
   5.8223776  34.4794301  69.5381935   7.1752063  33.8091578  69.6498577
  16.5667302  43.0558568  86.6718144  15.6794081  42.7184490  86.7944543
  17.1365854  42.3241599  86.9086910   3.0231172  34.2772856  84.4246219
   2.9389360  33.6698526  83.6896629   2.2013878  34.7681874  84.4255716
  10.0968456  47.7160020  83.6379388  10.0238627  48.5214992  84.1498692
   9.6545849  47.9151986  82.8127409   9.8858235  46.9531790  77.1482209
   9.1025757  47.4953470  77.2420434  10.5850981  47.4705770  77.5476450
  13.1954886  32.7626420  79.7916414  13.6923585  32.0096382  79.4717485
  12.4241867  32.7990736  79.2259624  12.5567139  47.6146854  85.7937546
  13.2695112  48.2494319  85.7213448  12.0657168  47.7110720  84.9777548
   9.7789854  34.9043803  79.5188099   9.4087642  34.3514843  80.2069005
  10.2748947  34.3001936  78.9663099  17.6657218  37.3615426  77.9004872
  18.1317670  38.1943418  77.8265175  18.1164718  36.8960408  78.6050130
   7.6079053  45.3641298  86.6143117   8.3088512  45.9977781  86.7672511
   7.1374168  45.7056029  85.8538756  15.6373880  29.7296013  81.9395773
  14.7236960  29.9600240  82.1077980  16.0666982  29.8134457  82.7909806
  15.4080339  37.9185905  84.4395667  14.7551789  38.1661813  83.7848120
  15.7860719  37.1050043  84.1058145  11.4567912  38.6605716  90.9261704
  10.7808549  38.5599846  91.5964080  12.2795546  38.5044930  91.3897702
   3.2046771  44.8977653  83.5474220   3.7900208  44.1521341  83.6802124
   3.0071609  45.2081609  84.4310884   6.0585426  47.9328900  78.5636662
   5.3895801  48.4175028  78.0800702   5.9198296  48.1798121  79.4780041
  10.1990695  49.9672644  85.1619320  10.7509003  50.1304265  85.9268406
  10.5396888  50.5577081  84.4899345   5.1755188  32.3147793  85.7641205
   5.2396514  33.1762624  85.3518603   5.1122308  31.7021795  85.0313564
  15.0501569  44.7933901  91.0167975  15.5941473  45.4063859  90.5222930
  14.4688414  45.3513480  91.5334988   1.4273003  36.1947355  75.3432594
   1.7226444  35.2858034  75.2899648   0.5261039  36.1735095  75.0213597
   4.9567250  34.2703352  81.3260143   4.2353836  34.8839319  81.1867616
   5.7460506  34.8061117  81.2476789   7.7593564  31.6057778  87.6000795
   8.2827966  31.8520075  88.3627104   7.5405897  32.4377813  87.1803932
   3.1560845  33.8761453  75.4671919   2.8273551  32.9958832  75.2847025
   3.5100216  33.8209121  76.3548309   6.2702668  34.1634423  75.8347397
   6.6098741  34.6920344  75.1126005   6.7174788  34.5014829  76.6105964
   8.9646109  32.5471473  85.2850465   8.6242929  31.7479286  85.6871145
   8.2585115  32.8473184  84.7127298   9.6162581  29.6320786  83.7377788
  10.4388650  29.1581264  83.6156678   9.8600644  30.4111269  84.2376474
   8.2570815  32.6609044  74.0340690   8.9779178  33.0390297  73.5304407
   7.6336119  33.3797921  74.1375668  12.4001938  33.3654193  74.9699022
  12.6165552  34.2478831  74.6687850  11.9196005  32.9740407  74.2404664
   7.1401159  36.3239906  81.5469767   6.9945740  36.6380209  82.4394048
   6.6626363  36.9424807  80.9940665   8.9997542  33.3142454  81.5950656
   8.9859111  32.4183548  81.2582954   9.7169970  33.3213118  82.2288942
  10.8523673  33.7479795  83.6403784  10.5941451  34.6696865  83.6388114
  10.3208713  33.3510229  84.3304248   1.6146822  38.8645251  84.4857428
   1.0700290  39.6405059  84.6177702   2.4926171  39.2116055  84.3276549
   8.4034438  32.1956835  76.8638226   8.5250349  31.2673481  77.0629114
   8.1136481  32.2095521  75.9516542  11.2725629  29.8811745  80.0004946
  11.2947325  29.9451078  79.0456926  11.6893688  29.0416254  80.1945452
   2.4012843  37.9915147  87.3787585   1.6594579  38.1397782  87.9652215
   2.0805588  38.2523413  86.5154334  10.3456506  47.5331125  87.1767975
  10.6543633  47.2880272  88.0490674  11.1431988  47.7377764  86.6886845
  10.3677118  49.6869035  79.4073351   9.9282108  49.1945414  80.1006208
  11.1185235  49.1442003  79.1665427   2.8469457  45.8780576  79.4097979
   3.6727477  45.5784348  79.0296623   2.4963509  45.1088198  79.8587768
   7.8150990  45.2307044  81.4795653   7.1931000  44.5677749  81.1797881
   8.4855857  45.2568176  80.7969301  18.3730363  44.2529955  90.3529296
  17.5825907  44.2354094  89.8133796  18.1363718  44.7918249  91.1078333
  18.4928239  41.1022422  87.6662025  18.5426243  40.9372429  88.6077547
  18.3842162  40.2349681  87.2759905   7.3764497  43.7810967  74.9554114
   7.5252618  44.4646432  74.3020786   8.1830941  43.7616057  75.4703569
  15.7832001  37.0853350  88.9821331  16.6841864  36.9459815  88.6905329
  15.8579975  37.2507804  89.9219509  10.1174806  34.4620204  87.8274518
   9.2478116  34.7553770  87.5557106  10.3534287  35.0460649  88.5481781
  19.9946435  43.5219363  87.9104046  19.7031244  43.8849344  88.7467507
  19.3818567  42.8086371  87.7317378  18.2433624  38.6451978  86.3784104
  18.7187745  38.8379624  85.5702956  17.3199189  38.7011164  86.1327488
   5.1317130  39.8076145  75.9615182   4.8863172  38.9038475  76.1595393
   5.3013045  39.8093295  75.0194660  12.8213840  30.6799821  85.3439938
  13.3395784  31.4160848  85.0186427  12.4668973  30.9863815  86.1786697
   4.4012778  35.5404503  73.4601344   3.7082023  35.6148858  72.8041380
   4.1564530  34.7764846  73.9822861  13.0726434  27.1000104  80.8640835
  13.3528188  26.4323293  81.4901261  13.8577041  27.2929199  80.3515499
  10.8759903  46.2759098  72.4265861  10.3033870  46.8949285  71.9736333
  11.4492696  46.8258459  72.9605783  16.9435293  35.5217738  84.6112410
  17.8952715  35.6215836  84.6324634  16.7738743  34.7296006  85.1210494
  14.9649672  32.6073321  84.7971811  14.3699604  32.8878334  84.1018299
  14.6799369  33.0967222  85.5688552  14.0957163  46.5596248  73.5574443
  15.0287836  46.4941810  73.7607319  14.0080375  47.3952515  73.0988976
  16.7245179  45.8762118  70.5178391  16.6458811  45.5421982  71.4114149
  17.5454846  46.3683886  70.5169863  19.4223370  38.7423858  83.7254709
  19.3899690  37.8039858  83.9114393  20.0323994  38.8207894  82.9920534
  11.2606701  37.6119911  69.7681913  12.2065806  37.4826119  69.8370332
  10.8820946  36.8734572  70.2451342  19.5717859  35.5334901  83.7712993
  19.0556907  34.7493358  83.5842921  20.4557807  35.2053618  83.9359512
  17.2328586  29.2775917  79.7308805  17.0353407  28.9691005  80.6152137
  17.8428291  30.0037555  79.8606735  25.2399920  39.8039864  82.8660746
  25.9703309  39.5425153  83.4268450  24.6306866  39.0668586  82.9062814
  23.3215217  37.9447727  83.4635197  22.5948381  37.8103692  82.8551689
  22.9062504  38.2524556  84.2691915  11.1445394  41.6637657  91.2282570
  12.0648403  41.8416256  91.4222617  11.1094977  40.7193702  91.0762270
   9.4449618  35.5369887  69.7036799   8.5381074  35.2403000  69.7799512
   9.7225599  35.2399705  68.8371085   4.1407466  39.5738691  83.8705352
   4.3593476  40.5055799  83.8893385   4.5533240  39.2146666  84.6560155
  11.0611684  30.0806777  75.8581040  10.2512412  29.7353862  76.2336286
  11.7496101  29.7714320  76.4468652  12.9902232  29.1584823  77.4805337
  13.5433271  29.5780277  78.1395360  13.2272319  28.2320572  77.5228293
   8.2148403  32.3956822  69.8448778   9.0767567  32.7211720  70.1044595
   8.3998747  31.6088318  69.3321844  16.3681039  31.2685349  76.9884001
  15.7879709  31.9270153  76.6062053  16.1016972  30.4462693  76.5771418
  14.8184606  30.6690406  79.1905321  15.3184384  30.7806941  78.3819640
  15.4620214  30.3651459  79.8306130   8.8766602  38.5769036  92.0773162
   8.3933683  39.3769396  92.2837051   8.9627541  38.5876981  91.1240606
   2.1452561  40.4097416  79.9994982   2.1223249  40.5085103  79.0476865
   2.4553198  41.2562566  80.3212148   4.8039939  42.4673571  84.1141596
   5.7583193  42.4357513  84.0471528   4.6052463  42.0064194  84.9291822
   5.3939321  41.0374687  86.6812394   6.2132210  41.5318765  86.7047231
   5.6676129  40.1206655  86.6529961  15.1505918  33.4285439  76.0440349
  14.2631773  33.7135090  75.8260544  15.5659907  33.2679202  75.1967626
  18.5020454  33.4531960  79.7594688  19.2780844  33.9428412  80.0319305
  17.7768588  33.8790014  80.2166558  20.9393012  34.1659579  80.8168629
  21.5337503  33.9255315  80.1061937  21.0119596  33.4466710  81.4442165
   3.1590168  48.0093190  81.1311794   3.0244636  47.2493591  80.5649792
   2.7422230  48.7334090  80.6640583  14.2949131  43.1930114  70.1388369
  14.9984981  43.3980116  70.7546025  13.5711780  43.7606876  70.4037453
  18.9351747  34.7329707  77.0840759  18.6788681  34.3326342  77.9148967
  18.3104615  35.4473501  76.9590898   6.3159294  48.9062507  81.3430237
   6.1991678  49.8507940  81.2408927   5.4951740  48.6036069  81.7316036
  16.2035828  43.6312643  72.1886829  17.0381432  43.1993841  72.0064304
  16.0420171  43.4594657  73.1163724  13.1727628  42.4393668  92.8796731
  14.0418787  42.6134320  92.5183366  12.6934379  43.2588085  92.7572461
   9.1677846  29.6352865  73.1328487   9.1556516  30.5794705  73.2896758
  10.0601268  29.4523011  72.8387948   7.3413808  49.5590769  84.5586165
   8.2441055  49.5914379  84.8752660   7.1151178  48.6291220  84.5732501
   9.0967410  48.3121756  81.2196244   8.1463041  48.3123617  81.1060616
   9.3999896  47.5654490  80.7032278  12.9829965  26.2295642  77.3874424
  12.2162361  25.6754128  77.5331106  13.3940670  26.3017511  78.2488575
  24.8320103  54.1482294  82.2842006  25.4698513  54.0289041  81.5805346
  24.7140946  55.0963138  82.3429958  21.6409810  54.1009722  82.2203531
  21.3028321  53.9850787  81.3324066  22.5099578  53.7000887  82.2004537
  17.4996625  55.9545198  78.2100422  16.9361491  55.8635135  77.4416709
  17.3849020  55.1345103  78.6902914  22.1229593  55.2544574  88.1789736
  22.1118234  54.8597372  87.3070240  22.2850232  54.5210646  88.7723508
  15.0461057  57.4496390  81.0484642  15.8382349  57.1087215  80.6330941
  15.2857708  57.5591365  81.9686795  23.0796184  59.6216166  73.5214887
  22.4284164  60.2070247  73.1348900  23.8740547  60.1522361  73.5809924
  17.0051811  56.7105303  73.9202021  17.7782687  56.1634290  73.7814897
  17.3577210  57.5749553  74.1316482  18.8436854  58.0381686  87.1268920
  18.5526720  58.9427316  87.0115586  19.4793838  58.0798213  87.8412990
  19.7693061  55.4158534  83.7170280  20.3656633  55.1914557  83.0027243
  19.8268032  54.6743280  84.3195728  27.3095219  45.5230555  84.7222801
  26.9778544  46.3925966  84.4984016  26.7140833  45.2066839  85.4016831
  23.8026739  57.7243101  84.1218714  23.5027462  58.6268140  84.0134521
  23.4577798  57.4575284  84.9739867  17.2539220  54.1756898  80.1555418
  16.3289717  54.0433112  80.3633110  17.5023634  54.9551117  80.6525361
  14.6148031  53.8190171  80.9899207  14.7440413  54.0724650  81.9038619
  13.9345483  54.4117879  80.6703862  18.7847519  64.4887421  77.0889682
  18.7071548  65.4395247  77.1678162  18.1809162  64.1433294  77.7464608
  21.2764749  51.6615287  89.7451048  20.4998083  52.2209207  89.7353913
  21.9155312  52.1472070  90.2665919  29.0685529  48.4442080  83.5794025
  28.4259909  48.7374613  82.9333820  28.5640458  48.3295000  84.3847222
  19.5311121  54.4700740  89.3069015  20.2725805  55.0085784  89.0303839
  18.8248106  55.0967029  89.4640567  25.0066460  56.6129881  87.9041177
  25.4149817  56.1712291  87.1595809  24.2843722  56.0382508  88.1575370
  21.3597531  51.5502487  85.2774734  22.2058726  51.9741901  85.4209383
  21.2996168  50.8936112  85.9713297  25.3295275  57.1731071  81.6593466
  24.7004138  57.3376785  80.9569534  24.9420937  57.5872681  82.4304430
  24.5096976  49.2106856  86.9355908  24.2657908  49.9648916  86.3990183
  24.7856906  49.5892203  87.7703155  26.4635439  55.7545468  85.6133173
  26.6752334  56.3977228  84.9367554  26.4165187  54.9207785  85.1455103
  20.8823237  56.9105479  78.9243551  21.3461583  57.1893182  78.1348173
  20.6180035  56.0088924  78.7416642  17.7747318  56.4576961  81.8623314
  18.3448675  56.8864229  81.2240799  18.3655430  56.1759546  82.5607500
  18.2672485  51.6240388  90.1084325  17.6371145  52.3056669  90.3419722
  18.1608572  51.5123470  89.1637464  27.5781267  58.6317424  83.7855530
  28.3998710  58.2297611  83.5038212  27.5743669  58.5285658  84.7371646
  21.3437870  58.1801467  85.9416241  21.4082303  58.6421874  86.7774413
  20.6348794  57.5498832  86.0698551  11.8455160  51.5442675  83.4665240
  12.0963198  52.4289685  83.7322816  12.3814708  51.3647276  82.6940332
  21.0585888  59.8469574  75.8095221  20.9231562  60.6921110  76.2380069
  21.5995700  60.0488852  75.0461155  17.5453227  45.9261154  92.4709576
  17.1520173  45.3727353  93.1457221  18.3619368  46.2371733  92.8616094
  14.5115285  57.3645012  76.3823146  15.0239806  58.1588263  76.5328711
  15.1637998  56.6671303  76.3156748  16.3210170  60.4810769  78.4645900
  16.4976798  61.4028733  78.2766883  17.1167003  60.1669188  78.8940279
  20.4621188  47.3419033  90.0629833  21.2030902  47.9426186  89.9834296
  20.6939111  46.5996671  89.5047876  15.6062526  52.5275401  88.3408063
  15.4916041  51.6260658  88.6415162  14.7507044  52.7739097  87.9892879
  22.6854364  60.4693141  89.9395563  22.2418218  59.6829519  89.6216468
  23.3471578  60.6572291  89.2739454  17.4441485  61.9988943  84.4656242
  17.9948910  61.8706006  83.6933236  16.6052961  62.2983832  84.1151135
  24.7835602  60.7495941  87.9676965  24.7654077  61.5704822  87.4757234
  25.7055522  60.6250016  88.1927106  21.2408656  58.2640070  88.8100473
  21.7736993  57.5028359  88.5799781  20.7122737  57.9713722  89.5524627
  24.4078351  43.3700136  84.3394115  24.0642621  44.2601778  84.2633225
  24.7757314  43.1801794  83.4763700  12.4764202  55.6933667  77.1582717
  13.3139424  56.1030675  76.9416425  12.6542470  54.7533109  77.1282911
  22.6061369  57.3926063  76.3219285  22.0782731  56.6578822  76.0092522
  22.1048872  58.1700739  76.0759253  27.5854215  55.5875083  81.4386331
  26.9277889  56.2774345  81.5266460  28.3894614  55.9771515  81.7820318
  17.6649684  50.0850190  72.7021782  16.8286996  50.4224877  73.0231057
  17.5254453  49.9499170  71.7648919  23.6582048  63.9203780  72.2450944
  22.9843747  64.2235477  72.8535902  24.0447870  64.7232861  71.8956401
  25.6054409  60.7601954  78.5519234  25.8977384  61.3207011  77.8331599
  26.1153030  61.0530515  79.3072393  12.4990373  53.0324382  77.8293450
  12.3014773  52.4393743  77.1044517  11.9437037  52.7276592  78.5469389
  21.6278290  56.8527612  71.1866327  21.1897720  56.1363471  70.7271964
  22.3688731  57.0803726  70.6251418  20.5688034  61.5382305  79.6412687
  20.5264213  61.7643152  78.7121219  21.4850733  61.3045680  79.7898488
  24.0153668  52.0066373  86.5393316  24.3703056  52.2337846  87.3987782
  24.6625799  52.3384750  85.9170572  18.6853835  58.4145334  79.4374650
  19.4794434  57.9195654  79.2357225  17.9745528  57.8863197  79.0742355
  23.5048680  60.7963430  83.7887017  23.5585702  61.3654366  84.5564733
  22.6363461  60.9665315  83.4241054  14.9936599  52.5588416  75.5134402
  14.0634187  52.4972871  75.7304365  15.0894071  52.0364369  74.7171044
  16.3847073  50.4980986  85.2711469  17.0570127  50.2898348  84.6224118
  15.5576860  50.3003072  84.8316701  30.6336334  57.2385036  84.7886802
  30.8272224  58.1430847  85.0346077  30.5336953  56.7792455  85.6225387
  22.2872645  47.1242927  87.2877130  21.6400560  47.8232877  87.1941606
  23.0573660  47.5579071  87.6553378  25.6951443  57.3891779  90.3627683
  25.5436949  57.1602331  89.4457766  25.6856123  58.3462380  90.3759028
  22.4636779  54.9623692  85.3473949  23.3928839  55.1134851  85.1742917
  22.0427809  55.0507713  84.4922596  21.2625111  58.9874356  83.1172487
  21.1236197  58.6193141  83.9898425  20.4739707  59.5021996  82.9456445
  21.8573263  64.0883453  74.4598023  22.0325019  63.6171496  75.2743646
  21.1706051  64.7149219  74.6879284  22.8130326  58.3655959  80.5061325
  22.4780159  58.3256729  81.4018975  22.3134272  57.7000675  80.0331735
  16.7874570  53.7723589  86.0313906  16.6494368  53.0403828  86.6325445
  17.6979494  53.6832489  85.7498094  19.4156871  53.4843548  85.5197585
  20.1256490  52.8436740  85.4784204  19.3726179  53.7356443  86.4423766
  27.4043650  60.4210902  88.4404165  27.3456196  59.7370122  87.7734748
  27.8063168  61.1629892  87.9884791  18.1285805  50.4708766  87.3393225
  17.5923162  50.0199505  87.9914821  17.5402513  50.6054675  86.5963689
  16.4234348  67.2372815  81.2337884  16.6630947  67.8691340  81.9116902
  15.5803545  66.8860855  81.5203243  17.5388064  49.9297418  69.9019689
  16.6617530  49.8086218  69.5381935  18.0145817  49.1383496  69.6498577
  27.4061057  58.3850486  86.6718144  26.5187836  58.0476407  86.7944543
  27.9759608  57.6533517  86.9086910   9.0590204  54.7174577  79.9961196
   9.7461244  54.4036307  79.4082211   8.9038333  55.6215942  79.7228447
  20.9362210  63.0451938  83.6379388  20.8632382  63.8506909  84.1498692
  20.4939603  63.2443904  82.8127409  20.7251990  62.2823708  77.1482209
  19.9419512  62.8245388  77.2420434  21.4244735  62.7997688  77.5476450
  31.8878397  53.7958703  81.4334706  31.8768274  54.6783418  81.0628639
  31.0195777  53.4430254  81.2389243  23.3960894  62.9438772  85.7937546
  24.1088866  63.5786237  85.7213448  22.9050923  63.0402638  84.9777548
  18.4472807  60.6933215  86.6143117  19.1482267  61.3269698  86.7672511
  17.9767922  61.0347947  85.8538756  26.2474093  53.2477823  84.4395667
  25.5945544  53.4953730  83.7848120  26.6254473  52.4341961  84.1058145
  23.2081267  63.2837516  78.5423838  23.3903662  62.4659172  79.0051590
  24.0314253  63.5005208  78.1048728  23.5423433  62.2105701  75.8038886
  24.0711199  61.6998156  75.1909048  23.8051652  61.8948231  76.6684419
  22.2961666  53.9897634  90.9261704  21.6202303  53.8891763  91.5964080
  23.1189300  53.8336848  91.3897702  14.0440525  60.2269570  83.5474220
  14.6293962  59.4813258  83.6802124  13.8465364  60.5373527  84.4310884
  16.8979181  63.2620818  78.5636662  16.2289556  63.7466945  78.0800702
  16.7592050  63.5090038  79.4780041   8.6358180  52.7975171  82.2678663
   8.6742280  52.2638761  83.0615781   8.1298473  52.2710376  81.6489640
  21.0384449  65.2964561  85.1619320  21.5902757  65.4596183  85.9268406
  21.3790643  65.8868999  84.4899345  16.0148942  47.6439711  85.7641205
  16.0790269  48.5054542  85.3518603  15.9516063  47.0313713  85.0313564
  15.4901215  49.7162844  89.4114239  16.1173254  49.3339921  90.0251764
  14.6329134  49.4977046  89.7769932  25.8895324  60.1225819  91.0167975
  26.4335228  60.7355777  90.5222930  25.3082168  60.6805397  91.5334988
  12.2666758  51.5239273  75.3432594  12.5620199  50.6149951  75.2899648
  11.3654794  51.5027012  75.0213597  24.1752837  63.2446537  82.1483003
  24.0503976  62.4436277  81.6393948  24.8331928  63.7392730  81.6596973
  26.2387745  61.0455557  83.7762553  25.2918080  60.9260908  83.7040879
  26.5870518  60.1578055  83.8588814  18.5987318  46.9349696  87.6000795
  19.1221720  47.1811992  88.3627104  18.3799652  47.7669731  87.1803932
  13.9954599  49.2053370  75.4671919  13.6667306  48.3250749  75.2847025
  14.3493970  49.1501039  76.3548309  23.2434178  60.8408273  79.9766905
  23.0959141  59.9124981  80.1574475  24.0687672  60.8628364  79.4923980
  26.8468300  61.6636832  81.0631778  27.7714848  61.4579693  80.9256229
  26.6783603  61.4153233  81.9721119  12.4540576  54.1937168  84.4857428
  11.9094044  54.9696976  84.6177702  13.3319926  54.5407973  84.3276549
  13.2406598  53.3207065  87.3787585  12.4988334  53.4689700  87.9652215
  12.9199342  53.5815330  86.5154334  21.1850261  62.8623043  87.1767975
  21.4937387  62.6172190  88.0490674  21.9825743  63.0669681  86.6886845
  21.2070873  65.0160953  79.4073351  20.7675863  64.5237331  80.1006208
  21.9578990  64.4733920  79.1665427  13.6863212  61.2072493  79.4097979
  14.5121232  60.9076265  79.0296623  13.3357264  60.4380116  79.8587768
  18.6544745  60.5598962  81.4795653  18.0324754  59.8969667  81.1797881
  19.3249612  60.5860094  80.7969301  11.8871817  59.1258820  80.3686913
  11.0503725  58.6980994  80.1870914  11.8595462  59.3191263  81.3057704
  18.7269272  49.0380750  91.0728159  18.7757428  49.9142872  90.6905929
  19.2691786  48.4958143  90.4999802  29.2124118  59.5821873  90.3529296
  28.4219662  59.5646012  89.8133796  28.9757473  60.1210167  91.1078333
  29.3321993  56.4314339  87.6662025  29.3819998  56.2664347  88.6077547
  29.2235916  55.5641598  87.2759905  18.2158252  59.1102885  74.9554114
  18.3646372  59.7938349  74.3020786  19.0224695  59.0907975  75.4703569
  26.6225755  52.4145267  88.9821331  27.5235618  52.2751732  88.6905329
  26.6973730  52.5799722  89.9219509  20.9568561  49.7912122  87.8274518
  20.0871870  50.0845688  87.5557106  21.1928041  50.3752567  88.5481781
  30.8340190  58.8511281  87.9104046  30.5424998  59.2141261  88.7467507
  30.2212321  58.1378289  87.7317378  29.0827378  53.9743895  86.3784104
  29.5581500  54.1671542  85.5702956  28.1592943  54.0303081  86.1327488
  15.9710885  55.1368063  75.9615182  15.7256927  54.2330393  76.1595393
  16.1406799  55.1385213  75.0194660  23.6607595  46.0091739  85.3439938
  24.1789538  46.7452766  85.0186427  23.3062727  46.3155732  86.1786697
  15.2406532  50.8696420  73.4601344  14.5475777  50.9440775  72.8041380
  14.9958284  50.1056764  73.9822861  21.7153657  61.6051015  72.4265861
  21.1427624  62.2241203  71.9736333  22.2886451  62.1550377  72.9605783
  27.7829047  50.8509656  84.6112410  28.7346470  50.9507753  84.6324634
  27.6132497  50.0587924  85.1210494  25.8043427  47.9365239  84.7971811
  25.2093359  48.2170251  84.1018299  25.5193123  48.4259140  85.5688552
  24.9350917  61.8888166  73.5574443  25.8681590  61.8233727  73.7607319
  24.8474130  62.7244432  73.0988976  30.2617125  54.0715775  83.7254709
  30.2293445  53.1331776  83.9114393  30.8717749  54.1499812  82.9920534
  30.4111613  50.8626819  83.7712993  29.8950662  50.0785275  83.5842921
  31.2951562  50.5345535  83.9359512  36.0793675  55.1331782  82.8660746
  36.8097063  54.8717070  83.4268450  35.4700620  54.3960504  82.9062814
  21.9839148  56.9929574  91.2282570  22.9042158  57.1708173  91.4222617
  21.9488731  56.0485620  91.0762270  11.2021313  52.1868168  80.1535845
  10.8824098  51.3333476  79.8610219  10.6554741  52.4016746  80.9093812
  14.9801221  54.9030609  83.8705352  15.1987231  55.8347717  83.8893385
  15.3926995  54.5438583  84.6560155  19.8529086  50.4763815  93.2608101
  19.7525813  51.4258172  93.1920192  19.6350628  50.1482054  92.3884171
  19.0542158  47.7248740  69.8448778  19.9161321  48.0503638  70.1044595
  19.2392502  46.9380236  69.3321844  11.0709573  55.8071079  82.1228967
  10.3773045  55.3925032  81.6098921  11.8182564  55.8491616  81.5262386
  19.7160356  53.9060954  92.0773162  19.2327438  54.7061314  92.2837051
  19.8021295  53.9168898  91.1240606  12.9846316  55.7389333  79.9994982
  12.9617004  55.8377021  79.0476865  13.2946952  56.5854484  80.3212148
  15.6433694  57.7965488  84.1141596  16.5976947  57.7649431  84.0471528
  15.4446217  57.3356112  84.9291822  16.2333076  56.3666604  86.6812394
  17.0525965  56.8610683  86.7047231  16.5069883  55.4498572  86.6529961
  13.9983922  63.3385108  81.1311794  13.8638390  62.5785509  80.5649792
  13.5815985  64.0626008  80.6640583  25.1342885  58.5222031  70.1388369
  25.8378736  58.7272034  70.7546025  24.4105534  59.0898793  70.4037453
  17.1553048  64.2354425  81.3430237  17.0385432  65.1799857  81.2408927
  16.3345495  63.9327986  81.7316036  11.4867990  50.7004738  87.3804591
  12.1326854  50.1903692  87.8691816  11.2785141  51.4373420  87.9548016
  24.0121382  57.7685586  92.8796731  24.8812542  57.9426238  92.5183366
  23.5328134  58.5880003  92.7572461  18.1807562  64.8882687  84.5586165
  19.0834809  64.9206297  84.8752660  17.9544933  63.9583138  84.5732501
  19.9361164  63.6413673  81.2196244  18.9856795  63.6415535  81.1060616
  20.2393651  62.8946408  80.7032278  15.8265481  47.8472355  91.4779605
  16.6896943  47.4909160  91.6882930  15.2530892  47.5086250  92.1655009
  35.6713858  69.4774212  82.2842006  36.3092268  69.3580959  81.5805346
  35.5534701  70.4255056  82.3429958  32.4803564  69.4301640  82.2203531
  32.1422076  69.3142704  81.3324066  33.3493332  69.0292805  82.2004537
  28.3390380  71.2837116  78.2100422  27.7755245  71.1927053  77.4416709
  28.2242775  70.4637021  78.6902914  32.9623347  70.5836491  88.1789736
  32.9511988  70.1889290  87.3070240  33.1243987  69.8502564  88.7723508
  25.8854812  72.7788308  81.0484642  26.6776104  72.4379132  80.6330941
  26.1251462  72.8883283  81.9686795  27.8445566  72.0397221  73.9202021
  28.6176442  71.4926208  73.7814897  28.1970965  72.9041470  74.1316482
  29.6830608  73.3673603  87.1268920  29.3920474  74.2719234  87.0115586
  30.3187593  73.4090131  87.8412990  30.6086815  70.7450452  83.7170280
  31.2050387  70.5206474  83.0027243  30.6661787  70.0035197  84.3195728
  30.1811844  68.1989887  71.5520471  30.4337364  67.6771408  70.7903934
  29.2436403  68.0356033  71.6547154  29.9008132  70.1017993  73.7544846
  29.7844390  69.4262896  74.4225930  30.0110392  69.6150367  72.9376999
  32.2439673  69.5628140  77.4591535  31.8797881  69.0358761  78.1704456
  33.1006789  69.1726609  77.2858020  34.6420493  73.0535019  84.1218714
  34.3421217  73.9560058  84.0134521  34.2971553  72.7867202  84.9739867
  28.0932975  69.5048816  80.1555418  27.1683471  69.3725030  80.3633110
  28.3417388  70.2843035  80.6525361  31.8634381  67.0475697  73.4399550
  31.7434006  67.4932748  74.2785031  31.1686970  67.3961015  72.8813088
  25.4541786  69.1482089  80.9899207  25.5834167  69.4016568  81.9038619
  24.7739237  69.7409797  80.6703862  29.6241273  79.8179339  77.0889682
  29.5465303  80.7687164  77.1678162  29.0202917  79.4725212  77.7464608
  32.1158503  66.9907205  89.7451048  31.3391837  67.5501125  89.7353913
  32.7549066  67.4763988  90.2665919  37.5619447  67.5197171  74.2679884
  38.4737303  67.7524557  74.0927582  37.0529094  68.1034215  73.7054963
  30.3704875  69.7992658  89.3069015  31.1119560  70.3377702  89.0303839
  29.6641861  70.4258947  89.4640567  35.8460215  71.9421798  87.9041177
  36.2543571  71.5004209  87.1595809  35.1237476  71.3674426  88.1575370
  32.1991285  66.8794405  85.2774734  33.0452480  67.3033819  85.4209383
  32.1389923  66.2228029  85.9713297  36.1689030  72.5022989  81.6593466
  35.5397892  72.6668703  80.9569534  35.7814692  72.9164599  82.4304430
  40.0478262  73.4377427  79.0137830  39.3629300  73.8176328  78.4634863
  40.1322111  74.0472754  79.7469777  35.3490730  64.5398774  86.9355908
  35.1051662  65.2940834  86.3990183  35.6250661  64.9184121  87.7703155
  37.3029193  71.0837386  85.6133173  37.5146088  71.7269146  84.9367554
  37.2558941  70.2499702  85.1455103  31.7216991  72.2397397  78.9243551
  32.1855337  72.5185100  78.1348173  31.4573790  71.3380842  78.7416642
  28.6141073  71.7868879  81.8623314  29.1842430  72.2156147  81.2240799
  29.2049184  71.5051463  82.5607500  30.6585878  68.3620549  75.7333116
  31.3609921  68.8141593  76.2007042  30.3266506  67.7204368  76.3613009
  29.1066239  66.9532306  90.1084325  28.4764900  67.6348587  90.3419722
  29.0002327  66.8415388  89.1637464  24.4011212  66.6204102  81.0350250
  23.6110265  66.8761631  80.5590360  24.8922459  67.4352440  81.1402290
  38.4175021  73.9609341  83.7855530  39.2392465  73.5589529  83.5038212
  38.4137424  73.8577575  84.7371646  26.3525957  66.9848681  77.9933726
  25.5557120  67.0967376  78.5117222  26.1251549  67.3235334  77.1274617
  32.1831625  73.5093385  85.9416241  32.2476057  73.9713792  86.7774413
  31.4742548  72.8790750  86.0698551  22.6848914  66.8734593  83.4665240
  22.9356953  67.7581602  83.7322816  23.2208463  66.6939194  82.6940332
  46.5081014  70.3048090  80.1340502  45.7544723  69.7355488  79.9784506
  46.6428555  70.2710754  81.0811137  31.8979642  75.1761492  75.8095221
  31.7625317  76.0213028  76.2380069  32.4389455  75.3780770  75.0461155
  28.3846982  61.2553072  92.4709576  27.9913927  60.7019270  93.1457221
  29.2013122  61.5663650  92.8616094  25.3509040  72.6936930  76.3823146
  25.8633560  73.4880180  76.5328711  26.0031752  71.9963221  76.3156748
  27.1603924  75.8102686  78.4645900  27.3370553  76.7320651  78.2766883
  27.9560758  75.4961106  78.8940279  31.3014943  62.6710951  90.0629833
  32.0424656  63.2718104  89.9834296  31.5332866  61.9288589  89.5047876
  26.4456281  67.8567318  88.3408063  26.3309796  66.9552576  88.6415162
  25.5900799  68.1031015  87.9892879  33.5248119  75.7985059  89.9395563
  33.0811973  75.0121437  89.6216468  34.1865332  75.9864209  89.2739454
  28.2835240  77.3280860  84.4656242  28.8342665  77.1997924  83.6933236
  27.4446716  77.6275749  84.1151135  35.6229357  76.0787859  87.9676965
  35.6047832  76.8996740  87.4757234  36.5449277  75.9541934  88.1927106
  32.0802411  73.5931988  88.8100473  32.6130748  72.8320276  88.5799781
  31.5516492  73.3005640  89.5524627  35.2472106  58.6992054  84.3394115
  34.9036375  59.5893696  84.2633225  35.6151068  58.5093712  83.4763700
  23.3157956  71.0225584  77.1582717  24.1533178  71.4322593  76.9416425
  23.4936224  70.0825027  77.1282911  35.2122388  68.6900665  72.8466550
  34.6969012  69.4605270  73.0854937  34.9399697  68.0165801  73.4699611
  35.0008692  66.5627757  74.6726331  34.6958827  66.8773906  75.5236474
  35.9539134  66.6409177  74.7153664  33.4455123  72.7217980  76.3219285
  32.9176485  71.9870740  76.0092522  32.9442626  73.4992657  76.0759253
  38.4247969  70.9167001  81.4386331  37.7671644  71.6066262  81.5266460
  39.2288369  71.3063433  81.7820318  37.2353428  69.2711374  79.4890273
  37.7485310  69.9041365  79.9911983  37.8854652  68.6712569  79.1233633
  28.5043438  65.4142108  72.7021782  27.6680750  65.7516794  73.0231057
  28.3648208  65.2791088  71.7648919  33.7134259  66.7460829  81.7348614
  32.7956821  66.9675776  81.5770302  34.1294403  66.8207140  80.8760321
  34.4969307  68.1452245  76.8651294  35.2441126  68.6573642  76.5558416
  34.7660896  67.8236298  77.7255687  32.7695957  70.6410786  73.8478248
  31.8607176  70.3569818  73.9450718  32.7991041  71.0609864  72.9881555
  36.4448164  76.0893872  78.5519234  36.7371138  76.6498929  77.8331599
  36.9546784  76.3822433  79.3072393  23.3384127  68.3616300  77.8293450
  23.1408527  67.7685660  77.1044517  22.7830791  68.0568510  78.5469389
  31.3180851  68.2539406  79.9488043  31.3729461  67.3013243  79.8730520
  30.5072053  68.4098845  80.4329342  29.2573211  66.8716466  77.7078422
  28.4441077  67.1710637  78.1143614  29.7532205  66.4772155  78.4252905
  31.4081789  76.8674223  79.6412687  31.3657968  77.0935069  78.7121219
  32.3244488  76.6337597  79.7898488  34.8547423  67.3358290  86.5393316
  35.2096810  67.5629764  87.3987782  35.5019554  67.6676667  85.9170572
  28.7487286  64.4434821  83.3239657  29.3886665  64.3023581  82.6262621
  27.9164816  64.1569335  82.9478259  40.6114539  72.5253253  82.2553917
  41.0451046  72.4328542  83.1036971  41.3246120  72.5010754  81.6173933
  29.5247590  73.7437252  79.4374650  30.3188188  73.2487572  79.2357225
  28.8139282  73.2155115  79.0742355  34.3442434  76.1255347  83.7887017
  34.3979456  76.6946284  84.5564733  33.4757216  76.2957232  83.4241054
  25.8330353  67.8880334  75.5134402  24.9027941  67.8264789  75.7304365
  25.9287825  67.3656286  74.7171044  25.7515902  64.4135146  78.1012644
  26.0122720  65.3280480  77.9921805  26.5733075  63.9459589  78.2509257
  27.2240828  65.8272904  85.2711469  27.8963881  65.6190266  84.6224118
  26.3970614  65.6294990  84.8316701  41.4730089  72.5676954  84.7886802
  41.6665979  73.4722764  85.0346077  41.3730707  72.1084373  85.6225387
  33.1266400  62.4534845  87.2877130  32.4794315  63.1524794  87.1941606
  33.8967415  62.8870988  87.6553378  36.5345198  72.7183697  90.3627683
  36.3830704  72.4894248  89.4457766  36.5249877  73.6754298  90.3759028
  33.3030534  70.2915609  85.3473949  34.2322594  70.4426769  85.1742917
  32.8821564  70.3799630  84.4922596  32.1018866  74.3166274  83.1172487
  31.9629951  73.9485058  83.9898425  31.3133462  74.8313913  82.9456445
  33.6524081  73.6947877  80.5061325  33.3173913  73.6548647  81.4018975
  33.1528027  73.0292593  80.0331735  27.6268325  69.1015507  86.0313906
  27.4888123  68.3695745  86.6325445  28.5373248  69.0124407  85.7498094
  30.2550625  68.8135466  85.5197585  30.9650244  68.1728658  85.4784204
  30.2119934  69.0648361  86.4423766  38.2437404  75.7502819  88.4404165
  38.1849950  75.0662039  87.7734748  38.6456923  76.4921809  87.9884791
  28.9679559  65.8000684  87.3393225  28.4316916  65.3491422  87.9914821
  28.3796268  65.9346593  86.5963689  27.2628103  82.5664733  81.2337884
  27.5024701  83.1983257  81.9116902  26.4197299  82.2152773  81.5203243
  28.3781818  65.2589335  69.9019689  27.5011285  65.1378136  69.5381935
  28.8539571  64.4675414  69.6498577  38.2454811  73.7142403  86.6718144
  37.3581590  73.3768325  86.7944543  38.8153362  72.9825434  86.9086910
  19.8983959  70.0466495  79.9961196  20.5854998  69.7328225  79.4082211
  19.7432087  70.9507860  79.7228447  24.7018681  64.9356692  84.4246219
  24.6176869  64.3282361  83.6896629  23.8801387  65.4265710  84.4255716
  31.7755965  78.3743856  83.6379388  31.7026136  79.1798827  84.1498692
  31.3333358  78.5735821  82.8127409  31.5645744  77.6115626  77.1482209
  30.7813266  78.1537306  77.2420434  32.2638490  78.1289605  77.5476450
  42.7272152  69.1250621  81.4334706  42.7162028  70.0075336  81.0628639
  41.8589531  68.7722171  81.2389243  34.2354648  78.2730690  85.7937546
  34.9482621  78.9078154  85.7213448  33.7444677  78.3694556  84.9777548
  29.2866562  76.0225133  86.6143117  29.9876021  76.6561616  86.7672511
  28.8161677  76.3639865  85.8538756  37.0867848  68.5769741  84.4395667
  36.4339298  68.8245648  83.7848120  37.4648228  67.7633879  84.1058145
  34.0475022  78.6129434  78.5423838  34.2297416  77.7951090  79.0051590
  34.8708008  78.8297126  78.1048728  33.1355421  69.3189552  90.9261704
  32.4596058  69.2183681  91.5964080  33.9583055  69.1628765  91.3897702
  24.8834280  75.5561488  83.5474220  25.4687717  74.8105176  83.6802124
  24.6859118  75.8665445  84.4310884  27.7372935  78.5912736  78.5636662
  27.0683310  79.0758863  78.0800702  27.5985805  78.8381956  79.4780041
  19.4751935  68.1267088  82.2678663  19.5136034  67.5930679  83.0615781
  18.9692228  67.6002294  81.6489640  31.8778204  80.6256479  85.1619320
  32.4296512  80.7888101  85.9268406  32.2184397  81.2160917  84.4899345
  26.8542697  62.9731629  85.7641205  26.9184023  63.8346460  85.3518603
  26.7909817  62.3605630  85.0313564  26.3294970  65.0454761  89.4114239
  26.9567008  64.6631839  90.0251764  25.4722888  64.8268963  89.7769932
  36.7289078  75.4517737  91.0167975  37.2728982  76.0647695  90.5222930
  36.1475923  76.0097315  91.5334988  23.1060512  66.8531190  75.3432594
  23.4013953  65.9441869  75.2899648  22.2048548  66.8318930  75.0213597
  35.0146591  78.5738455  82.1483003  34.8897730  77.7728194  81.6393948
  35.6725682  79.0684648  81.6596973  26.6354759  64.9287187  81.3260143
  25.9141345  65.5423155  81.1867616  27.4248015  65.4644952  81.2476789
  37.0781499  76.3747475  83.7762553  36.1311835  76.2552826  83.7040879
  37.4264273  75.4869973  83.8588814  29.4381073  62.2641614  87.6000795
  29.9615475  62.5103910  88.3627104  29.2193406  63.0961648  87.1803932
  24.8348354  64.5345288  75.4671919  24.5061060  63.6542667  75.2847025
  25.1887725  64.4792957  76.3548309  34.0827933  76.1700191  79.9766905
  33.9352895  75.2416898  80.1574475  34.9081426  76.1920282  79.4923980
  37.6862055  76.9928750  81.0631778  38.6108602  76.7871611  80.9256229
  37.5177358  76.7445151  81.9721119  30.6433618  63.2055309  85.2850465
  30.3030438  62.4063122  85.6871145  29.9372624  63.5057019  84.7127298
  28.8188668  66.9823742  81.5469767  28.6733249  67.2964045  82.4394048
  28.3413872  67.6008642  80.9940665  32.5311182  64.4063630  83.6403784
  32.2728960  65.3280701  83.6388114  31.9996222  64.0094064  84.3304248
  37.4757371  77.5114417  76.4193869  37.6494248  76.9460840  75.6667722
  37.9686262  78.3115312  76.2373359  23.2934331  69.5229086  84.4857428
  22.7487799  70.2988894  84.6177702  24.1713680  69.8699891  84.3276549
  24.0800352  68.6498982  87.3787585  23.3382088  68.7981618  87.9652215
  23.7593097  68.9107248  86.5154334  32.0244015  78.1914961  87.1767975
  32.3331142  77.9464107  88.0490674  32.8219497  78.3961599  86.6886845
  32.0464627  80.3452870  79.4073351  31.6069617  79.8529249  80.1006208
  32.7972744  79.8025838  79.1665427  24.5256966  76.5364411  79.4097979
  25.3514986  76.2368183  79.0296623  24.1751018  75.7672034  79.8587768
  29.4938499  75.8890879  81.4795653  28.8718509  75.2261584  81.1797881
  30.1643366  75.9152011  80.7969301  22.7265571  74.4550738  80.3686913
  21.8897479  74.0272912  80.1870914  22.6989217  74.6483181  81.3057704
  29.5663027  64.3672667  91.0728159  29.6151182  65.2434790  90.6905929
  30.1085541  63.8250060  90.4999802  40.0517872  74.9113791  90.3529296
  39.2613416  74.8937929  89.8133796  39.8151227  75.4502084  91.1078333
  40.1715747  71.7606257  87.6662025  40.2213752  71.5956264  88.6077547
  40.0629671  70.8933516  87.2759905  29.0552006  74.4394803  74.9554114
  29.2040127  75.1230267  74.3020786  29.8618450  74.4199893  75.4703569
  37.4619510  67.7437185  88.9821331  38.3629373  67.6043650  88.6905329
  37.5367484  67.9091640  89.9219509  31.7962315  65.1204040  87.8274518
  30.9265625  65.4137606  87.5557106  32.0321796  65.7044485  88.5481781
  41.6733944  74.1803198  87.9104046  41.3818753  74.5433179  88.7467507
  41.0606076  73.4670207  87.7317378  42.8729627  71.7456078  80.4306616
  43.7076518  72.1845882  80.5944177  43.0088755  71.2694731  79.6114862
  39.9221133  69.3035813  86.3784104  40.3975254  69.4963459  85.5702956
  38.9986698  69.3594999  86.1327488  26.8104639  70.4659980  75.9615182
  26.5650681  69.5622310  76.1595393  26.9800554  70.4677131  75.0194660
  34.5001349  61.3383657  85.3439938  35.0183293  62.0744684  85.0186427
  34.1456482  61.6447650  86.1786697  26.0800287  66.1988338  73.4601344
  25.3869532  66.2732693  72.8041380  25.8352039  65.4348682  73.9822861
  41.1010879  69.4007693  83.7254709  41.0687199  68.4623694  83.9114393
  41.7111503  69.4791730  82.9920534  32.9394210  68.2703746  69.7681913
  33.8853315  68.1409954  69.8370332  32.5608455  67.5318408  70.2451342
  46.9187429  70.4623700  82.8660746  47.6490818  70.2008988  83.4268450
  46.3094375  69.7252422  82.9062814  45.0002726  68.6031562  83.4635197
  44.2735890  68.4687527  82.8551689  44.5850013  68.9108391  84.2691915
  32.8232903  72.3221492  91.2282570  33.7435912  72.5000091  91.4222617
  32.7882486  71.3777537  91.0762270  22.0415068  67.5160086  80.1535845
  21.7217852  66.6625394  79.8610219  21.4948496  67.7308664  80.9093812
  25.8194975  70.2322527  83.8705352  26.0380985  71.1639634  83.8893385
  26.2320749  69.8730501  84.6560155  30.6922841  65.8055732  93.2608101
  30.5919568  66.7550089  93.1920192  30.4744383  65.4773971  92.3884171
  21.9103328  71.1362997  82.1228967  21.2166799  70.7216950  81.6098921
  22.6576319  71.1783534  81.5262386  30.5554111  69.2352871  92.0773162
  30.0721192  70.0353231  92.2837051  30.6415050  69.2460816  91.1240606
  23.8240070  71.0681251  79.9994982  23.8010758  71.1668938  79.0476865
  24.1340707  71.9146402  80.3212148  26.4827448  73.1257406  84.1141596
  27.4370702  73.0941348  84.0471528  26.2839972  72.6648030  84.9291822
  27.0726830  71.6958522  86.6812394  27.8919719  72.1902601  86.7047231
  27.3463638  70.7790490  86.6529961  24.8377677  78.6677025  81.1311794
  24.7032145  77.9077426  80.5649792  24.4209739  79.3917925  80.6640583
  36.8034450  69.6023810  76.2590639  36.7469652  70.0592362  75.4198272
  37.3562793  68.8414495  76.0813482  44.9251594  68.1309615  79.5912050
  44.3651152  68.2002805  80.3643612  44.3195097  67.9550600  78.8711546
  27.9946803  79.5646342  81.3430237  27.8779187  80.5091775  81.2408927
  27.1739249  79.2619904  81.7316036  22.3261745  66.0296656  87.3804591
  22.9720608  65.5195610  87.8691816  22.1178896  66.7665338  87.9548016
  34.8515137  73.0977503  92.8796731  35.7206296  73.2718156  92.5183366
  34.3721888  73.9171920  92.7572461  29.0201317  80.2174604  84.5586165
  29.9228564  80.2498215  84.8752660  28.7938687  79.2875055  84.5732501
  30.7754919  78.9705591  81.2196244  29.8250550  78.9707453  81.1060616
  31.0787405  78.2238325  80.7032278  26.6659236  63.1764273  91.4779605
  27.5290697  62.8201078  91.6882930  26.0924646  62.8378168  92.1655009
  46.5107612  84.8066129  82.2842006  47.1486022  84.6872877  81.5805346
  46.3928455  85.7546973  82.3429958  43.3197319  84.7593557  82.2203531
  42.9815830  84.6434622  81.3324066  44.1887087  84.3584722  82.2004537
  39.1784134  86.6129034  78.2100422  38.6149000  86.5218971  77.4416709
  39.0636529  85.7928938  78.6902914  43.8017102  85.9128409  88.1789736
  43.7905742  85.5181207  87.3070240  43.9637741  85.1794482  88.7723508
  36.7248566  88.1080225  81.0484642  37.5169858  87.7671050  80.6330941
  36.9645217  88.2175200  81.9686795  44.7583693  90.2800002  73.5214887
  44.1071673  90.8654082  73.1348900  45.5528056  90.8106196  73.5809924
  38.6839320  87.3689139  73.9202021  39.4570196  86.8218126  73.7814897
  39.0364719  88.2333388  74.1316482  40.5224363  88.6965521  87.1268920
  40.2314229  89.6011152  87.0115586  41.1581347  88.7382049  87.8412990
  41.4480570  86.0742369  83.7170280  42.0444142  85.8498392  83.0027243
  41.5055541  85.3327115  84.3195728  41.0205598  83.5281805  71.5520471
  41.2731119  83.0063326  70.7903934  40.0830157  83.3647950  71.6547154
  46.0648881  82.5317583  79.3595214  46.8511970  82.1137006  79.0085631
  46.3287585  83.4363675  79.5276862  46.2358958  87.9690433  74.0583871
  45.6004791  88.0425060  74.7704775  45.9056365  88.5584032  73.3802950
  51.4657308  82.4692816  80.2628193  52.1982480  81.8992033  80.4966022
  50.7096664  82.0814417  80.7034698  40.7401887  85.4309911  73.7544846
  40.6238145  84.7554814  74.4225930  40.8504147  84.9442285  72.9376999
  43.0833428  84.8920058  77.4591535  42.7191635  84.3650679  78.1704456
  43.9400544  84.5018527  77.2858020  48.9882728  76.1814390  84.7222801
  48.6566053  77.0509801  84.4984016  48.3928342  75.8650674  85.4016831
  42.7238915  79.9209958  72.4552883  42.8913317  80.7890194  72.8223355
  42.5336084  80.0837239  71.5314173  45.4814248  88.3826936  84.1218714
  45.1814971  89.2851975  84.0134521  45.1365307  88.1159120  84.9739867
  38.9326729  84.8340733  80.1555418  38.0077226  84.7016947  80.3633110
  39.1811143  85.6134953  80.6525361  48.8811392  80.9009477  81.8016151
  47.9728269  80.8324885  81.5074912  48.8298988  81.3781422  82.6297977
  42.7028136  82.3767615  73.4399550  42.5827761  82.8224666  74.2785031
  42.0080724  82.7252933  72.8813088  36.2935540  84.4774007  80.9899207
  36.4227922  84.7308486  81.9038619  35.6132992  85.0701715  80.6703862
  40.4635028  95.1471257  77.0889682  40.3859057  96.0979082  77.1678162
  39.8596671  94.8017129  77.7464608  42.9552258  82.3199122  89.7451048
  42.1785592  82.8793042  89.7353913  43.5942821  82.8055905  90.2665919
  50.7473038  79.1025915  83.5794025  50.1047418  79.3958448  82.9333820
  50.2427967  78.9878835  84.3847222  41.2098630  85.1284576  89.3069015
  41.9513314  85.6669620  89.0303839  40.5035615  85.7550864  89.4640567
  46.6853969  87.2713716  87.9041177  47.0937325  86.8296127  87.1595809
  45.9631231  86.6966344  88.1575370  43.0385040  82.2086323  85.2774734
  43.8846235  82.6325736  85.4209383  42.9783677  81.5519947  85.9713297
  47.0082784  87.8314907  81.6593466  46.3791647  87.9960621  80.9569534
  46.6208446  88.2456516  82.4304430  50.8872016  88.7669345  79.0137830
  50.2023054  89.1468246  78.4634863  50.9715865  89.3764671  79.7469777
  46.1884485  79.8690691  86.9355908  45.9445417  80.6232752  86.3990183
  46.4644415  80.2476039  87.7703155  48.1422948  86.4129304  85.6133173
  48.3539843  87.0561063  84.9367554  48.0952696  85.5791620  85.1455103
  45.7449177  79.0247124  82.5169745  44.8833656  79.3228378  82.8086483
  45.7711611  79.2417523  81.5850778  42.5610746  87.5689315  78.9243551
  43.0249092  87.8477018  78.1348173  42.2967544  86.6672759  78.7416642
  39.4534827  87.1160796  81.8623314  40.0236184  87.5448065  81.2240799
  40.0442939  86.8343381  82.5607500  41.4979632  83.6912467  75.7333116
  42.2003675  84.1433511  76.2007042  41.1660261  83.0496286  76.3613009
  39.9459994  82.2824224  90.1084325  39.3158654  82.9640505  90.3419722
  39.8396081  82.1707305  89.1637464  35.2404966  81.9496020  81.0350250
  34.4504020  82.2053548  80.5590360  35.7316213  82.7644358  81.1402290
  49.2568776  89.2901259  83.7855530  50.0786219  88.8881446  83.5038212
  49.2531178  89.1869493  84.7371646  37.1919711  82.3140599  77.9933726
  36.3950875  82.4259293  78.5117222  36.9645304  82.6527251  77.1274617
  43.0225379  88.8385302  85.9416241  43.0869812  89.3005710  86.7774413
  42.3136303  88.2082667  86.0698551  33.5242669  82.2026510  83.4665240
  33.7750707  83.0873520  83.7322816  34.0602217  82.0231112  82.6940332
  57.3474769  85.6340007  80.1340502  56.5938477  85.0647406  79.9784506
  57.4822310  85.6002672  81.0811137  42.7373397  90.5053410  75.8095221
  42.6019071  91.3504945  76.2380069  43.2783209  90.7072687  75.0461155
  39.2240736  76.5844990  92.4709576  38.8307682  76.0311188  93.1457221
  40.0406877  76.8955568  92.8616094  36.1902794  88.0228848  76.3823146
  36.7027315  88.8172098  76.5328711  36.8425507  87.3255138  76.3156748
  37.9997679  91.1394604  78.4645900  38.1764307  92.0612569  78.2766883
  38.7954512  90.8253023  78.8940279  42.1408697  78.0002869  90.0629833
  42.8818411  78.6010022  89.9834296  42.3726620  77.2580506  89.5047876
  37.2850035  83.1859236  88.3408063  37.1703550  82.2844493  88.6415162
  36.4294553  83.4322933  87.9892879  44.3641873  91.1276976  89.9395563
  43.9205727  90.3413355  89.6216468  45.0259087  91.3156127  89.2739454
  39.1228994  92.6572778  84.4656242  39.6736419  92.5289841  83.6933236
  38.2840470  92.9567667  84.1151135  46.4623111  91.4079776  87.9676965
  46.4441586  92.2288657  87.4757234  47.3843031  91.2833851  88.1927106
  42.9196165  88.9223906  88.8100473  43.4524502  88.1612194  88.5799781
  42.3910246  88.6297557  89.5524627  46.0865860  74.0283972  84.3394115
  45.7430130  74.9185613  84.2633225  46.4544823  73.8385629  83.4763700
  34.1551711  86.3517502  77.1582717  34.9926933  86.7614510  76.9416425
  34.3329979  85.4116944  77.1282911  46.0516143  84.0192583  72.8466550
  45.5362766  84.7897187  73.0854937  45.7793451  83.3457719  73.4699611
  43.6363254  78.8642284  77.9051788  42.7804850  78.4749134  77.7257427
  44.0490206  78.9434244  77.0451574  45.1662401  76.3988627  82.3043348
  44.6627196  76.3618762  81.4911153  45.4593007  77.3081370  82.3640005
  41.4105286  76.4827357  81.3109530  42.2758283  76.2870165  80.9515419
  41.4782795  76.2537708  82.2378886  51.0250417  86.7724937  74.7819723
  50.2479860  86.4336097  74.3374885  51.7041898  86.7777561  74.1074688
  45.8402446  81.8919675  74.6726331  45.5352582  82.2065824  75.5236474
  46.7932888  81.9701095  74.7153664  44.2848878  88.0509898  76.3219285
  43.7570240  87.3162658  76.0092522  43.7836381  88.8284575  76.0759253
  49.2641724  86.2458919  81.4386331  48.6065398  86.9358180  81.5266460
  50.0682123  86.6355351  81.7820318  39.0167606  78.7129564  78.6825897
  39.5911357  78.4904746  77.9499089  39.6038588  78.7818259  79.4354498
  48.0747183  84.6003291  79.4890273  48.5879065  85.2333283  79.9911983
  48.7248407  84.0004487  79.1233633  39.3437193  80.7434025  72.7021782
  38.5074505  81.0808712  73.0231057  39.2041962  80.6083005  71.7648919
  41.3190273  75.5870813  77.4100966  40.6654686  75.2719831  76.7857581
  41.2770747  74.9646554  78.1360789  42.4301478  85.8690108  69.3254258
  41.5228540  85.6379362  69.5245407  42.9272510  85.0727728  69.5128240
  45.3369557  94.5787616  72.2450944  44.6631256  94.8819312  72.8535902
  45.7235379  95.3816696  71.8956401  44.5528014  82.0752747  81.7348614
  43.6350575  82.2967694  81.5770302  44.9688157  82.1499057  80.8760321
  45.3363061  83.4744163  76.8651294  46.0834880  83.9865560  76.5558416
  45.6054651  83.1528215  77.7255687  43.6089712  85.9702703  73.8478248
  42.7000931  85.6861736  73.9450718  43.6384795  86.3901782  72.9881555
  48.8408979  89.5809293  77.6169416  48.3871306  88.7400203  77.6734606
  48.2102946  90.2170691  77.9544196  47.7841899  80.5101279  78.8470083
  47.0464655  79.9978665  79.1780326  48.0368672  80.0701660  78.0353360
  47.2841918  91.4185789  78.5519234  47.5764893  91.9790847  77.8331599
  47.7940539  91.7114350  79.3072393  34.1777882  83.6908217  77.8293450
  33.9802282  83.0977578  77.1044517  33.6224546  83.3860428  78.5469389
  42.1574606  83.5831324  79.9488043  42.2123215  82.6305160  79.8730520
  41.3465808  83.7390763  80.4329342  43.3065799  87.5111447  71.1866327
  42.8685229  86.7947306  70.7271964  44.0476240  87.7387562  70.6251418
  40.0966966  82.2008384  77.7078422  39.2834831  82.5002554  78.1143614
  40.5925960  81.8064072  78.4252905  42.2475543  92.1966141  79.6412687
  42.2051722  92.4226987  78.7121219  43.1638242  91.9629515  79.7898488
  45.6941177  82.6650208  86.5393316  46.0490565  82.8921681  87.3987782
  46.3413308  82.9968585  85.9170572  51.4238914  85.7868644  77.2442645
  51.2856813  85.9770240  76.3163834  51.0675133  86.5488027  77.7010696
  39.5881040  79.7726739  83.3239657  40.2280420  79.6315498  82.6262621
  38.7558571  79.4861253  82.9478259  51.4508294  87.8545171  82.2553917
  51.8844800  87.7620460  83.1036971  52.1639874  87.8302671  81.6173933
  40.3641344  89.0729170  79.4374650  41.1581943  88.5779490  79.2357225
  39.6533037  88.5447033  79.0742355  45.1836189  91.4547265  83.7887017
  45.2373211  92.0238201  84.5564733  44.3150970  91.6249150  83.4241054
  36.6724108  83.2172251  75.5134402  35.7421696  83.1556707  75.7304365
  36.7681580  82.6948204  74.7171044  36.5909657  79.7427064  78.1012644
  36.8516474  80.6572397  77.9921805  37.4126829  79.2751507  78.2509257
  38.0634582  81.1564821  85.2711469  38.7357635  80.9482183  84.6224118
  37.2364369  80.9586907  84.8316701  52.3123843  87.8968872  84.7886802
  52.5059733  88.8014682  85.0346077  52.2124461  87.4376291  85.6225387
  43.9660154  77.7826762  87.2877130  43.3188069  78.4816712  87.1941606
  44.7361169  78.2162906  87.6553378  47.3738952  88.0475614  90.3627683
  47.2224458  87.8186166  89.4457766  47.3643631  89.0046216  90.3759028
  44.1424288  85.6207527  85.3473949  45.0716348  85.7718687  85.1742917
  43.7215318  85.7091548  84.4922596  42.9412620  89.6458192  83.1172487
  42.8023706  89.2776976  83.9898425  42.1527216  90.1605831  82.9456445
  43.5360772  94.7467288  74.4598023  43.7112528  94.2755331  75.2743646
  42.8493560  95.3733054  74.6879284  44.4917835  89.0239794  80.5061325
  44.1567668  88.9840564  81.4018975  43.9921781  88.3584510  80.0331735
  38.4662079  84.4307424  86.0313906  38.3281877  83.6987663  86.6325445
  39.3767003  84.3416324  85.7498094  41.0944380  84.1427384  85.5197585
  41.8043999  83.5020576  85.4784204  41.0513688  84.3940278  86.4423766
  49.0831159  91.0794737  88.4404165  49.0243705  90.3953957  87.7734748
  49.4850677  91.8213727  87.9884791  39.8073314  81.1292602  87.3393225
  39.2710671  80.6783340  87.9914821  39.2190022  81.2638510  86.5963689
  38.1021857  97.8956651  81.2337884  38.3418456  98.5275175  81.9116902
  37.2591054  97.5444691  81.5203243  39.2175573  80.5881253  69.9019689
  38.3405039  80.4670054  69.5381935  39.6933326  79.7967331  69.6498577
  49.0848566  89.0434321  86.6718144  48.1975345  88.7060243  86.7944543
  49.6547117  88.3117352  86.9086910  30.7377713  85.3758413  79.9961196
  31.4248753  85.0620143  79.4082211  30.5825842  86.2799777  79.7228447
  35.5412435  80.2648609  84.4246219  35.4570624  79.6574279  83.6896629
  34.7195142  80.7557628  84.4255716  42.6149719  93.7035773  83.6379388
  42.5419891  94.5090745  84.1498692  42.1727112  93.9027739  82.8127409
  42.4039499  92.9407543  77.1482209  41.6207021  93.4829223  77.2420434
  43.1032244  93.4581523  77.5476450  45.7136149  78.7502173  79.7916414
  46.2104849  77.9972135  79.4717485  44.9423131  78.7866489  79.2259624
  53.5665906  84.4542538  81.4334706  53.5555783  85.3367254  81.0628639
  52.6983286  84.1014089  81.2389243  45.0748403  93.6022607  85.7937546
  45.7876375  94.2370072  85.7213448  44.5838431  93.6986473  84.9777548
  46.7965930  87.5073860  77.3654838  45.8622208  87.6275322  77.1959542
  46.9742598  86.6046327  77.1014848  42.2971118  80.8919556  79.5188099
  41.9268905  80.3390596  80.2069005  42.7930210  80.2877689  78.9663099
  50.1838481  83.3491179  77.9004872  50.6498933  84.1819171  77.8265175
  50.6345982  82.8836161  78.6050130  40.1260316  91.3517051  86.6143117
  40.8269776  91.9853534  86.7672511  39.6555431  91.6931782  85.8538756
  48.2514712  89.6935001  74.8991024  48.5274556  89.5791595  75.8084898
  47.3819211  89.2952485  74.8603197  48.1555144  75.7171766  81.9395773
  47.2418224  75.9475993  82.1077980  48.5848245  75.8010210  82.7909806
  47.9261602  83.9061658  84.4395667  47.2733053  84.1537566  83.7848120
  48.3041982  83.0925796  84.1058145  44.8868776  93.9421351  78.5423838
  45.0691171  93.1243007  79.0051590  45.7101762  94.1589044  78.1048728
  45.2210942  92.8689536  75.8038886  45.7498708  92.3581991  75.1909048
  45.4839161  92.5532067  76.6684419  43.9749175  84.6481469  90.9261704
  43.2989812  84.5475599  91.5964080  44.7976809  84.4920683  91.3897702
  35.7228034  90.8853406  83.5474220  36.3081471  90.1397094  83.6802124
  35.5252873  91.1957362  84.4310884  38.5766690  93.9204653  78.5636662
  37.9077065  94.4050781  78.0800702  38.4379559  94.1673874  79.4780041
  30.3145689  83.4559006  82.2678663  30.3529789  82.9222597  83.0615781
  29.8085982  82.9294212  81.6489640  42.7171958  95.9548397  85.1619320
  43.2690266  96.1180018  85.9268406  43.0578152  96.5452835  84.4899345
  37.6936451  78.3023547  85.7641205  37.7577778  79.1638377  85.3518603
  37.6303572  77.6897548  85.0313564  37.1688724  80.3746679  89.4114239
  37.7960763  79.9923756  90.0251764  36.3116643  80.1560881  89.7769932
  47.5682833  90.7809654  91.0167975  48.1122737  91.3939612  90.5222930
  46.9869677  91.3389233  91.5334988  33.9454267  82.1823108  75.3432594
  34.2407708  81.2733787  75.2899648  33.0442303  82.1610848  75.0213597
  45.8540346  93.9030372  82.1483003  45.7291485  93.1020112  81.6393948
  46.5119437  94.3976566  81.6596973  37.4748514  80.2579105  81.3260143
  36.7535100  80.8715072  81.1867616  38.2641770  80.7936870  81.2476789
  47.9175254  91.7039392  83.7762553  46.9705589  91.5844743  83.7040879
  48.2658027  90.8161890  83.8588814  40.2774827  77.5933531  87.6000795
  40.8009229  77.8395828  88.3627104  40.0587161  78.4253566  87.1803932
  44.9221687  91.4992109  79.9766905  44.7746650  90.5708816  80.1574475
  45.7475181  91.5212199  79.4923980  38.7883931  80.1510176  75.8347397
  39.1280004  80.6796097  75.1126005  39.2356052  80.4890582  76.6105964
  48.5255809  92.3220667  81.0631778  49.4502357  92.1163529  80.9256229
  48.3571112  92.0737068  81.9721119  41.4827372  78.5347226  85.2850465
  41.1424193  77.7355039  85.6871145  40.7766379  78.8348937  84.7127298
  42.1343844  75.6196539  83.7377788  42.9569913  75.1457017  83.6156678
  42.3781908  76.3987023  84.2376474  40.7752079  78.6484797  74.0340690
  41.4960441  79.0266050  73.5304407  40.1517383  79.3673674  74.1375668
  44.9183202  79.3529946  74.9699022  45.1346816  80.2354584  74.6687850
  44.4377269  78.9616160  74.2404664  39.6582423  82.3115659  81.5469767
  39.5127004  82.6255962  82.4394048  39.1807627  82.9300560  80.9940665
  41.5178806  79.3018207  81.5950656  41.5040375  78.4059301  81.2582954
  42.2351234  79.3088871  82.2288942  43.3704937  79.7355548  83.6403784
  43.1122714  80.6572618  83.6388114  42.8389977  79.3385982  84.3304248
  48.3151125  92.8406335  76.4193869  48.4888003  92.2752757  75.6667722
  48.8080016  93.6407230  76.2373359  34.1328085  84.8521004  84.4857428
  33.5881553  85.6280812  84.6177702  35.0107435  85.1991808  84.3276549
  40.9215702  78.1832588  76.8638226  41.0431613  77.2549234  77.0629114
  40.6317744  78.1971274  75.9516542  43.7906892  75.8687498  80.0004946
  43.8128589  75.9326831  79.0456926  44.2074951  75.0292007  80.1945452
  54.1690516  85.6042758  78.0384169  54.6121662  84.8550083  77.6403292
  53.2917027  85.5952894  77.6557901  49.3026298  92.1573099  73.5190767
  49.9977202  92.7779792  73.7378082  49.6449448  91.3068450  73.7943145
  34.9194107  83.9790900  87.3787585  34.1775843  84.1273535  87.9652215
  34.5986851  84.2399166  86.5154334  51.2017721  89.6072805  75.0478098
  51.7269045  89.9460077  74.3227418  51.1140073  88.6719820  74.8641233
  42.8637770  93.5206878  87.1767975  43.1724896  93.2756025  88.0490674
  43.6613252  93.7253517  86.6886845  42.8858382  95.6744788  79.4073351
  42.4463372  95.1821167  80.1006208  43.6366499  95.1317756  79.1665427
  35.3650721  91.8656329  79.4097979  36.1908741  91.5660101  79.0296623
  35.0144773  91.0963951  79.8587768  40.3332254  91.2182797  81.4795653
  39.7112263  90.5553502  81.1797881  41.0037121  91.2443929  80.7969301
  33.5659326  89.7842655  80.3686913  32.7291234  89.3564830  80.1870914
  33.5382971  89.9775099  81.3057704  40.4056781  79.6964585  91.0728159
  40.4544937  80.5726708  90.6905929  40.9479295  79.1541978  90.4999802
  50.8911627  90.2405708  90.3529296  50.1007171  90.2229847  89.8133796
  50.6544982  90.7794002  91.1078333  51.0109502  87.0898175  87.6662025
  51.0607507  86.9248182  88.6077547  50.9023425  86.2225434  87.2759905
  39.8945761  89.7686720  74.9554114  40.0433881  90.4522185  74.3020786
  40.7012204  89.7491810  75.4703569  48.3013264  83.0729103  88.9821331
  49.2023127  82.9335568  88.6905329  48.3761239  83.2383558  89.9219509
  42.6356070  80.4495957  87.8274518  41.7659379  80.7429523  87.5557106
  42.8715550  81.0336402  88.5481781  52.5127699  89.5095116  87.9104046
  52.2212507  89.8725097  88.7467507  51.8999830  88.7962124  87.7317378
  53.7123381  87.0747996  80.4306616  54.5470273  87.5137800  80.5944177
  53.8482510  86.5986649  79.6114862  50.7614887  84.6327731  86.3784104
  51.2369009  84.8255377  85.5702956  49.8380452  84.6886917  86.1327488
  37.6498394  85.7951898  75.9615182  37.4044436  84.8914228  76.1595393
  37.8194308  85.7969048  75.0194660  45.3395104  76.6675574  85.3439938
  45.8577047  77.4036601  85.0186427  44.9850236  76.9739568  86.1786697
  36.9194041  81.5280256  73.4601344  36.2263286  81.6024611  72.8041380
  36.6745793  80.7640599  73.9822861  45.5907698  73.0875857  80.8640835
  45.8709451  72.4199046  81.4901261  46.3758305  73.2804953  80.3515499
  43.3941166  92.2634851  72.4265861  42.8215133  92.8825038  71.9736333
  43.9673960  92.8134212  72.9605783  49.4616556  81.5093491  84.6112410
  50.4133979  81.6091589  84.6324634  49.2920006  80.7171759  85.1210494
  47.4830936  78.5949074  84.7971811  46.8880868  78.8754087  84.1018299
  47.1980632  79.0842975  85.5688552  46.6138426  92.5472001  73.5574443
  47.5469099  92.4817563  73.7607319  46.5261639  93.3828268  73.0988976
  51.9404634  84.7299611  83.7254709  51.9080954  83.7915611  83.9114393
  52.5505257  84.8083647  82.9920534  43.7787965  83.5995664  69.7681913
  44.7247069  83.4701872  69.8370332  43.4002210  82.8610325  70.2451342
  52.0899122  81.5210654  83.7712993  51.5738171  80.7369111  83.5842921
  52.9739071  81.1929371  83.9359512  57.7581184  85.7915617  82.8660746
  58.4884572  85.5300906  83.4268450  57.1488129  85.0544339  82.9062814
  55.8396481  83.9323480  83.4635197  55.1129644  83.7979445  82.8551689
  55.4243768  84.2400309  84.2691915  43.6626657  87.6513410  91.2282570
  44.5829667  87.8292009  91.4222617  43.6276240  86.7069455  91.0762270
  41.9630882  81.5245640  69.7036799  41.0562337  81.2278753  69.7799512
  42.2406863  81.2275458  68.8371085  32.8808822  82.8452003  80.1535845
  32.5611607  81.9917312  79.8610219  32.3342250  83.0600581  80.9093812
  36.6588730  85.5614444  83.8705352  36.8774740  86.4931552  83.8893385
  37.0714504  85.2022419  84.6560155  41.5316595  81.1347650  93.2608101
  41.4313322  82.0842007  93.1920192  41.3138137  80.8065889  92.3884171
  32.7497082  86.4654915  82.1228967  32.0560554  86.0508868  81.6098921
  33.4970073  86.5075451  81.5262386  47.3365869  76.6566159  79.1905321
  47.8365648  76.7682694  78.3819640  47.9801477  76.3527212  79.8306130
  41.3947865  84.5644789  92.0773162  40.9114947  85.3645149  92.2837051
  41.4808804  84.5752734  91.1240606  34.6633825  86.3973169  79.9994982
  34.6404513  86.4960856  79.0476865  34.9734461  87.2438319  80.3212148
  37.3221203  88.4549324  84.1141596  38.2764456  88.4233266  84.0471528
  37.1233726  87.9939947  84.9291822  37.9120585  87.0250440  86.6812394
  38.7313474  87.5194518  86.7047231  38.1857392  86.1082408  86.6529961
  51.0201717  79.4407713  79.7594688  51.7962107  79.9304165  80.0319305
  50.2949851  79.8665767  80.2166558  53.4574276  80.1535332  80.8168629
  54.0518767  79.9131068  80.1061937  53.5300859  79.4342463  81.4442165
  35.6771431  93.9968943  81.1311794  35.5425899  93.2369344  80.5649792
  35.2603494  94.7209843  80.6640583  47.6428205  84.9315728  76.2590639
  47.5863406  85.3884279  75.4198272  48.1956547  84.1706413  76.0813482
  55.7645348  83.4601533  79.5912050  55.2044906  83.5294722  80.3643612
  55.1588852  83.2842518  78.8711546  38.8340557  94.8938260  81.3430237
  38.7172941  95.8383693  81.2408927  38.0133004  94.5911822  81.7316036
  48.7217092  89.6188396  72.1886829  49.5562696  89.1869594  72.0064304
  48.5601435  89.4470410  73.1163724  48.3762984  86.1220509  73.5543169
  48.3211788  85.9564781  72.6131613  47.7509039  86.8296542  73.7105358
  33.1655499  81.3588574  87.3804591  33.8114363  80.8487528  87.8691816
  32.9572650  82.0957255  87.9548016  45.6908891  88.4269421  92.8796731
  46.5600051  88.6010073  92.5183366  45.2115643  89.2463838  92.7572461
  39.8595071  95.5466522  84.5586165  40.7622318  95.5790132  84.8752660
  39.6332441  94.6166973  84.5732501  41.6148673  94.2997509  81.2196244
  40.6644304  94.2999370  81.1060616  41.9181160  93.5530243  80.7032278
  37.5052990  78.5056191  91.4779605  38.3684452  78.1492995  91.6882930
  36.9318401  78.1670085  92.1655009  57.3501367 100.1358047  82.2842006
  57.9879777 100.0164794  81.5805346  57.2322210 101.0838891  82.3429958
  54.1591073 100.0885475  82.2203531  53.8209585  99.9726540  81.3324066
  55.0280841  99.6876640  82.2004537  50.0177889 101.9420951  78.2100422
  49.4542754 101.8510888  77.4416709  49.9030284 101.1220856  78.6902914
  54.6410856 101.2420327  88.1789736  54.6299497 100.8473125  87.3070240
  54.8031496 100.5086399  88.7723508  47.5642321 103.4372143  81.0484642
  48.3563613 103.0962968  80.6330941  47.8038971 103.5467118  81.9686795
  55.5977448 105.6091919  73.5214887  54.9465427 106.1946000  73.1348900
  56.3921810 106.1398114  73.5809924  49.5233075 102.6981056  73.9202021
  50.2963951 102.1510043  73.7814897  49.8758474 103.5625306  74.1316482
  51.3618117 104.0257439  87.1268920  51.0707983 104.9303069  87.0115586
  51.9975102 104.0673966  87.8412990  52.2874324 101.4034287  83.7170280
  52.8837896 101.1790310  83.0027243  52.3449296 100.6619033  84.3195728
  51.8599353  98.8573722  71.5520471  52.1124873  98.3355244  70.7903934
  50.9223912  98.6939868  71.6547154  56.9042635  97.8609501  79.3595214
  57.6905725  97.4428924  79.0085631  57.1681340  98.7655593  79.5276862
  57.0752713 103.2982351  74.0583871  56.4398546 103.3716978  74.7704775
  56.7450119 103.8875950  73.3802950  62.3051063  97.7984734  80.2628193
  63.0376234  97.2283951  80.4966022  61.5490418  97.4106334  80.7034698
  51.5795641 100.7601828  73.7544846  51.4631899 100.0846732  74.4225930
  51.6897901 100.2734202  72.9376999  53.9227182 100.2211976  77.4591535
  53.5585390  99.6942596  78.1704456  54.7794298  99.8310445  77.2858020
  59.8276483  91.5106308  84.7222801  59.4959808  92.3801719  84.4984016
  59.2322096  91.1942592  85.4016831  53.5632669  95.2501875  72.4552883
  53.7307072  96.1182112  72.8223355  53.3729838  95.4129157  71.5314173
  56.3208002 103.7118854  84.1218714  56.0208726 104.6143893  84.0134521
  55.9759062 103.4451037  84.9739867  49.7720484 100.1632651  80.1555418
  48.8470980 100.0308865  80.3633110  50.0204897 100.9426870  80.6525361
  59.7205146  96.2301394  81.8016151  58.8122024  96.1616803  81.5074912
  59.6692742  96.7073339  82.6297977  53.5421890  97.7059533  73.4399550
  53.4221515  98.1516583  74.2785031  52.8474479  98.0544850  72.8813088
  47.1329295  99.8065925  80.9899207  47.2621676 100.0600403  81.9038619
  46.4526746 100.3993633  80.6703862  53.7946012  97.6491040  89.7451048
  53.0179346  98.2084960  89.7353913  54.4336575  98.1347823  90.2665919
  61.5866793  94.4317833  83.5794025  60.9441173  94.7250366  82.9333820
  61.0821721  94.3170753  84.3847222  59.2406956  98.1781006  74.2679884
  60.1524812  98.4108393  74.0927582  58.7316603  98.7618050  73.7054963
  52.0492384 100.4576493  89.3069015  52.7907069 100.9961537  89.0303839
  51.3429370 101.0842782  89.4640567  57.5247724 102.6005634  87.9041177
  57.9331080 102.1588044  87.1595809  56.8024985 102.0258261  88.1575370
  53.8778794  97.5378240  85.2774734  54.7239989  97.9617654  85.4209383
  53.8177432  96.8811865  85.9713297  57.8476539 103.1606824  81.6593466
  57.2185401 103.3252538  80.9569534  57.4602201 103.5748434  82.4304430
  61.7265770 104.0961262  79.0137830  61.0416809 104.4760164  78.4634863
  61.8109620 104.7056589  79.7469777  57.0278239  95.1982609  86.9355908
  56.7839171  95.9524669  86.3990183  57.3038170  95.5767956  87.7703155
  58.9816702 101.7421221  85.6133173  59.1933597 102.3852981  84.9367554
  58.9346450 100.9083538  85.1455103  56.5842931  94.3539042  82.5169745
  55.7227410  94.6520295  82.8086483  56.6105366  94.5709441  81.5850778
  53.4004500 102.8981232  78.9243551  53.8642846 103.1768935  78.1348173
  53.1361299 101.9964677  78.7416642  50.2928582 102.4452714  81.8623314
  50.8629939 102.8739982  81.2240799  50.8836693 102.1635299  82.5607500
  52.3373387  99.0204385  75.7333116  53.0397430  99.4725428  76.2007042
  52.0054015  98.3788204  76.3613009  50.7853748  97.6116141  90.1084325
  50.1552409  98.2932422  90.3419722  50.6789836  97.4999223  89.1637464
  46.0798720  97.2787937  81.0350250  45.2897774  97.5345466  80.5590360
  46.5709968  98.0936275  81.1402290  60.0962530 104.6193177  83.7855530
  60.9179974 104.2173364  83.5038212  60.0924933 104.5161411  84.7371646
  48.0313466  97.6432517  77.9933726  47.2344629  97.7551211  78.5117222
  47.8039058  97.9819169  77.1274617  53.8619133 104.1677220  85.9416241
  53.9263566 104.6297627  86.7774413  53.1530057 103.5374585  86.0698551
  44.3636423  97.5318428  83.4665240  44.6144462  98.4165438  83.7322816
  44.8995972  97.3523029  82.6940332  68.1868523 100.9631925  80.1340502
  67.4332231 100.3939323  79.9784506  68.3216064 100.9294590  81.0811137
  53.5767151 105.8345327  75.8095221  53.4412826 106.6796863  76.2380069
  54.1176964 106.0364605  75.0461155  50.0634491  91.9136907  92.4709576
  49.6701436  91.3603106  93.1457221  50.8800631  92.2247486  92.8616094
  47.0296549 103.3520765  76.3823146  47.5421069 104.1464016  76.5328711
  47.6819261 102.6547056  76.3156748  48.8391433 106.4686522  78.4645900
  49.0158062 107.3904486  78.2766883  49.6348267 106.1544941  78.8940279
  52.9802452  93.3294786  90.0629833  53.7212165  93.9301940  89.9834296
  53.2120375  92.5872424  89.5047876  48.1243790  98.5151154  88.3408063
  48.0097305  97.6136411  88.6415162  47.2688308  98.7614850  87.9892879
  55.2035628 106.4568894  89.9395563  54.7599482 105.6705273  89.6216468
  55.8652841 106.6448044  89.2739454  49.9622749 107.9864696  84.4656242
  50.5130174 107.8581759  83.6933236  49.1234225 108.2859585  84.1151135
  57.3016866 106.7371694  87.9676965  57.2835341 107.5580575  87.4757234
  58.2236786 106.6125769  88.1927106  53.7589920 104.2515823  88.8100473
  54.2918257 103.4904112  88.5799781  53.2304001 103.9589475  89.5524627
  56.9259615  89.3575889  84.3394115  56.5823884  90.2477531  84.2633225
  57.2938577  89.1677547  83.4763700  44.9945465 101.6809420  77.1582717
  45.8320687 102.0906428  76.9416425  45.1723733 100.7408862  77.1282911
  56.8909897  99.3484500  72.8466550  56.3756521 100.1189105  73.0854937
  56.6187206  98.6749637  73.4699611  54.4757008  94.1934201  77.9051788
  53.6198605  93.8041052  77.7257427  54.8883960  94.2726162  77.0451574
  56.0056155  91.7280544  82.3043348  55.5020951  91.6910680  81.4911153
  56.2986762  92.6373287  82.3640005  52.2499041  91.8119274  81.3109530
  53.1152038  91.6162083  80.9515419  52.3176550  91.5829626  82.2378886
  61.8644172 102.1016855  74.7819723  61.0873614 101.7628015  74.3374885
  62.5435653 102.1069478  74.1074688  56.6796201  97.2211593  74.6726331
  56.3746336  97.5357742  75.5236474  57.6326643  97.2993012  74.7153664
  55.1242632 103.3801816  76.3219285  54.5963994 102.6454575  76.0092522
  54.6230135 104.1576492  76.0759253  60.1035478 101.5750836  81.4386331
  59.4459153 102.2650098  81.5266460  60.9075878 101.9647268  81.7820318
  49.8561360  94.0421482  78.6825897  50.4305112  93.8196664  77.9499089
  50.4432343  94.1110177  79.4354498  58.9140937  99.9295209  79.4890273
  59.4272819 100.5625201  79.9911983  59.5642161  99.3296405  79.1233633
  50.1830947  96.0725943  72.7021782  49.3468259  96.4100630  73.0231057
  50.0435717  95.9374923  71.7648919  52.1584028  90.9162731  77.4100966
  51.5048440  90.6011748  76.7857581  52.1164502  90.2938471  78.1360789
  53.2695233 101.1982026  69.3254258  52.3622294 100.9671280  69.5245407
  53.7666265 100.4019645  69.5128240  56.1763312 109.9079533  72.2450944
  55.5025010 110.2111230  72.8535902  56.5629133 110.7108614  71.8956401
  55.3921768  97.4044665  81.7348614  54.4744330  97.6259612  81.5770302
  55.8081912  97.4790975  80.8760321  56.1756816  98.8036080  76.8651294
  56.9228635  99.3157477  76.5558416  56.4448405  98.4820133  77.7255687
  54.4483466 101.2994621  73.8478248  53.5394685 101.0153654  73.9450718
  54.4778550 101.7193700  72.9881555  59.6802733 104.9101210  77.6169416
  59.2265061 104.0692120  77.6734606  59.0496700 105.5462609  77.9544196
  58.6235653  95.8393197  78.8470083  57.8858410  95.3270583  79.1780326
  58.8762427  95.3993578  78.0353360  58.1235673 106.7477707  78.5519234
  58.4158647 107.3082764  77.8331599  58.6334293 107.0406268  79.3072393
  58.7247280  88.6169449  79.4411852  59.0306157  87.7566812  79.1537767
  59.4499885  89.2087069  79.2410846  45.0171636  99.0200135  77.8293450
  44.8196036  98.4269496  77.1044517  44.4618300  98.7152345  78.5469389
  52.9968360  98.9123242  79.9488043  53.0516970  97.9597078  79.8730520
  52.1859562  99.0682681  80.4329342  54.1459554 102.8403365  71.1866327
  53.7078984 102.1239224  70.7271964  54.8869995 103.0679479  70.6251418
  50.9360720  97.5300301  77.7078422  50.1228586  97.8294472  78.1143614
  51.4319714  97.1355990  78.4252905  53.0869298 107.5258058  79.6412687
  53.0445477 107.7518905  78.7121219  54.0031997 107.2921433  79.7898488
  56.5334932  97.9942126  86.5393316  56.8884319  98.2213599  87.3987782
  57.1807063  98.3260503  85.9170572  62.2632669 101.1160562  77.2442645
  62.1250567 101.3062158  76.3163834  61.9068887 101.8779944  77.7010696
  50.4274795  95.1018657  83.3239657  51.0674174  94.9607416  82.6262621
  49.5952325  94.8153170  82.9478259  62.2902048 103.1837089  82.2553917
  62.7238555 103.0912378  83.1036971  63.0033629 103.1594589  81.6173933
  51.2035099 104.4021087  79.4374650  51.9975697 103.9071407  79.2357225
  50.4926791 103.8738950  79.0742355  56.0229943 106.7839183  83.7887017
  56.0766965 107.3530119  84.5564733  55.1544725 106.9541068  83.4241054
  47.5117862  98.5464169  75.5134402  46.5815450  98.4848624  75.7304365
  47.6075334  98.0240122  74.7171044  47.4303411  95.0718982  78.1012644
  47.6910229  95.9864315  77.9921805  48.2520584  94.6043424  78.2509257
  48.9028337  96.4856739  85.2711469  49.5751390  96.2774101  84.6224118
  48.0758123  96.2878825  84.8316701  63.1517598 103.2260789  84.7886802
  63.3453488 104.1306600  85.0346077  63.0518216 102.7668208  85.6225387
  54.8053909  93.1118680  87.2877130  54.1581824  93.8108630  87.1941606
  55.5754924  93.5454824  87.6553378  54.9818043 100.9499445  85.3473949
  55.9110103 101.1010604  85.1742917  54.5609073 101.0383466  84.4922596
  53.7806375 104.9750109  83.1172487  53.6417460 104.6068894  83.9898425
  52.9920971 105.4897749  82.9456445  54.3754527 110.0759206  74.4598023
  54.5506282 109.6047249  75.2743646  53.6887315 110.7024972  74.6879284
  55.3311590 104.3531712  80.5061325  54.9961422 104.3132482  81.4018975
  54.8315536 103.6876428  80.0331735  49.3055834  99.7599342  86.0313906
  49.1675632  99.0279581  86.6325445  50.2160757  99.6708242  85.7498094
  58.2670781 101.6987746  70.7798384  57.6499952 100.9734574  70.6831437
  57.7987270 102.4597107  70.4365459  51.9338134  99.4719301  85.5197585
  52.6437753  98.8312493  85.4784204  51.8907443  99.7232196  86.4423766
  50.6467068  96.4584519  87.3393225  50.1104425  96.0075258  87.9914821
  50.0583777  96.5930428  86.5963689  50.0569327  95.9173171  69.9019689
  49.1798794  95.7961971  69.5381935  50.5327080  95.1259249  69.6498577
  59.9242320 104.3726239  86.6718144  59.0369099 104.0352160  86.7944543
  60.4940871 103.6409270  86.9086910  41.5771468 100.7050330  79.9961196
  42.2642507 100.3912060  79.4082211  41.4219596 101.6091695  79.7228447
  46.3806190  95.5940527  84.4246219  46.2964378  94.9866196  83.6896629
  45.5588896  96.0849545  84.4255716  53.4543474 109.0327691  83.6379388
  53.3813645 109.8382662  84.1498692  53.0120867 109.2319657  82.8127409
  53.2433253 108.2699461  77.1482209  52.4600775 108.8121141  77.2420434
  53.9425999 108.7873441  77.5476450  56.5529904  94.0794090  79.7916414
  57.0498603  93.3264053  79.4717485  55.7816885  94.1158407  79.2259624
  64.4059661  99.7834456  81.4334706  64.3949537 100.6659171  81.0628639
  63.5377040  99.4306007  81.2389243  55.9142157 108.9314525  85.7937546
  56.6270130 109.5661990  85.7213448  55.4232186 109.0278391  84.9777548
  57.6359684 102.8365778  77.3654838  56.7015963 102.9567240  77.1959542
  57.8136353 101.9338244  77.1014848  53.1364872  96.2211473  79.5188099
  52.7662660  95.6682514  80.2069005  53.6323965  95.6169607  78.9663099
  61.0232236  98.6783097  77.9004872  61.4892688  99.5111089  77.8265175
  61.4739736  98.2128078  78.6050130  50.9654071 106.6808968  86.6143117
  51.6663530 107.3145451  86.7672511  50.4949186 107.0223700  85.8538756
  59.0908467 105.0226918  74.8991024  59.3668311 104.9083513  75.8084898
  58.2212965 104.6244403  74.8603197  58.9948898  91.0463684  81.9395773
  58.0811978  91.2767911  82.1077980  59.4242000  91.1302128  82.7909806
  58.7655357  99.2353576  84.4395667  58.1126807  99.4829483  83.7848120
  59.1435737  98.4217714  84.1058145  55.7262531 109.2713269  78.5423838
  55.9084925 108.4534925  79.0051590  56.5495517 109.4880961  78.1048728
  56.0604696 108.1981454  75.8038886  56.5892463 107.6873909  75.1909048
  56.3232916 107.8823984  76.6684419  54.8142930  99.9773387  90.9261704
  54.1383567  99.8767516  91.5964080  55.6370564  99.8212601  91.3897702
  46.5621789 106.2145323  83.5474220  47.1475226 105.4689011  83.6802124
  46.3646627 106.5249280  84.4310884  41.1539444  98.7850924  82.2678663
  41.1923543  98.2514514  83.0615781  40.6479736  98.2586129  81.6489640
  48.5330206  93.6315464  85.7641205  48.5971532  94.4930295  85.3518603
  48.4697326  93.0189466  85.0313564  48.0082478  95.7038597  89.4114239
  48.6354517  95.3215674  90.0251764  47.1510397  95.4852799  89.7769932
  44.7848021  97.5115026  75.3432594  45.0801462  96.6025704  75.2899648
  43.8836057  97.4902765  75.0213597  56.6934100 109.2322290  82.1483003
  56.5685239 108.4312030  81.6393948  57.3513191 109.7268483  81.6596973
  48.3142268  95.5871022  81.3260143  47.5928854  96.2006990  81.1867616
  49.1035524  96.1228787  81.2476789  58.7569008 107.0331310  83.7762553
  57.8099344 106.9136661  83.7040879  59.1051782 106.1453808  83.8588814
  51.1168582  92.9225449  87.6000795  51.6402984  93.1687745  88.3627104
  50.8980915  93.7545484  87.1803932  46.5135863  95.1929123  75.4671919
  46.1848569  94.3126502  75.2847025  46.8675234  95.1376792  76.3548309
  55.7615442 106.8284026  79.9766905  55.6140404 105.9000734  80.1574475
  56.5868935 106.8504117  79.4923980  49.6277686  95.4802093  75.8347397
  49.9673758  96.0088015  75.1126005  50.0749806  95.8182499  76.6105964
  59.3649564 107.6512585  81.0631778  60.2896111 107.4455446  80.9256229
  59.1964867 107.4028986  81.9721119  52.3221127  93.8639144  85.2850465
  51.9817947  93.0646957  85.6871145  51.6160133  94.1640855  84.7127298
  52.9737599  90.9488456  83.7377788  53.7963668  90.4748935  83.6156678
  53.2175662  91.7278940  84.2376474  51.6145833  93.9776715  74.0340690
  52.3354196  94.3557968  73.5304407  50.9911137  94.6965592  74.1375668
  55.7576956  94.6821864  74.9699022  55.9740570  95.5646502  74.6687850
  55.2771023  94.2908077  74.2404664  50.4976177  97.6407577  81.5469767
  50.3520758  97.9547880  82.4394048  50.0201381  98.2592477  80.9940665
  52.3572560  94.6310125  81.5950656  52.3434129  93.7351218  81.2582954
  53.0744988  94.6380789  82.2288942  54.2098691  95.0647465  83.6403784
  53.9516469  95.9864536  83.6388114  53.6783731  94.6677900  84.3304248
  59.1544880 108.1698252  76.4193869  59.3281757 107.6044675  75.6667722
  59.6473771 108.9699147  76.2373359  44.9721840 100.1812921  84.4857428
  44.4275308 100.9572729  84.6177702  45.8501189 100.5283726  84.3276549
  51.7609456  93.5124505  76.8638226  51.8825367  92.5841152  77.0629114
  51.4711499  93.5263191  75.9516542  54.6300647  91.1979416  80.0004946
  54.6522343  91.2618749  79.0456926  55.0468706  90.3583924  80.1945452
  65.0084271 100.9334675  78.0384169  65.4515417 100.1842001  77.6403292
  64.1310781 100.9244812  77.6557901  60.1420052 107.4865017  73.5190767
  60.8370957 108.1071709  73.7378082  60.4843202 106.6360368  73.7943145
  45.7587861  99.3082818  87.3787585  45.0169597  99.4565453  87.9652215
  45.4380606  99.5691083  86.5154334  62.0411475 104.9364722  75.0478098
  62.5662799 105.2751995  74.3227418  61.9533828 104.0011738  74.8641233
  53.7031524 108.8498796  87.1767975  54.0118651 108.6047943  88.0490674
  54.5007006 109.0545434  86.6886845  53.7252136 111.0036706  79.4073351
  53.2857126 110.5113084  80.1006208  54.4760253 110.4609673  79.1665427
  46.2044475 107.1948246  79.4097979  47.0302495 106.8952018  79.0296623
  45.8538527 106.4255869  79.8587768  51.1726008 106.5474715  81.4795653
  50.5506018 105.8845420  81.1797881  51.8430875 106.5735847  80.7969301
  44.4053080 105.1134573  80.3686913  43.5684988 104.6856747  80.1870914
  44.3776726 105.3067016  81.3057704  51.2450536  95.0256503  91.0728159
  51.2938691  95.9018626  90.6905929  51.7873050  94.4833896  90.4999802
  61.8503256 102.4190092  87.6662025  61.9001261 102.2540100  88.6077547
  61.7417180 101.5517351  87.2759905  50.7339515 105.0978638  74.9554114
  50.8827636 105.7814102  74.3020786  51.5405959 105.0783728  75.4703569
  59.1407019  98.4021020  88.9821331  60.0416882  98.2627485  88.6905329
  59.2154993  98.5675475  89.9219509  53.4749824  95.7787875  87.8274518
  52.6053134  96.0721441  87.5557106  53.7109305  96.3628320  88.5481781
  64.5517136 102.4039914  80.4306616  65.3864027 102.8429718  80.5944177
  64.6876264 101.9278567  79.6114862  61.6008642  99.9619648  86.3784104
  62.0762763 100.1547295  85.5702956  60.6774207 100.0178834  86.1327488
  48.4892148 101.1243816  75.9615182  48.2438190 100.2206146  76.1595393
  48.6588063 101.1260966  75.0194660  56.1788858  91.9967492  85.3439938
  56.6970802  92.7328519  85.0186427  55.8243991  92.3031485  86.1786697
  47.7587796  96.8572173  73.4601344  47.0657041  96.9316528  72.8041380
  47.5139548  96.0932517  73.9822861  56.4301452  88.4167775  80.8640835
  56.7103206  87.7490964  81.4901261  57.2152059  88.6096870  80.3515499
  54.2334921 107.5926768  72.4265861  53.6608888 108.2116956  71.9736333
  54.8067714 108.1426130  72.9605783  60.3010311  96.8385409  84.6112410
  61.2527733  96.9383506  84.6324634  60.1313761  96.0463677  85.1210494
  58.3224690  93.9240992  84.7971811  57.7274622  94.2046004  84.1018299
  58.0374387  94.4134893  85.5688552  57.4532180 107.8763919  73.5574443
  58.3862854 107.8109480  73.7607319  57.3655393 108.7120185  73.0988976
  60.0820197 107.1929789  70.5178391  60.0033829 106.8589653  71.4114149
  60.9029864 107.6851557  70.5169863  62.7798388 100.0591528  83.7254709
  62.7474708  99.1207529  83.9114393  63.3899012 100.1375565  82.9920534
  54.6181719  98.9287581  69.7681913  55.5640824  98.7993789  69.8370332
  54.2395964  98.1902243  70.2451342  62.9292877  96.8502572  83.7712993
  62.4131925  96.0661028  83.5842921  63.8132825  96.5221288  83.9359512
  60.5903604  90.5943587  79.7308805  60.3928425  90.2858675  80.6152137
  61.2003309  91.3205226  79.8606735  68.5974938 101.1207535  82.8660746
  69.3278327 100.8592823  83.4268450  67.9881884 100.3836257  82.9062814
  66.6790235  99.2615398  83.4635197  65.9523399  99.1271363  82.8551689
  66.2637522  99.5692226  84.2691915  54.5020412 102.9805327  91.2282570
  55.4223421 103.1583926  91.4222617  54.4669995 102.0361373  91.0762270
  52.8024636  96.8537558  69.7036799  51.8956092  96.5570670  69.7799512
  53.0800617  96.5567376  68.8371085  43.7202577  98.1743921  80.1535845
  43.4005361  97.3209229  79.8610219  43.1736005  98.3892499  80.9093812
  47.4982484 100.8906362  83.8705352  47.7168494 101.8223470  83.8893385
  47.9108258 100.5314336  84.6560155  54.4186702  91.3974447  75.8581040
  53.6087430  91.0521532  76.2336286  55.1071119  91.0881991  76.4468652
  56.3477250  90.4752494  77.4805337  56.9008289  90.8947948  78.1395360
  56.5847337  89.5488242  77.5228293  52.3710350  96.4639568  93.2608101
  52.2707076  97.4133925  93.1920192  52.1531892  96.1357807  92.3884171
  51.5723421  93.7124493  69.8448778  52.4342585  94.0379391  70.1044595
  51.7573765  92.9255989  69.3321844  43.5890837 101.7946833  82.1228967
  42.8954308 101.3800785  81.6098921  44.3363828 101.8367369  81.5262386
  59.7256057  92.5853019  76.9884001  59.1454726  93.2437823  76.6062053
  59.4591990  91.7630364  76.5771418  58.1759624  91.9858077  79.1905321
  58.6759402  92.0974612  78.3819640  58.8195232  91.6819130  79.8306130
  52.2341620  99.8936707  92.0773162  51.7508701 100.6937067  92.2837051
  52.3202559  99.9044651  91.1240606  45.5027579 101.7265086  79.9994982
  45.4798267 101.8252774  79.0476865  45.8128216 102.5730237  80.3212148
  48.1614957 103.7841241  84.1141596  49.1158211 103.7525184  84.0471528
  47.9627481 103.3231865  84.9291822  48.7514339 102.3542357  86.6812394
  49.5707228 102.8486436  86.7047231  49.0251147 101.4374326  86.6529961
  58.5080935  94.7453110  76.0440349  57.6206790  95.0302760  75.8260544
  58.9234925  94.5846873  75.1967626  61.8595472  94.7699631  79.7594688
  62.6355862  95.2596083  80.0319305  61.1343606  95.1957685  80.2166558
  64.2968030  95.4827250  80.8168629  64.8912521  95.2422986  80.1061937
  64.3694614  94.7634380  81.4442165  57.6524149 104.5097784  70.1388369
  58.3559999 104.7147787  70.7546025  56.9286798 105.0774546  70.4037453
  58.4821959 100.2607646  76.2590639  58.4257161 100.7176197  75.4198272
  59.0350302  99.4998330  76.0813482  62.2926765  96.0497377  77.0840759
  62.0363699  95.6494013  77.9148967  61.6679633  96.7641171  76.9590898
  66.6039103  98.7893451  79.5912050  66.0438661  98.8586640  80.3643612
  65.9982606  98.6134435  78.8711546  59.5610846 104.9480314  72.1886829
  60.3956450 104.5161512  72.0064304  59.3995189 104.7762327  73.1163724
  59.2156739 101.4512427  73.5543169  59.1605542 101.2856698  72.6131613
  58.5902794 102.1588460  73.7105358  44.0049254  96.6880491  87.3804591
  44.6508117  96.1779445  87.8691816  43.7966405  97.4249173  87.9548016
  52.5252864  90.9520536  73.1328487  52.5131534  91.8962376  73.2896758
  53.4176286  90.7690681  72.8387948  52.4542428 109.6289426  81.2196244
  51.5038059 109.6291288  81.1060616  52.7574914 108.8822161  80.7032278
  56.3404983  87.5463312  77.3874424  55.5737379  86.9921799  77.5331106
  56.7515688  87.6185181  78.2488575  48.3446744  93.8348108  91.4779605
  49.2078206  93.4784913  91.6882930  47.7712155  93.4962003  92.1655009
  62.6993107 114.1865640  71.5520471  62.9518628 113.6647161  70.7903934
  61.7617666 114.0231786  71.6547154  67.7436390 113.1901419  79.3595214
  68.5299479 112.7720842  79.0085631  68.0075094 114.0947511  79.5276862
  64.4026424 110.5793793  72.4552883  64.5700826 111.4474029  72.8223355
  64.2123593 110.7421075  71.5314173  64.3815645 113.0351450  73.4399550
  64.2615270 113.4808501  74.2785031  63.6868233 113.3836768  72.8813088
  70.0800711 113.5072924  74.2679884  70.9918567 113.7400310  74.0927582
  69.5710358 114.0909968  73.7054963  67.4236686 109.6830960  82.5169745
  66.5621165 109.9812213  82.8086483  67.4499120 109.9001358  81.5850778
  63.1767141 114.3496302  75.7333116  63.8791184 114.8017346  76.2007042
  62.8447770 113.7080121  76.3613009  67.7653369 104.6867807  84.3394115
  67.4217639 105.5769449  84.2633225  68.1332332 104.4969465  83.4763700
  67.7303652 114.6776418  72.8466550  67.2150275 115.4481023  73.0854937
  67.4580960 114.0041554  73.4699611  65.3150763 109.5226119  77.9051788
  64.4592359 109.1332969  77.7257427  65.7277715 109.6018080  77.0451574
  66.8449910 107.0572462  82.3043348  66.3414705 107.0202597  81.4911153
  67.1380516 107.9665205  82.3640005  63.0892795 107.1411192  81.3109530
  63.9545792 106.9454001  80.9515419  63.1570304 106.9121544  82.2378886
  67.5189955 112.5503510  74.6726331  67.2140091 112.8649659  75.5236474
  68.4720397 112.6284930  74.7153664  60.6955115 109.3713400  78.6825897
  61.2698866 109.1488581  77.9499089  61.2826097 109.4402094  79.4354498
  61.0224702 111.4017861  72.7021782  60.1862014 111.7392547  73.0231057
  60.8829471 111.2666841  71.7648919  62.9977782 106.2454649  77.4100966
  62.3442195 105.9303666  76.7857581  62.9558256 105.6230389  78.1360789
  66.2315523 112.7336582  81.7348614  65.3138084 112.9551529  81.5770302
  66.6475666 112.8082893  80.8760321  67.0150570 114.1327998  76.8651294
  67.7622389 114.6449395  76.5558416  67.2842160 113.8112051  77.7255687
  69.4629408 111.1685114  78.8470083  68.7252164 110.6562500  79.1780326
  69.7156181 110.7285496  78.0353360  69.5641035 103.9461366  79.4411852
  69.8699912 103.0858730  79.1537767  70.2893640 104.5378986  79.2410846
  63.8362115 114.2415159  79.9488043  63.8910724 113.2888996  79.8730520
  63.0253317 114.3974598  80.4329342  61.7754475 112.8592219  77.7078422
  60.9622340 113.1586390  78.1143614  62.2713469 112.4647908  78.4252905
  61.2668549 110.4310575  83.3239657  61.9067929 110.2899334  82.6262621
  60.4346080 110.1445088  82.9478259  58.2697166 110.4010900  78.1012644
  58.5303983 111.3156233  77.9921805  59.0914338 109.9335342  78.2509257
  60.8963082 111.2465088  69.9019689  60.0192548 111.1253889  69.5381935
  61.3720835 110.4551167  69.6498577  57.2199944 110.9232445  84.4246219
  57.1358133 110.3158114  83.6896629  56.3982651 111.4141463  84.4255716
  67.3923658 109.4086008  79.7916414  67.8892358 108.6555970  79.4717485
  66.6210640 109.4450325  79.2259624  63.9758627 111.5503391  79.5188099
  63.6056414 110.9974431  80.2069005  64.4717719 110.9461525  78.9663099
  71.8625990 114.0075015  77.9004872  72.3286442 114.8403006  77.8265175
  72.3133491 113.5419996  78.6050130  69.8342653 106.3755602  81.9395773
  68.9205733 106.6059828  82.1077980  70.2635754 106.4594046  82.7909806
  59.3723960 108.9607382  85.7641205  59.4365287 109.8222213  85.3518603
  59.3091081 108.3481384  85.0313564  59.1536023 110.9162940  81.3260143
  58.4322608 111.5298908  81.1867616  59.9429278 111.4520705  81.2476789
  57.3529617 110.5221041  75.4671919  57.0242323 109.6418420  75.2847025
  57.7068988 110.4668710  76.3548309  60.4671440 110.8094011  75.8347397
  60.8067513 111.3379932  75.1126005  60.9143561 111.1474417  76.6105964
  63.8131353 106.2780374  83.7377788  64.6357422 105.8040852  83.6156678
  64.0569417 107.0570858  84.2376474  62.4539588 109.3068633  74.0340690
  63.1747950 109.6849885  73.5304407  61.8304892 110.0257509  74.1375668
  66.5970710 110.0113782  74.9699022  66.8134325 110.8938419  74.6687850
  66.1164778 109.6199995  74.2404664  61.3369932 112.9699495  81.5469767
  61.1914513 113.2839798  82.4394048  60.8595136 113.5884395  80.9940665
  63.1966315 109.9602043  81.5950656  63.1827884 109.0643136  81.2582954
  63.9138743 109.9672706  82.2288942  62.6003211 108.8416423  76.8638226
  62.7219122 107.9133069  77.0629114  62.3105253 108.8555109  75.9516542
  65.4694401 106.5271333  80.0004946  65.4916098 106.5910667  79.0456926
  65.8862460 105.6875842  80.1945452  58.5981550 112.1864091  73.4601344
  57.9050795 112.2608446  72.8041380  58.3533302 111.4224435  73.9822861
  67.2695207 103.7459692  80.8640835  67.5496960 103.0782881  81.4901261
  68.0545814 103.9388788  80.3515499  65.4575474 114.2579499  69.7681913
  66.4034578 114.1285707  69.8370332  65.0789719 113.5194161  70.2451342
  71.4297358 105.9235505  79.7308805  71.2322179 105.6150593  80.6152137
  72.0397064 106.6497144  79.8606735  63.6418391 112.1829475  69.7036799
  62.7349846 111.8862588  69.7799512  63.9194372 111.8859293  68.8371085
  65.2580457 106.7266365  75.8581040  64.4481185 106.3813450  76.2336286
  65.9464873 106.4173909  76.4468652  67.1871005 105.8044412  77.4805337
  67.7402043 106.2239865  78.1395360  67.4241091 104.8780160  77.5228293
  62.4117175 109.0416411  69.8448778  63.2736339 109.3671309  70.1044595
  62.5967520 108.2547906  69.3321844  70.5649812 107.9144937  76.9884001
  69.9848481 108.5729741  76.6062053  70.2985745 107.0922282  76.5771418
  69.0153378 107.3149995  79.1905321  69.5153157 107.4266529  78.3819640
  69.6588986 107.0111048  79.8306130  69.3474690 110.0745027  76.0440349
  68.4600545 110.3594678  75.8260544  69.7628679 109.9138791  75.1967626
  72.6989226 110.0991548  79.7594688  73.4749616 110.5888001  80.0319305
  71.9737360 110.5249603  80.2166558  69.3215714 115.5899563  76.2590639
  69.2650915 116.0468115  75.4198272  69.8744056 114.8290248  76.0813482
  73.1320520 111.3789295  77.0840759  72.8757454 110.9785931  77.9148967
  72.5073388 112.0933089  76.9590898  63.3646618 106.2812454  73.1328487
  63.3525288 107.2254293  73.2896758  64.2570040 106.0982599  72.8387948
  67.1798738 102.8755230  77.3874424  66.4131134 102.3213717  77.5331106
  67.5909443 102.9477099  78.2488575  13.9926350  15.8252499  69.0087313
  14.6304760  15.7059246  68.3050653  13.8747193  16.7733343  69.0675265
  10.8016057  15.7779927  68.9448837  10.4634568  15.6620992  68.0569372
  11.6705825  15.3771092  68.9249843   6.6602872  17.6315403  64.9345728
   6.0967737  17.5405340  64.1662016   6.5455267  16.8115308  65.4148221
  11.2835840  16.9314779  74.9035043  11.2724480  16.5367577  74.0315546
  11.4456479  16.1980851  75.4968814   4.2067304  19.1266595  67.7729949
   4.9988596  18.7857420  67.3576248   4.4463954  19.2361570  68.6932102
  12.2402431  21.2986371  60.2460193  11.5890411  21.8840452  59.8594207
  13.0346794  21.8292566  60.3055231   6.1658058  18.3875508  60.6447327
   6.9388934  17.8404495  60.5060203   6.5183457  19.2519758  60.8561789
   8.0043101  19.7151891  73.8514227   7.7132967  20.6197521  73.7360893
   8.6400085  19.7568418  74.5658296   8.9299308  17.0928739  70.4415586
   9.5262880  16.8684761  69.7272549   8.9874279  16.3513485  71.0441034
   8.5024336  14.5468174  58.2765777   8.7549857  14.0249696  57.5149240
   7.5648895  14.3834320  58.3792461  13.5467619  13.5503953  66.0840521
  14.3330708  13.1323376  65.7330938  13.8106323  14.4550045  66.2522169
  13.7177696  18.9876803  60.7829177  13.0823529  19.0611430  61.4950082
  13.3875102  19.5770402  60.1048257  18.9476046  13.4879186  66.9873499
  19.6801218  12.9178403  67.2211329  18.1915402  13.1000786  67.4280005
   8.2220625  16.4496280  60.4790152   8.1056883  15.7741184  61.1471237
   8.3322885  15.9628654  59.6622305  10.5652166  15.9106427  64.1836842
  10.2010373  15.3837048  64.8949763  11.4219281  15.5204896  64.0103327
  16.4701466   7.2000760  71.4468108  16.1384791   8.0696171  71.2229323
  15.8747080   6.8837044  72.1262138  10.2057653  10.9396327  59.1798190
  10.3732055  11.8076564  59.5468661  10.0154822  11.1023609  58.2559479
  12.9632986  19.4013306  70.8464020  12.6633709  20.3038345  70.7379828
  12.6184045  19.1345489  71.6985173   6.4145467  15.8527103  66.8800725
   5.4895964  15.7203317  67.0878417   6.6629880  16.6321322  67.3770667
  16.3630130  11.9195846  68.5261458  15.4547007  11.8511255  68.2320219
  16.3117725  12.3967791  69.3543283  10.1846873  13.3953985  60.1644857
  10.0646499  13.8411035  61.0030337   9.4899462  13.7439302  59.6058395
   3.7754278  15.4960376  67.7144514   3.9046659  15.7494855  68.6283926
   3.0951730  16.0888084  67.3949169   7.9453766  26.1657626  63.8134988
   7.8677795  27.1165451  63.8923469   7.3415409  25.8203499  64.4709914
  10.4370995  13.3385492  76.4696355   9.6604329  13.8979412  76.4599220
  11.0761558  13.8242275  76.9911225  18.2291776  10.1212285  70.3039332
  17.5866156  10.4144818  69.6579126  17.7246704  10.0065205  71.1092528
  15.8831940  13.8675458  60.9925191  16.7949796  14.1002845  60.8172889
  15.3741587  14.4512502  60.4300270   8.6917368  16.1470945  76.0314322
   9.4332052  16.6855989  75.7549146   7.9854353  16.7737234  76.1885874
  14.1672707  18.2900086  74.6286484  14.5756063  17.8482496  73.8841116
  13.4449969  17.7152713  74.8820676  10.5203777  13.2272692  72.0020041
  11.3664972  13.6512106  72.1454690  10.4602415  12.5706317  72.6958604
  14.4901522  18.8501276  68.3838772  13.8610384  19.0146990  67.6814840
  14.1027184  19.2642886  69.1549736  18.3690754  19.7855714  65.7383136
  17.6841792  20.1654615  65.1880170  18.4534603  20.3951041  66.4715084
  13.6703223  10.8877061  73.6601214  13.4264155  11.6419121  73.1235490
  13.9463153  11.2662408  74.4948461  15.6241685  17.4315673  72.3378480
  15.8358581  18.0747433  71.6612861  15.5771434  16.5977990  71.8700410
  13.2267914  10.0433494  69.2415052  12.3652393  10.3414747  69.5331789
  13.2530349  10.2603893  68.3096085  10.0429484  18.5875684  65.6488858
  10.5067829  18.8663387  64.8593480   9.7786282  17.6859129  65.4661948
   6.9353565  18.1347166  68.5868621   7.5054922  18.5634434  67.9486105
   7.5261677  17.8529751  69.2852806   8.9798370  14.7098837  62.4578423
   9.6822413  15.1619880  62.9252349   8.6478998  14.0682656  63.0858316
   7.4278731  13.3010593  76.8329632   6.7977392  13.9826874  77.0665029
   7.3214819  13.1893675  75.8882770  16.7387513  20.3087629  70.5100837
  17.5604957  19.9067816  70.2283519  16.7349916  20.2055863  71.4616953
  10.5044117  19.8571672  72.6661548  10.5688549  20.3192079  73.5019719
   9.7955041  19.2269037  72.7943857  24.8293506  16.6526377  66.8585809
  24.0757215  16.0833775  66.7029813  24.9641048  16.6189042  67.8056443
  10.2192134  21.5239779  62.5340528  10.0837809  22.3691315  62.9625376
  10.7601947  21.7259057  61.7706462   3.6721532  19.0415217  63.1068453
   4.1846052  19.8358468  63.2574018   4.3244245  18.3441508  63.0402054
   5.4816417  22.1580974  65.1891206   5.6583045  23.0798938  65.0012190
   6.2773250  21.8439393  65.6185586   4.7668773  14.2045606  75.0653369
   4.6522288  13.3030863  75.3660468   3.9113291  14.4509302  74.7138186
  11.8460611  22.1463346  76.6640870  11.4024465  21.3599724  76.3461774
  12.5077824  22.3342496  75.9984761   6.6047732  23.6759147  71.1901548
   7.1555157  23.5476211  70.4178542   5.7659208  23.9754036  70.8396441
  13.9441849  22.4266146  74.6922271  13.9260324  23.2475027  74.2002540
  14.8661769  22.3020221  74.9172412  10.4014903  19.9410275  75.5345780
  10.9343240  19.1798563  75.3045088   9.8728984  19.6483927  76.2769934
   1.6370449  17.3703872  63.8828024   2.4745671  17.7800880  63.6661731
   1.8148716  16.4303314  63.8528217  13.5334881  15.0378952  59.5711856
  13.0181504  15.8083557  59.8100244  13.2612189  14.3644088  60.1944918
  11.1181992   9.8828653  64.6297095  10.2623588   9.4935503  64.4502734
  11.5308944   9.9620614  63.7696880  18.5069155  17.7911307  61.5065030
  17.7298598  17.4522466  61.0620192  19.1860636  17.7963930  60.8319995
  13.3221184  12.9106044  61.3971638  13.0171319  13.2252194  62.2481781
  14.2751626  12.9887464  61.4398971  11.7667616  19.0696268  63.0464592
  11.2388977  18.3349027  62.7337829  11.2655118  19.8470944  62.8004560
  16.7460462  17.2645288  68.1631638  16.0884136  17.9544550  68.2511767
  17.5500861  17.6541720  68.5065624  15.5565921  15.6189661  66.2135580
  16.0697802  16.2519653  66.7157289  16.2067144  15.0190856  65.8478940
   9.9120216  16.8876478  56.0499565   9.0047278  16.6565731  56.2490714
  10.4091248  16.0914097  56.2373546  12.8188295  25.5973985  58.9696251
  12.1449994  25.9005682  59.5781209  13.2054117  26.4003066  58.6201708
  12.0346751  13.0939116  68.4593920  11.1169313  13.3154063  68.3015608
  12.4506895  13.1685427  67.6005628  12.8181799  14.4930532  63.5896600
  13.5653618  15.0051929  63.2803723  13.0873389  14.1714585  64.4500994
  11.0908449  16.9889073  60.5723555  10.1819669  16.7048106  60.6696025
  11.1203533  17.4088151  59.7126862  16.3227717  20.5995662  64.3414722
  15.8690044  19.7586572  64.3979913  15.6921683  21.2357061  64.6789502
  15.2660636  11.5287648  65.5715390  14.5283393  11.0165035  65.9025632
  15.5187410  11.0888030  64.7598667  14.7660656  22.4372159  65.2764540
  15.0583630  22.9977216  64.5576906  15.2759277  22.7300720  66.0317700
   9.6393343  14.6017693  66.6733350   9.6941953  13.6491530  66.5975827
   8.8284545  14.7577133  67.1574649  10.7884537  18.5297817  57.9111633
  10.3503967  17.8133675  57.4517271  11.5294978  18.7573931  57.3496725
   7.5785703  13.2194753  64.4323729   6.7653569  13.5188924  64.8388921
   8.0744698  12.8250442  65.1498211   9.7294281  23.2152510  66.3657994
   9.6870460  23.4413356  65.4366526  10.6456980  22.9815885  66.5143795
  13.1759915  13.6836578  73.2638623  13.5309303  13.9108051  74.1233089
  13.8232046  14.0154954  72.6415878  18.9057652  16.8055014  63.9687952
  18.7675551  16.9956610  63.0409141  18.5493871  17.5674396  64.4256003
  18.9327032  18.8731541  68.9799223  19.3663538  18.7806830  69.8282277
  19.6458612  18.8489041  68.3419239   7.8460082  20.0915539  66.1619956
   8.6400680  19.5965859  65.9602531   7.1351774  19.5633402  65.7987662
  12.6654926  22.4733635  70.5132324  12.7191949  23.0424571  71.2810040
  11.7969708  22.6435520  70.1486361  19.7942581  18.9155241  71.5132109
  19.9878471  19.8201052  71.7591384  19.6943199  18.4562660  72.3470694
  11.4478892   8.8013132  74.0122436  10.8006807   9.5003081  73.9186913
  12.2179907   9.2349276  74.3798684  14.8557690  19.0661984  77.0872989
  14.7043196  18.8372536  76.1703073  14.8462369  20.0232585  77.1004334
  11.6243026  16.6393897  72.0719256  12.5535086  16.7905056  71.8988223
  11.2034056  16.7277918  71.2167902  10.4231358  20.6644561  69.8417793
  10.2842444  20.2963346  70.7143732   9.6345954  21.1792201  69.6701751
  11.0179510  25.7653658  61.1843330  11.1931266  25.2941701  61.9988953
  10.3312298  26.3919424  61.4124591  11.9736573  20.0426164  67.2306631
  11.6386406  20.0026934  68.1264281  11.4740519  19.3770880  66.7577041
   5.9480817  15.4493794  72.7559212   5.8100615  14.7174033  73.3570751
   6.8585741  15.3602694  72.4743400  14.9095765  17.3882198  57.5043691
  14.2924935  16.6629026  57.4076744  14.4412253  18.1491558  57.1610765
   8.5763118  15.1613753  72.2442892   9.2862736  14.5206945  72.2029510
   8.5332426  15.4126648  73.1669073  16.5649896  22.0981107  75.1649471
  16.5062443  21.4140327  74.4980054  16.9669415  22.8400097  74.7130097
   7.2892052  12.1478971  74.0638532   6.7529409  11.6969710  74.7160128
   6.7008760  12.2824880  73.3208996   5.5840595  28.9143020  67.9583190
   5.8237193  29.5461545  68.6362209   4.7409792  28.5631060  68.2448549
  16.5667304  20.0620690  73.3963451  15.6794082  19.7246612  73.5189850
  17.1365855  19.3303722  73.6332216  10.0968457  24.7222143  70.3624694
  10.0238629  25.5277114  70.8743999   9.6545850  24.9214109  69.5372716
   9.8858237  23.9593913  63.8727516   9.1025759  24.5015593  63.9665740
  10.5850982  24.4767892  64.2721757  13.1954887   9.7688542  66.5161721
  13.6923586   9.0158505  66.1962791  12.4241868   9.8052859  65.9504930
  21.0484644  15.4728908  68.1580013  21.0374520  16.3553623  67.7873946
  20.1802024  15.1200459  67.9634550  12.5567141  24.6208977  72.5182853
  13.2695113  25.2556442  72.4458754  12.0657169  24.7172843  71.7022855
  14.2784668  18.5260230  64.0900144  13.3440946  18.6461692  63.9204849
  14.4561336  17.6232696  63.8260154   9.7789856  11.9105925  66.2433406
   9.4087643  11.3576966  66.9314311  10.2748948  11.3064059  65.6908406
  17.6657219  14.3677549  64.6250179  18.1317671  15.2005540  64.5510481
  18.1164719  13.9022530  65.3295437   7.6079054  22.3703420  73.3388424
   8.3088514  23.0039903  73.4917818   7.1374169  22.7118152  72.5784063
  15.7333450  20.7121370  61.6236331  16.0093294  20.5977965  62.5330205
  14.8637949  20.3138855  61.5848504  15.6373882   6.7358136  68.6641080
  14.7236961   6.9662363  68.8323287  16.0666983   6.8196580  69.5155112
  15.4080340  14.9248028  71.1640974  14.7551790  15.1723935  70.5093427
  15.7860720  14.1112166  70.8303451  12.3687514  24.9607721  65.2669144
  12.5509909  24.1429377  65.7296897  13.1920500  25.1775413  64.8294034
  12.7029680  23.8875906  62.5284193  13.2317446  23.3768361  61.9154355
  12.9657899  23.5718436  63.3929726  11.4567913  15.6667839  77.6507011
  10.7808550  15.5661968  78.3209386  12.2795547  15.5107053  78.1143008
   3.2046772  21.9039775  70.2719526   3.7900209  21.1583463  70.4047431
   3.0071611  22.2143732  71.1556190   6.0585427  24.9391023  65.2881969
   5.3895803  25.4237150  64.8046009   5.9198297  25.1860243  66.2025347
  10.1990696  26.9734766  71.8864627  10.7509004  27.1366388  72.6513712
  10.5396889  27.5639204  71.2144652  15.0501570  21.7996024  77.7413281
  15.5941474  22.4125982  77.2468236  14.4688415  22.3575602  78.2580294
  13.3359083  24.9216742  68.8728309  13.2110223  24.1206482  68.3639255
  13.9938174  25.4162935  68.3842279  15.3993992  22.7225762  70.5007859
  14.4524327  22.6031113  70.4286186  15.7476765  21.8348260  70.5834121
  12.4040425  22.5178478  66.7012212  12.2565387  21.5895186  66.8819782
  13.2293918  22.5398569  66.2169287  16.0074547  23.3407037  67.7877084
  16.9321094  23.1349898  67.6501535  15.8389850  23.0923438  68.6966426
  12.4001939  10.3716316  61.6944329  12.6165554  11.2540954  61.3933157
  11.9196006   9.9802529  60.9649971   7.1401161  13.3302029  68.2715073
   6.9945741  13.6442332  69.1639355   6.6626364  13.9486929  67.7185972
  10.8523674  10.7541917  70.3649090  10.5941452  11.6758988  70.3633421
  10.3208715  10.3572352  71.0549554  15.7969863  23.8592704  63.1439176
  15.9706741  23.2939127  62.3913028  16.2898754  24.6593599  62.9618666
   1.6146823  15.8707373  71.2102735   1.0700291  16.6467181  71.3423009
   2.4926173  16.2178178  71.0521856  21.6509254  16.6229127  64.7629475
  22.0940400  15.8736452  64.3648599  20.7735765  16.6139264  64.3803207
  16.7845036  23.1759469  60.2436074  17.4795940  23.7966161  60.4623389
  17.1268186  22.3254820  60.5188452  18.6836459  20.6259174  61.7723405
  19.2087783  20.9646447  61.0472725  18.5958811  19.6906190  61.5886539
  10.3456507  24.5393248  73.9013281  10.6543634  24.2942395  74.7735981
  11.1431989  24.7439886  73.4132152  10.3677119  26.6931157  66.1318658
   9.9282110  26.2007536  66.8251515  11.1185236  26.1504125  65.8910733
   2.8469458  22.8842698  66.1343286   3.6727478  22.5846470  65.7541930
   2.4963510  22.1150321  66.5833075   7.8150992  22.2369167  68.2040960
   7.1931001  21.5739872  67.9043188   8.4855858  22.2630298  67.5214607
  18.3730365  21.2592078  77.0774603  17.5825908  21.2416217  76.5379102
  18.1363719  21.7980372  77.8323639  18.4928240  18.1084544  74.3907331
  18.5426245  17.9434552  75.3322854  18.3842163  17.2411803  74.0005212
   7.3764498  20.7873090  61.6799420   7.5252619  21.4708554  61.0266093
   8.1830942  20.7678180  62.1948876  15.7832002  14.0915472  75.7066638
  16.6841865  13.9521937  75.4150636  15.8579977  14.2569927  76.6464815
  10.1174807  11.4682327  74.5519824   9.2478117  11.7615893  74.2802413
  10.3534288  12.0522772  75.2727088  19.9946437  20.5281486  74.6349353
  19.7031245  20.8911466  75.4712814  19.3818568  19.8148494  74.4562685
  21.1942119  18.0934366  67.1551923  22.0289010  18.5324170  67.3189483
  21.3301248  17.6173019  66.3360169  18.2433625  15.6514100  73.1029411
  18.7187746  15.8441747  72.2948262  17.3199190  15.7073286  72.8572794
   5.1317131  16.8138268  62.6860489   4.8863173  15.9100598  62.8840699
   5.3013046  16.8155418  61.7439967  12.8213841   7.6861944  72.0685245
  13.3395785   8.4222971  71.7431733  12.4668974   7.9925937  72.9032004
  10.8759904  23.2821220  59.1511168  10.3033871  23.9011407  58.6981639
  11.4492698  23.8320582  59.6851090  16.9435294  12.5279860  71.3357716
  17.8952717  12.6277958  71.3569940  16.7738744  11.7358129  71.8455801
  14.9649673   9.6135444  71.5217117  14.3699605   9.8940456  70.8263606
  14.6799370  10.1029345  72.2933858  14.0957164  23.5658370  60.2819750
  15.0287837  23.5003932  60.4852625  14.0080377  24.4014637  59.8234283
  16.7245180  22.8824241  57.2423697  16.6458812  22.5484104  58.1359455
  17.5454847  23.3746009  57.2415170  19.4223372  15.7485980  70.4500016
  19.3899692  14.8101981  70.6359700  20.0323995  15.8270017  69.7165841
  11.2606702  14.6182033  56.4927220  12.2065807  14.4888241  56.5615638
  10.8820947  13.8796695  56.9696648  19.5717860  12.5397024  70.4958299
  19.0556909  11.7555480  70.3088228  20.4557809  12.2115740  70.6604819
  17.2328587   6.2838039  66.4554112  17.0353408   5.9753127  67.3397444
  17.8428293   7.0099678  66.5852042  25.2399921  16.8101987  69.5906053
  25.9703310  16.5487275  70.1513756  24.6306867  16.0730709  69.6308121
  23.3215219  14.9509850  70.1880504  22.5948382  14.8165815  69.5796996
  22.9062505  15.2586678  70.9937222  11.1445395  18.6699779  77.9527877
  12.0648404  18.8478378  78.1467924  11.1094978  17.7255825  77.8007576
   9.4449620  12.5432010  56.4282105   8.5381075  12.2465122  56.5044819
   9.7225601  12.2461828  55.5616392   4.1407468  16.5800814  70.5950658
   4.3593477  17.5117922  70.6138692   4.5533241  16.2208788  71.3805462
  16.3681041   8.2747471  63.7129308  15.7879710   8.9332275  63.3307360
  16.1016973   7.4524816  63.3016725  14.8184607   7.6752529  65.9150628
  15.3184385   7.7869063  65.1064947  15.4620215   7.3713582  66.5551436
   8.8766603  15.5831159  78.8018469   8.3933685  16.3831519  79.0082358
   8.9627542  15.5939103  77.8485913   2.1452563  17.4159538  66.7240288
   2.1223251  17.5147225  65.7722171   2.4553199  18.2624689  67.0457454
   4.8039940  19.4735693  70.8386903   5.7583194  19.4419636  70.7716834
   4.6052464  19.0126317  71.6537129   5.3939323  18.0436809  73.4057700
   6.2132212  18.5380888  73.4292538   5.6676130  17.1268777  73.3775268
  15.1505919  10.4347562  62.7685656  14.2631774  10.7197212  62.5505851
  15.5659908  10.2741325  61.9212933  18.5020455  10.4594083  66.4839995
  19.2780845  10.9490535  66.7564612  17.7768589  10.8852137  66.9411865
  20.9393014  11.1721702  67.5413936  21.5337504  10.9317438  66.8307244
  21.0119597  10.4528832  68.1687472   3.1590169  25.0155313  67.8557100
   3.0244637  24.2555714  67.2895099   2.7422231  25.7396213  67.3885889
  14.2949132  20.1992236  56.8633676  14.9984982  20.4042239  57.4791331
  13.5711781  20.7668998  57.1282759  15.1246943  15.9502097  62.9835946
  15.0682144  16.4070649  62.1443578  15.6775285  15.1892782  62.8058789
  18.9351748  11.7391829  63.8086065  18.6788683  11.3388465  64.6394273
  18.3104616  12.4535623  63.6836205  23.2464086  14.4787903  66.3157357
  22.6863644  14.5481092  67.0888919  22.6407590  14.3028887  65.5956853
   6.3159295  25.9124630  68.0675543   6.1991679  26.8570062  67.9654233
   5.4951741  25.6098191  68.4561342  16.2035830  20.6374765  58.9132136
  17.0381434  20.2055964  58.7309611  16.0420173  20.4656779  59.8409030
  15.8581722  17.1406879  60.2788475  15.8030526  16.9751150  59.3376919
  15.2327777  17.8482912  60.4350665  13.1727629  19.4455791  79.6042038
  14.0418789  19.6196443  79.2428673  12.6934380  20.2650207  79.4817767
   7.3413809  26.5652892  71.2831472   8.2441056  26.5976502  71.5997967
   7.1151179  25.6353343  71.2977807   9.0967411  25.3183878  67.9441550
   8.1463042  25.3185740  67.8305922   9.3999897  24.5716613  67.4277585
  24.8320105  31.1544417  69.0087313  25.4698515  31.0351164  68.3050653
  24.7140948  32.1025261  69.0675265  21.6409811  31.1071845  68.9448837
  21.3028323  30.9912909  68.0569372  22.5099579  30.7063010  68.9249843
  17.4996627  32.9607321  64.9345728  16.9361492  32.8697258  64.1662016
  17.3849022  32.1407226  65.4148221  22.1229594  32.2606696  74.9035043
  22.1118235  31.8659495  74.0315546  22.2850233  31.5272769  75.4968814
  15.0461059  34.4558513  67.7729949  15.8382351  34.1149337  67.3576248
  15.2857709  34.5653488  68.6932102  23.0796185  36.6278289  60.2460193
  22.4284165  37.2132369  59.8594207  23.8740548  37.1584484  60.3055231
  17.0051813  33.7167426  60.6447327  17.7782689  33.1696413  60.5060203
  17.3577211  34.5811675  60.8561789  18.8436855  35.0443808  73.8514227
  18.5526721  35.9489439  73.7360893  19.4793839  35.0860336  74.5658296
  19.7693062  32.4220657  70.4415586  20.3656634  32.1976679  69.7272549
  19.8268034  31.6805402  71.0441034  19.3418090  29.8760092  58.2765777
  19.5943611  29.3541613  57.5149240  18.4042649  29.7126237  58.3792461
  24.3861373  28.8795870  66.0840521  25.1724462  28.4615294  65.7330938
  24.6500078  29.7841963  66.2522169  24.5571451  34.3168721  60.7829177
  23.9217284  34.3903347  61.4950082  24.2268857  34.9062320  60.1048257
  29.7869800  28.8171104  66.9873499  30.5194972  28.2470320  67.2211329
  29.0309156  28.4292704  67.4280005  19.0614379  31.7788198  60.4790152
  18.9450637  31.1033101  61.1471237  19.1716639  31.2920572  59.6622305
  21.4045920  31.2398345  64.1836842  21.0404127  30.7128966  64.8949763
  22.2613036  30.8496814  64.0103327  27.3095221  22.5292678  71.4468108
  26.9778545  23.3988089  71.2229323  26.7140834  22.2128962  72.1262138
  21.0451407  26.2688245  59.1798190  21.2125809  27.1368481  59.5468661
  20.8548576  26.4315526  58.2559479  23.8026740  34.7305224  70.8464020
  23.5027463  35.6330263  70.7379828  23.4577800  34.4637407  71.6985173
  17.2539222  31.1819021  66.8800725  16.3289718  31.0495235  67.0878417
  17.5023635  31.9613240  67.3770667  27.2023884  27.2487764  68.5261458
  26.2940761  27.1803172  68.2320219  27.1511480  27.7259709  69.3543283
  21.0240628  28.7245902  60.1644857  20.9040253  29.1702953  61.0030337
  20.3293216  29.0731220  59.6058395  14.6148033  30.8252294  67.7144514
  14.7440414  31.0786773  68.6283926  13.9345484  31.4180002  67.3949169
  18.7847520  41.4949544  63.8134988  18.7071550  42.4457369  63.8923469
  18.1809164  41.1495417  64.4709914  21.2764750  28.6677409  76.4696355
  20.4998084  29.2271330  76.4599220  21.9155313  29.1534192  76.9911225
  29.0685530  25.4504202  70.3039332  28.4259911  25.7436735  69.6579126
  28.5640459  25.3357123  71.1092528  26.7225694  29.1967375  60.9925191
  27.6343550  29.4294762  60.8172889  26.2135341  29.7804420  60.4300270
  19.5311122  31.4762863  76.0314322  20.2725806  32.0147907  75.7549146
  18.8248108  32.1029152  76.1885874  25.0066462  33.6192003  74.6286484
  25.4149818  33.1774414  73.8841116  24.2843723  33.0444631  74.8820676
  21.3597532  28.5564610  72.0020041  22.2058727  28.9804024  72.1454690
  21.2996169  27.8998234  72.6958604  25.3295276  34.1793194  68.3838772
  24.7004139  34.3438908  67.6814840  24.9420938  34.5934803  69.1549736
  29.2084508  35.1147632  65.7383136  28.5235546  35.4946533  65.1880170
  29.2928358  35.7242958  66.4715084  24.5096977  26.2168978  73.6601214
  24.2657909  26.9711039  73.1235490  24.7856908  26.5954326  74.4948461
  26.4635440  32.7607591  72.3378480  26.6752335  33.4039351  71.6612861
  26.4165188  31.9269907  71.8700410  24.0661669  25.3725411  69.2415052
  23.2046148  25.6706665  69.5331789  24.0924103  25.5895810  68.3096085
  20.8823238  33.9167602  65.6488858  21.3461584  34.1955305  64.8593480
  20.6180036  33.0151047  65.4661948  17.7747319  33.4639084  68.5868621
  18.3448676  33.8926352  67.9486105  18.3655431  33.1821668  69.2852806
  19.8192124  30.0390754  62.4578423  20.5216168  30.4911798  62.9252349
  19.4872753  29.3974573  63.0858316  18.2672486  28.6302511  76.8329632
  17.6371146  29.3118792  77.0665029  18.1608574  28.5185593  75.8882770
  13.5617458  28.2974307  67.7595556  12.7716512  28.5531836  67.2835667
  14.0528706  29.1122645  67.8647597  27.5781268  35.6379546  70.5100837
  28.3998712  35.2359733  70.2283519  27.5743671  35.5347780  71.4616953
  15.5132204  28.6618886  64.7179033  14.7163367  28.7737581  65.2362529
  15.2857796  29.0005539  63.8519923  21.3437871  35.1863590  72.6661548
  21.4082304  35.6483997  73.5019719  20.6348795  34.5560954  72.7943857
  11.8455161  28.5504797  70.1910547  12.0963200  29.4351807  70.4568123
  12.3814710  28.3709399  69.4185639  35.6687261  31.9818295  66.8585809
  34.9150969  31.4125693  66.7029813  35.8034802  31.9480959  67.8056443
  21.0585889  36.8531697  62.5340528  20.9231564  37.6983233  62.9625376
  21.5995701  37.0550975  61.7706462  17.5453229  22.9323277  79.1954883
  17.1520174  22.3789475  79.8702527  18.3619369  23.2433855  79.5861401
  14.5115286  34.3707135  63.1068453  15.0239807  35.1650385  63.2574018
  15.1637999  33.6733425  63.0402054  16.3210171  37.4872891  65.1891206
  16.4976799  38.4090856  65.0012190  17.1167005  37.1731311  65.6185586
  20.4621190  24.3481156  76.7875140  21.2030903  24.9488309  76.7079602
  20.6939112  23.6058794  76.2293182  15.6062528  29.5337523  75.0653369
  15.4916043  28.6322780  75.3660468  14.7507045  29.7801220  74.7138186
  17.4441486  39.0051065  71.1901548  17.9948912  38.8768128  70.4178542
  16.6052962  39.3045954  70.8396441  24.7835603  37.7558063  74.6922271
  24.7654079  38.5766944  74.2002540  25.7055523  37.6312139  74.9172412
  21.2408658  35.2702193  75.5345780  21.7736994  34.5090481  75.3045088
  20.7122739  34.9775845  76.2769934  24.4078353  20.3762259  71.0639421
  24.0642622  21.2663901  70.9878532  24.7757315  20.1863917  70.2009006
  12.4764203  32.6995789  63.8828024  13.3139425  33.1092798  63.6661731
  12.6542471  31.7595232  63.8528217  24.3728635  30.3670870  59.5711856
  23.8575259  31.1375475  59.8100244  24.1005944  29.6936006  60.1944918
  21.9575746  25.2120571  64.6297095  21.1017343  24.8227421  64.4502734
  22.3702698  25.2912532  63.7696880  23.4874893  22.7466914  69.0288655
  22.9839688  22.7097049  68.2156460  23.7805500  23.6559657  69.0885311
  19.7317779  22.8305644  68.0354836  20.5970776  22.6348452  67.6760726
  19.7995288  22.6015996  68.9624193  29.3462909  33.1203225  61.5065030
  28.5692352  32.7814384  61.0620192  30.0254390  33.1255848  60.8319995
  24.1614938  28.2397962  61.3971638  23.8565074  28.5544111  62.2481781
  25.1145381  28.3179382  61.4398971  22.6061370  34.3988185  63.0464592
  22.0782732  33.6640945  62.7337829  22.1048873  35.1762862  62.8004560
  27.5854216  32.5937206  68.1631638  26.9277891  33.2836467  68.2511767
  28.3894615  32.9833638  68.5065624  17.3380098  25.0607852  65.4071203
  17.9123850  24.8383033  64.6744396  17.9251080  25.1296546  66.1599804
  26.3959675  30.9481579  66.2135580  26.9091557  31.5811570  66.7157289
  27.0460899  30.3482774  65.8478940  17.6649685  27.0912313  59.4267088
  16.8286997  27.4286999  59.7476363  17.5254455  26.9561293  58.4894225
  19.6402766  21.9349101  64.1346273  18.9867178  21.6198118  63.5102887
  19.5983240  21.3124841  64.8606096  20.7513970  32.2168396  56.0499565
  19.8441032  31.9857649  56.2490714  21.2485002  31.4206015  56.2373546
  23.6582049  40.9265903  58.9696251  22.9843748  41.2297600  59.5781209
  24.0447871  41.7294983  58.6201708  22.8740506  28.4231034  68.4593920
  21.9563067  28.6445981  68.3015608  23.2900650  28.4977345  67.6005628
  23.6575554  29.8222450  63.5896600  24.4047373  30.3343847  63.2803723
  23.9267143  29.5006503  64.4500994  21.9302204  32.3180991  60.5723555
  21.0213423  32.0340023  60.6696025  21.9597288  32.7380069  59.7126862
  27.1621471  35.9287580  64.3414722  26.7083798  35.0878490  64.3979913
  26.5315438  36.5648978  64.6789502  26.1054391  26.8579566  65.5715390
  25.3677148  26.3456952  65.9025632  26.3581164  26.4179948  64.7598667
  25.6054411  37.7664077  65.2764540  25.8977385  38.3269134  64.5576906
  26.1153031  38.0592638  66.0317700  26.2066018  19.6355818  66.1657159
  26.5124895  18.7753181  65.8783074  26.9318623  20.2273438  65.9656153
  12.4990374  30.0386505  64.5538757  12.3014774  29.4455865  63.8289824
  11.9437038  29.7338715  65.2714696  20.4787098  29.9309611  66.6733350
  20.5335708  28.9783448  66.5975827  19.6678300  30.0869050  67.1574649
  21.6278292  33.8589734  57.9111633  21.1897722  33.1425593  57.4517271
  22.3688733  34.0865849  57.3496725  18.4179458  28.5486671  64.4323729
  17.6047323  28.8480841  64.8388921  18.9138452  28.1542360  65.1498211
  20.5688036  38.5444428  66.3657994  20.5264215  38.7705274  65.4366526
  21.4850735  38.3107802  66.5143795  24.0153670  29.0128495  73.2638623
  24.3703057  29.2399968  74.1233089  24.6625801  29.3446872  72.6415878
  29.7451406  32.1346931  63.9687952  29.6069305  32.3248527  63.0409141
  29.3887625  32.8966314  64.4256003  17.9093533  26.1205026  70.0484964
  18.5492912  25.9793786  69.3507927  17.0771063  25.8339540  69.6723566
  29.7720786  34.2023458  68.9799223  30.2057293  34.1098747  69.8282277
  30.4852367  34.1780959  68.3419239  18.6853836  35.4207457  66.1619956
  19.4794435  34.9257777  65.9602531  17.9745529  34.8925320  65.7987662
  23.5048681  37.8025552  70.5132324  23.5585703  38.3716489  71.2810040
  22.6363462  37.9727437  70.1486361  14.9936600  29.5650539  62.2379709
  14.0634188  29.5034994  62.4549671  15.0894072  29.0426491  61.4416350
  14.9122149  26.0905351  64.8257951  15.1728966  27.0050685  64.7167111
  15.7339321  25.6229794  64.9754564  16.3847074  27.5043109  71.9956775
  17.0570128  27.2960471  71.3469424  15.5576861  27.3065195  71.5562008
  30.6336336  34.2447159  71.5132109  30.8272226  35.1492969  71.7591384
  30.5336954  33.7854578  72.3470694  22.2872646  24.1305049  74.0122436
  21.6400561  24.8294999  73.9186913  23.0573662  24.5641193  74.3798684
  25.6951444  34.3953902  77.0872989  25.5436951  34.1664453  76.1703073
  25.6856124  35.3524503  77.1004334  22.4636781  31.9685814  72.0719256
  23.3928841  32.1196974  71.8988223  22.0427811  32.0569835  71.2167902
  21.2625112  35.9936479  69.8417793  21.1236198  35.6255263  70.7143732
  20.4739709  36.5084118  69.6701751  21.8573264  41.0945575  61.1843330
  22.0325020  40.6233618  61.9988953  21.1706052  41.7211341  61.4124591
  22.8130328  35.3718082  67.2306631  22.4780160  35.3318851  68.1264281
  22.3134273  34.7062797  66.7577041  16.7874572  30.7785712  72.7559212
  16.6494370  30.0465950  73.3570751  17.6979495  30.6894612  72.4743400
  25.7489519  32.7174116  57.5043691  25.1318690  31.9920944  57.4076744
  25.2806008  33.4783476  57.1610765  19.4156872  30.4905671  72.2442892
  20.1256491  29.8498863  72.2029510  19.3726180  30.7418566  73.1669073
  27.4043651  37.4273024  75.1649471  27.3456197  36.7432244  74.4980054
  27.8063169  38.1692014  74.7130097  18.1285806  27.4770889  74.0638532
  17.5923163  27.0261627  74.7160128  17.5402515  27.6116798  73.3208996
  16.4234350  44.2434938  67.9583190  16.6630948  44.8753462  68.6362209
  15.5803546  43.8922978  68.2448549  17.5388065  26.9359540  56.6264995
  16.6617532  26.8148341  56.2627242  18.0145818  26.1445618  56.3743884
  27.4061058  35.3912608  73.3963451  26.5187837  35.0538530  73.5189850
  27.9759609  34.6595639  73.6332216   9.0590205  31.7236700  66.7206502
   9.7461245  31.4098430  66.1327518   8.9038334  32.6278065  66.4473754
  13.8624927  26.6126896  71.1491526  13.7783116  26.0052566  70.4141936
  13.0407634  27.1035915  71.1501022  20.9362212  40.0514060  70.3624694
  20.8632383  40.8569032  70.8743999  20.4939605  40.2506026  69.5372716
  20.7251991  39.2885831  63.8727516  19.9419513  39.8307511  63.9665740
  21.4244736  39.8059810  64.2721757  24.0348641  25.0980460  66.5161721
  24.5317341  24.3450422  66.1962791  23.2635623  25.1344777  65.9504930
  31.8878399  30.8020826  68.1580013  31.8768275  31.6845541  67.7873946
  31.0195778  30.4492376  67.9634550  25.1178422  33.8552147  64.0900144
  24.1834701  33.9753610  63.9204849  25.2955090  32.9524614  63.8260154
  20.6183610  27.2397843  66.2433406  20.2481398  26.6868883  66.9314311
  21.1142703  26.6355976  65.6908406  28.5050973  29.6969466  64.6250179
  28.9711426  30.5297458  64.5510481  28.9558474  29.2314448  65.3295437
  18.4472809  37.6995338  73.3388424  19.1482268  38.3331821  73.4917818
  17.9767924  38.0410070  72.5784063  26.5727204  36.0413288  61.6236331
  26.8487048  35.9269882  62.5330205  25.7031703  35.6430773  61.5848504
  26.4767636  22.0650053  68.6641080  25.5630716  22.2954280  68.8323287
  26.9060738  22.1488498  69.5155112  26.2474095  30.2539945  71.1640974
  25.5945545  30.5015853  70.5093427  26.6254475  29.4404084  70.8303451
  23.5423434  39.2167824  62.5284193  24.0711200  38.7060278  61.9154355
  23.8051654  38.9010354  63.3929726  22.2961668  30.9959756  77.6507011
  21.6202305  30.8953886  78.3209386  23.1189302  30.8398970  78.1143008
  14.0440527  37.2331693  70.2719526  14.6293964  36.4875381  70.4047431
  13.8465365  37.5435650  71.1556190  16.8979182  40.2682940  65.2881969
  16.2289557  40.7529068  64.8046009  16.7592052  40.5152161  66.2025347
   8.6358181  29.8037293  68.9923969   8.6742281  29.2700884  69.7861088
   8.1298474  29.2772499  68.3734947  16.0148944  24.6501834  72.4886512
  16.0790270  25.5116665  72.0763909  15.9516064  24.0375835  71.7558870
  15.4901216  26.7224966  76.1359546  16.1173255  26.3402044  76.7497070
  14.6329135  26.5039168  76.5015239  25.8895325  37.1287941  77.7413281
  26.4335229  37.7417900  77.2468236  25.3082170  37.6867520  78.2580294
  12.2666759  28.5301395  62.0677901  12.5620200  27.6212074  62.0144955
  11.3654795  28.5089135  61.7458903  15.7961006  26.6057392  68.0505449
  15.0747592  27.2193360  67.9112923  16.5854262  27.1415157  67.9722095
  26.2387746  38.0517680  70.5007859  25.2918082  37.9323031  70.4286186
  26.5870519  37.1640178  70.5834121  18.5987320  23.9411818  74.3246101
  19.1221721  24.1874115  75.0872411  18.3799653  24.7731853  73.9049239
  13.9954601  26.2115493  62.1917226  13.6667307  25.3312872  62.0092332
  14.3493971  26.1563162  63.0793615  23.2434179  37.8470396  66.7012212
  23.0959142  36.9187103  66.8819782  24.0687673  37.8690486  66.2169287
  17.1096424  26.4988463  62.5592704  17.4492496  27.0274384  61.8371312
  17.5568544  26.8368869  63.3351270  26.8468301  38.6698954  67.7877084
  27.7714849  38.4641816  67.6501535  26.6783605  38.4215356  68.6966426
  19.8039865  24.8825514  72.0095772  19.4636685  24.0833327  72.4116452
  19.0978871  25.1827224  71.4372605  20.4556336  21.9674826  70.4623095
  21.2782406  21.4935304  70.3401985  20.6994400  22.7465310  70.9621781
  19.0964571  24.9963084  60.7585996  19.8172933  25.3744337  60.2549713
  18.4729875  25.7151961  60.8620974  23.2395694  25.7008233  61.6944329
  23.4559308  26.5832871  61.3933157  22.7589761  25.3094447  60.9649971
  17.9794915  28.6593947  68.2715073  17.8339496  28.9734250  69.1639355
  17.5020119  29.2778847  67.7185972  19.8391298  25.6496495  68.3195963
  19.8252867  24.7537588  67.9828261  20.5563726  25.6567158  68.9534249
  21.6917429  26.0833835  70.3649090  21.4335207  27.0050905  70.3633421
  21.1602469  25.6864269  71.0549554  26.6363618  39.1884622  63.1439176
  26.8100495  38.6231044  62.3913028  27.1292509  39.9885517  62.9618666
  12.4540577  31.1999291  71.2102735  11.9094045  31.9759099  71.3423009
  13.3319927  31.5470096  71.0521856  19.2428194  24.5310875  63.5883533
  19.3644105  23.6027521  63.7874421  18.9530236  24.5449561  62.6761848
  22.1119384  22.2165785  66.7250253  22.1341081  22.2805118  65.7702232
  22.5287443  21.3770294  66.9190759  32.4903009  31.9521045  64.7629475
  32.9334155  31.2028370  64.3648599  31.6129519  31.9431181  64.3803207
  27.6238790  38.5051386  60.2436074  28.3189695  39.1258079  60.4623389
  27.9661940  37.6546738  60.5188452  13.2406599  30.3269187  74.1032891
  12.4988335  30.4751823  74.6897522  12.9199343  30.5877453  73.2399641
  29.5230213  35.9551092  61.7723405  30.0481537  36.2938365  61.0472725
  29.4352566  35.0198107  61.5886539  13.6863213  38.2134616  66.1343286
  14.5121233  37.9138388  65.7541930  13.3357265  37.4442238  66.5833075
  18.6544746  37.5661084  68.2040960  18.0324755  36.9031789  67.9043188
  19.3249613  37.5922216  67.5214607  11.8871818  36.1320942  67.0932220
  11.0503726  35.7043117  66.9116221  11.8595463  36.3253386  68.0303011
  18.7269274  26.0442872  77.7973466  18.7757429  26.9204995  77.4151235
  19.2691788  25.5020265  77.2245109  29.2124119  36.5883996  77.0774603
  28.4219663  36.5708134  76.5379102  28.9757474  37.1272289  77.8323639
  29.3321994  33.4376462  74.3907331  29.3819999  33.2726469  75.3322854
  29.2235918  32.5703721  74.0005212  18.2158253  36.1165008  61.6799420
  18.3646373  36.8000472  61.0266093  19.0224696  36.0970098  62.1948876
  26.6225757  29.4207390  75.7066638  27.5235619  29.2813855  75.4150636
  26.6973731  29.5861845  76.6464815  20.9568562  26.7974245  74.5519824
  20.0871871  27.0907811  74.2802413  21.1928042  27.3814690  75.2727088
  30.8340191  35.8573403  74.6349353  30.5424999  36.2203384  75.4712814
  30.2212322  35.1440412  74.4562685  32.0335873  33.4226283  67.1551923
  32.8682765  33.8616087  67.3189483  32.1695002  32.9464936  66.3360169
  29.0827379  30.9806018  73.1029411  29.5581501  31.1733664  72.2948262
  28.1592945  31.0365204  72.8572794  15.9710886  32.1430185  62.6860489
  15.7256928  31.2392515  62.8840699  16.1406800  32.1447336  61.7439967
  23.6607596  23.0153862  72.0685245  24.1789540  23.7514889  71.7431733
  23.3062729  23.3217855  72.9032004  15.2406533  27.8758543  60.1846651
  14.5475778  27.9502898  59.5286687  14.9958285  27.1118886  60.7068167
  23.9120190  19.4354144  67.5886141  24.1921944  18.7677333  68.2146568
  24.6970797  19.6283240  67.0760805  21.7153658  38.6113138  59.1511168
  21.1427626  39.2303325  58.6981639  22.2886452  39.1612500  59.6851090
  27.7829048  27.8571778  71.3357716  28.7346471  27.9569876  71.3569940
  27.6132499  27.0650047  71.8455801  25.8043428  24.9427361  71.5217117
  25.2093360  25.2232374  70.8263606  25.5193124  25.4321262  72.2933858
  24.9350918  38.8950288  60.2819750  25.8681591  38.8295850  60.4852625
  24.8474131  39.7306555  59.8234283  27.5638935  38.2116159  57.2423697
  27.4852566  37.8776022  58.1359455  28.3848602  38.7037926  57.2415170
  30.2617126  31.0777898  70.4500016  30.2293446  30.1393899  70.6359700
  30.8717750  31.1561935  69.7165841  22.1000457  29.9473951  56.4927220
  23.0459562  29.8180159  56.5615638  21.7214702  29.2088613  56.9696648
  30.4111615  27.8688941  70.4958299  29.8950663  27.0847398  70.3088228
  31.2951563  27.5407658  70.6604819  28.0722342  21.6129957  66.4554112
  27.8747163  21.3045045  67.3397444  28.6822047  22.3391596  66.5852042
  36.0793676  32.1393905  69.5906053  36.8097064  31.8779193  70.1513756
  35.4700621  31.4022627  69.6308121  34.1608973  30.2801767  70.1880504
  33.4342137  30.1457732  69.5796996  33.7456260  30.5878596  70.9937222
  21.9839150  33.9991697  77.9527877  22.9042159  34.1770296  78.1467924
  21.9488733  33.0547742  77.8007576  20.2843374  27.8723927  56.4282105
  19.3774830  27.5757040  56.5044819  20.5619355  27.5753745  55.5616392
  11.2021315  29.1930291  66.8781152  10.8824099  28.3395599  66.5855526
  10.6554743  29.4078869  67.6339119  14.9801222  31.9092732  70.5950658
  15.1987232  32.8409839  70.6138692  15.3926996  31.5500706  71.3805462
  21.9005440  22.4160817  62.5826347  21.0906168  22.0707902  62.9581593
  22.5889857  22.1068361  63.1713958  23.8295988  21.4938864  64.2050643
  24.3827027  21.9134317  64.8640666  24.0666075  20.5674612  64.2473599
  19.8529087  27.4825937  79.9853407  19.7525814  28.4320294  79.9165498
  19.6350629  27.1544176  79.1129477  19.0542159  24.7310862  56.5694085
  19.9161323  25.0565761  56.8289902  19.2392503  23.9442358  56.0567150
  11.0709575  32.8133202  68.8474273  10.3773046  32.3987155  68.3344228
  11.8182566  32.8553739  68.2507692  27.2074795  23.6039389  63.7129308
  26.6273464  24.2624193  63.3307360  26.9410728  22.7816733  63.3016725
  25.6578362  23.0044447  65.9150628  26.1578140  23.1160981  65.1064947
  26.3013970  22.7005499  66.5551436  19.7160357  30.9123076  78.8018469
  19.2327439  31.7123436  79.0082358  19.8021296  30.9231021  77.8485913
  12.9846317  32.7451456  66.7240288  12.9617005  32.8439143  65.7722171
  13.2946954  33.5916607  67.0457454  15.6433695  34.8027611  70.8386903
  16.5976948  34.7711553  70.7716834  15.4446219  34.3418235  71.6537129
  16.2333077  33.3728727  73.4057700  17.0525966  33.8672806  73.4292538
  16.5069885  32.4560695  73.3775268  25.9899673  25.7639479  62.7685656
  25.1025528  26.0489130  62.5505851  26.4053662  25.6033243  61.9212933
  29.3414209  25.7886000  66.4839995  30.1174600  26.2782453  66.7564612
  28.6162344  26.2144054  66.9411865  31.7786768  26.5013619  67.5413936
  32.3731259  26.2609355  66.8307244  31.8513352  25.7820750  68.1687472
  13.9983924  40.3447230  67.8557100  13.8638392  39.5847631  67.2895099
  13.5815986  41.0688130  67.3885889  25.1342887  35.5284154  56.8633676
  25.8378737  35.7334156  57.4791331  24.4105535  36.0960916  57.1282759
  25.9640697  31.2794015  62.9835946  25.9075898  31.7362567  62.1443578
  26.5169039  30.5184700  62.8058789  29.7745503  27.0683747  63.8086065
  29.5182437  26.6680383  64.6394273  29.1498371  27.7827541  63.6836205
  34.0857841  29.8079820  66.3157357  33.5257399  29.8773010  67.0888919
  33.4801344  29.6320805  65.5956853  17.1553050  41.2416547  68.0675543
  17.0385434  42.1861980  67.9654233  16.3345496  40.9390109  68.4561342
  27.0429584  35.9666683  58.9132136  27.8775188  35.5347882  58.7309611
  26.8813927  35.7948697  59.8409030  26.6975476  32.4698796  60.2788475
  26.6424280  32.3043068  59.3376919  26.0721532  33.1774829  60.4350665
  11.4867991  27.7066861  74.1049897  12.1326855  27.1965815  74.5937123
  11.2785142  28.4435542  74.6793323  24.0121383  34.7747708  79.6042038
  24.8812543  34.9488361  79.2428673  23.5328135  35.5942125  79.4817767
  20.0071602  21.9706905  59.8573794  19.9950272  22.9148745  60.0142064
  20.8995024  21.7877051  59.5633255  18.1807564  41.8944809  71.2831472
  19.0834810  41.9268420  71.5997967  17.9544934  40.9645260  71.2977807
  19.9361166  40.6475796  67.9441550  18.9856797  40.6477657  67.8305922
  20.2393652  39.9008530  67.4277585  23.8223721  18.5649682  64.1119730
  23.0556117  18.0108169  64.2576413  24.2334426  18.6371551  64.9733882
  15.8265482  24.8534478  78.2024912  16.6896944  24.4971283  78.4128236
  15.2530893  24.5148373  78.8900316  38.1488975  37.8584595  71.4468108
  37.8172300  38.7280006  71.2229323  37.5534589  37.5420879  72.1262138
  31.8634382  44.0537820  60.1644857  31.7434008  44.4994871  61.0030337
  31.1686971  44.4023138  59.6058395  32.1158504  43.9969327  76.4696355
  31.3391838  44.5563247  76.4599220  32.7549067  44.4826110  76.9911225
  39.9079285  40.7796120  70.3039332  39.2653665  41.0728653  69.6579126
  39.4034213  40.6649040  71.1092528  32.1991286  43.8856528  72.0020041
  33.0452481  44.3095941  72.1454690  32.1389924  43.2290152  72.6958604
  35.3490732  41.5460896  73.6601214  35.1051663  42.3002957  73.1235490
  35.6250662  41.9246244  74.4948461  34.9055423  40.7017329  69.2415052
  34.0439902  40.9998583  69.5331789  34.9317858  40.9187728  68.3096085
  30.6585879  45.3682672  62.4578423  31.3609922  45.8203716  62.9252349
  30.3266507  44.7266491  63.0858316  26.3525958  43.9910804  64.7179033
  25.5557121  44.1029498  65.2362529  26.1251550  44.3297456  63.8519923
  28.3846983  38.2615195  79.1954883  27.9913929  37.7081393  79.8702527
  29.2013123  38.5725773  79.5861401  31.3014944  39.6773074  76.7875140
  32.0424657  40.2780227  76.7079602  31.5332867  38.9350711  76.2293182
  35.2472107  35.7054177  71.0639421  34.9036376  36.5955818  70.9878532
  35.6151070  35.5155834  70.2009006  23.3157958  48.0287707  63.8828024
  24.1533180  48.4384715  63.6661731  23.4936225  47.0887149  63.8528217
  32.7969501  40.5412488  64.6297095  31.9411097  40.1519339  64.4502734
  33.2096453  40.6204449  63.7696880  34.3268647  38.0758832  69.0288655
  33.8233443  38.0388967  68.2156460  34.6199254  38.9851574  69.0885311
  30.5711533  38.1597561  68.0354836  31.4364530  37.9640370  67.6760726
  30.6389042  37.9307913  68.9624193  28.1773852  40.3899769  65.4071203
  28.7517604  40.1674951  64.6744396  28.7644835  40.4588464  66.1599804
  28.5043439  42.4204230  59.4267088  27.6680752  42.7578917  59.7476363
  28.3648209  42.2853210  58.4894225  30.4796520  37.2641018  64.1346273
  29.8260932  36.9490035  63.5102887  30.4376994  36.6416759  64.8606096
  33.7134260  43.7522952  68.4593920  32.7956822  43.9737899  68.3015608
  34.1294404  43.8269262  67.6005628  37.0459773  34.9647736  66.1657159
  37.3518649  34.1045099  65.8783074  37.7712377  35.5565356  65.9656153
  23.3384129  45.3678422  64.5538757  23.1408529  44.7747783  63.8289824
  22.7830793  45.0630633  65.2714696  31.3180852  45.2601529  66.6733350
  31.3729462  44.3075365  66.5975827  30.5072054  45.4160968  67.1574649
  29.2573212  43.8778589  64.4323729  28.4441078  44.1772759  64.8388921
  29.7532207  43.4834277  65.1498211  34.8547424  44.3420413  73.2638623
  35.2096812  44.5691886  74.1233089  35.5019555  44.6738790  72.6415878
  25.8330354  44.8942456  62.2379709  24.9027943  44.8326912  62.4549671
  25.9287826  44.3718409  61.4416350  25.7515903  41.4197269  64.8257951
  26.0122721  42.3342602  64.7167111  26.5733076  40.9521712  64.9754564
  33.1266401  39.4596967  74.0122436  32.4794316  40.1586917  73.9186913
  33.8967416  39.8933111  74.3798684  28.9679561  42.8062806  74.0638532
  28.4316918  42.3553545  74.7160128  28.3796269  42.9408715  73.3208996
  19.8983960  47.0528618  66.7206502  20.5855000  46.7390348  66.1327518
  19.7432089  47.9569982  66.4473754  34.8742396  40.4272378  66.5161721
  35.3711095  39.6742340  66.1962791  34.1029377  40.4636694  65.9504930
  31.4577365  42.5689761  66.2433406  31.0875152  42.0160801  66.9314311
  31.9536457  41.9647894  65.6908406  37.3161391  37.3941971  68.6641080
  36.4024470  37.6246198  68.8323287  37.7454492  37.4780415  69.5155112
  19.4751936  45.1329211  68.9923969  19.5136035  44.5992802  69.7861088
  18.9692229  44.6064416  68.3734947  26.8542698  39.9793751  72.4886512
  26.9184025  40.8408582  72.0763909  26.7909818  39.3667753  71.7558870
  26.3294971  42.0516884  76.1359546  26.9567010  41.6693961  76.7497070
  25.4722890  41.8331086  76.5015239  23.1060514  43.8593313  62.0677901
  23.4013955  42.9503991  62.0144955  22.2048549  43.8381053  61.7458903
  29.4381074  39.2703736  74.3246101  29.9615476  39.5166033  75.0872411
  29.2193407  40.1023771  73.9049239  24.8348355  41.5407411  62.1917226
  24.5061061  40.6604790  62.0092332  25.1887726  41.4855079  63.0793615
  27.9490178  41.8280381  62.5592704  28.2886251  42.3566302  61.8371312
  28.3962299  42.1660787  63.3351270  30.6433619  40.2117431  72.0095772
  30.3030439  39.4125244  72.4116452  29.9372625  40.5119142  71.4372605
  31.2950091  37.2966744  70.4623095  32.1176160  36.8227222  70.3401985
  31.5388154  38.0757227  70.9621781  29.9358325  40.3255002  60.7585996
  30.6566688  40.7036255  60.2549713  29.3123630  41.0443879  60.8620974
  28.8188670  43.9885864  68.2715073  28.6733250  44.3026167  69.1639355
  28.3413873  44.6070765  67.7185972  30.6785053  40.9788412  68.3195963
  30.6646621  40.0829506  67.9828261  31.3957481  40.9859076  68.9534249
  32.5311183  41.4125753  70.3649090  32.2728961  42.3342823  70.3633421
  31.9996224  41.0156187  71.0549554  30.0821948  39.8602793  63.5883533
  30.2037860  38.9319439  63.7874421  29.7923991  39.8741479  62.6761848
  32.9513139  37.5457703  66.7250253  32.9734836  37.6097036  65.7702232
  33.3681198  36.7062212  66.9190759  29.5663028  41.3734790  77.7973466
  29.6151183  42.2496913  77.4151235  30.1085542  40.8312183  77.2245109
  31.7962316  42.1266162  74.5519824  30.9265626  42.4199728  74.2802413
  32.0321797  42.7106607  75.2727088  26.8104640  47.4722103  62.6860489
  26.5650682  46.5684433  62.8840699  26.9800555  47.4739253  61.7439967
  34.5001350  38.3445779  72.0685245  35.0183294  39.0806806  71.7431733
  34.1456483  38.6509773  72.9032004  26.0800288  43.2050460  60.1846651
  25.3869533  43.2794815  59.5286687  25.8352040  42.4410804  60.7068167
  34.7513944  34.7646062  67.5886141  35.0315698  34.0969251  68.2146568
  35.5364551  34.9575157  67.0760805  36.6437182  40.2719279  71.5217117
  36.0487114  40.5524292  70.8263606  36.3586879  40.7613180  72.2933858
  32.7399194  37.7452735  62.5826347  31.9299923  37.3999820  62.9581593
  33.4283611  37.4360278  63.1713958  34.6689743  36.8230781  64.2050643
  35.2220781  37.2426235  64.8640666  34.9059829  35.8966529  64.2473599
  30.6922842  42.8117855  79.9853407  30.5919569  43.7612212  79.9165498
  30.4744384  42.4836094  79.1129477  21.9103329  48.1425120  68.8474273
  21.2166800  47.7279073  68.3344228  22.6576320  48.1845656  68.2507692
  36.4972116  38.3336364  65.9150628  36.9971894  38.4452899  65.1064947
  37.1407724  38.0297417  66.5551436  30.8465356  37.2998823  59.8573794
  30.8344026  38.2440663  60.0142064  31.7388778  37.1168969  59.5633255
  34.6617476  33.8941600  64.1119730  33.8949872  33.3400086  64.2576413
  35.0728181  33.9663469  64.9733882  26.6659237  40.1826396  78.2024912
  27.5290698  39.8263200  78.4128236  26.0924647  39.8440290  78.8900316
  42.6356071  57.4558080  74.5519824  41.7659380  57.7491646  74.2802413
  42.8715551  58.0398525  75.2727088  55.2035629  83.4631017  76.6640870
  54.7599483  82.6767395  76.3461774  55.8652842  83.6510167  75.9984761
  53.5565714  88.2902437  71.8864627  54.1084022  88.4534058  72.6513712
  53.8971907  88.8806875  71.2144652  68.1895123  92.4712087  69.0087313
  68.8273533  92.3518835  68.3050653  68.0715966  93.4192931  69.0675265
  64.9984829  92.4239515  68.9448837  64.6603340  92.3080580  68.0569372
  65.8674597  92.0230680  68.9249843  60.8571645  94.2774992  64.9345728
  60.2936510  94.1864929  64.1662016  60.7424040  93.4574896  65.4148221
  65.4804612  93.5774367  74.9035043  65.4693253  93.1827165  74.0315546
  65.6425251  92.8440440  75.4968814  58.4036077  95.7726183  67.7729949
  59.1957369  95.4317008  67.3576248  58.6432727  95.8821158  68.6932102
  66.4371203  97.9445959  60.2460193  65.7859183  98.5300040  59.8594207
  67.2315566  98.4752154  60.3055231  60.3626831  95.0335097  60.6447327
  61.1357707  94.4864084  60.5060203  60.7152229  95.8979346  60.8561789
  62.2011873  96.3611479  73.8514227  61.9101739  97.2657110  73.7360893
  62.8368857  96.4028007  74.5658296  63.1268080  93.7388327  70.4415586
  63.7231652  93.5144350  69.7272549  63.1843051  92.9973073  71.0441034
  62.6993108  91.1927763  58.2765777  62.9518629  90.6709284  57.5149240
  61.7617667  91.0293908  58.3792461  67.9146469  95.6336391  60.7829177
  67.2792302  95.7071018  61.4950082  67.5843875  96.2229990  60.1048257
  73.1444818  90.1338774  66.9873499  73.8769990  89.5637991  67.2211329
  72.3884174  89.7460375  67.4280005  62.4189397  93.0955869  60.4790152
  62.3025655  92.4200772  61.1471237  62.5291657  92.6088243  59.6622305
  64.7620938  92.5566016  64.1836842  64.3979145  92.0296637  64.8949763
  65.6188054  92.1664485  64.0103327  70.6670239  83.8460348  71.4468108
  70.3353563  84.7155759  71.2229323  70.0715852  83.5296632  72.1262138
  67.1601758  96.0472894  70.8464020  66.8602481  96.9497933  70.7379828
  66.8152818  95.7805078  71.6985173  60.6114240  92.4986691  66.8800725
  59.6864736  92.3662905  67.0878417  60.8598653  93.2780910  67.3770667
  70.5598902  88.5655435  68.5261458  69.6515779  88.4970843  68.2320219
  70.5086498  89.0427380  69.3543283  64.3815646  90.0413573  60.1644857
  64.2615271  90.4870624  61.0030337  63.6868234  90.3898891  59.6058395
  57.9723051  92.1419965  67.7144514  58.1015432  92.3954444  68.6283926
  57.2920502  92.7347673  67.3949169  62.1422538 102.8117215  63.8134988
  62.0646568 103.7625040  63.8923469  61.5384182 102.4663087  64.4709914
  64.6339768  89.9845080  76.4696355  63.8573102  90.5439000  76.4599220
  65.2730331  90.4701863  76.9911225  72.4260548  86.7671873  70.3039332
  71.7834929  87.0604406  69.6579126  71.9215477  86.6524793  71.1092528
  70.0800712  90.5135046  60.9925191  70.9918568  90.7462433  60.8172889
  69.5710359  91.0972090  60.4300270  62.8886140  92.7930534  76.0314322
  63.6300824  93.3315578  75.7549146  62.1823126  93.4196822  76.1885874
  68.3641480  94.9359674  74.6286484  68.7724836  94.4942085  73.8841116
  67.6418741  94.3612302  74.8820676  64.7172550  89.8732281  72.0020041
  65.5633745  90.2971694  72.1454690  64.6571187  89.2165905  72.6958604
  68.6870294  95.4960865  68.3838772  68.0579157  95.6606579  67.6814840
  68.2995956  95.9102474  69.1549736  72.5659526  96.4315302  65.7383136
  71.8810564  96.8114204  65.1880170  72.6503376  97.0410629  66.4715084
  67.8671995  87.5336649  73.6601214  67.6232927  88.2878710  73.1235490
  68.1431926  87.9121997  74.4948461  69.8210458  94.0775262  72.3378480
  70.0327353  94.7207021  71.6612861  69.7740206  93.2437578  71.8700410
  64.2398256  95.2335273  65.6488858  64.7036602  95.5122976  64.8593480
  63.9755054  94.3318717  65.4661948  61.1322337  94.7806754  68.5868621
  61.7023694  95.2094023  67.9486105  61.7230449  94.4989339  69.2852806
  63.1767142  91.3558425  62.4578423  63.8791186  91.8079469  62.9252349
  62.8447771  90.7142244  63.0858316  61.6247504  89.9470182  76.8329632
  60.9946164  90.6286463  77.0665029  61.5183592  89.8353263  75.8882770
  56.9192476  89.6141978  67.7595556  56.1291530  89.8699506  67.2835667
  57.4103724  90.4290316  67.8647597  70.9356286  96.9547217  70.5100837
  71.7573730  96.5527404  70.2283519  70.9318689  96.8515451  71.4616953
  64.7012889  96.5031260  72.6661548  64.7657322  96.9651667  73.5019719
  63.9923813  95.8728625  72.7943857  55.2030179  89.8672468  70.1910547
  55.4538218  90.7519478  70.4568123  55.7389728  89.6877070  69.4185639
  79.0262279  93.2985965  66.8585809  78.2725987  92.7293363  66.7029813
  79.1609820  93.2648630  67.8056443  64.4160907  98.1699368  62.5340528
  64.2806582  99.0150903  62.9625376  64.9570719  98.3718645  61.7706462
  60.9028247  84.2490948  79.1954883  60.5095192  83.6957146  79.8702527
  61.7194387  84.5601526  79.5861401  57.8690304  95.6874806  63.1068453
  58.3814825  96.4818056  63.2574018  58.5213017  94.9901096  63.0402054
  59.6785189  98.8040562  65.1891206  59.8551817  99.7258527  65.0012190
  60.4742023  98.4898981  65.6185586  63.8196208  85.6648827  76.7875140
  64.5605921  86.2655980  76.7079602  64.0514130  84.9226464  76.2293182
  58.9637546  90.8505194  75.0653369  58.8491061  89.9490451  75.3660468
  58.1082063  91.0968891  74.7138186  66.0429383  98.7922934  76.6640870
  65.5993237  98.0059313  76.3461774  66.7046597  98.9802085  75.9984761
  60.8016504 100.3218736  71.1901548  61.3523930 100.1935799  70.4178542
  59.9627980 100.6213625  70.8396441  68.1410621  99.0725734  74.6922271
  68.1229097  99.8934615  74.2002540  69.0630541  98.9479809  74.9172412
  64.5983676  96.5869864  75.5345780  65.1312012  95.8258152  75.3045088
  64.0697757  96.2943515  76.2769934  55.8339221  94.0163460  63.8828024
  56.6714443  94.4260468  63.6661731  56.0117489  93.0762902  63.8528217
  67.7303653  91.6838541  59.5711856  67.2150277  92.4543145  59.8100244
  67.4580962  91.0103677  60.1944918  72.7037927  94.4370895  61.5065030
  71.9267370  94.0982055  61.0620192  73.3829408  94.4423519  60.8319995
  67.5189956  89.5565633  61.3971638  67.2140092  89.8711782  62.2481781
  68.4720398  89.6347053  61.4398971  65.9636388  95.7155856  63.0464592
  65.4357750  94.9808616  62.7337829  65.4623891  96.4930532  62.8004560
  70.9429234  93.9104877  68.1631638  70.2852909  94.6004138  68.2511767
  71.7469633  94.3001309  68.5065624  69.7534693  92.2649249  66.2135580
  70.2666575  92.8979241  66.7157289  70.4035917  91.6650445  65.8478940
  64.1088988  93.5336066  56.0499565  63.2016050  93.3025320  56.2490714
  64.6060020  92.7373686  56.2373546  67.0157067 102.2433574  58.9696251
  66.3418766 102.5465270  59.5781209  67.4022889 103.0462654  58.6201708
  67.0150572  91.1390121  63.5896600  67.7622391  91.6511518  63.2803723
  67.2842161  90.8174173  64.4500994  65.2877222  93.6348661  60.5723555
  64.3788441  93.3507694  60.6696025  65.3172306  94.0547740  59.7126862
  70.5196489  97.2455251  64.3414722  70.0658816  96.4046161  64.3979913
  69.8890456  97.8816649  64.6789502  68.9629428  99.0831747  65.2764540
  69.2552403  99.6436805  64.5576906  69.4728049  99.3760308  66.0317700
  69.5641036  80.9523489  66.1657159  69.8699913  80.0920852  65.8783074
  70.2893641  81.5441109  65.9656153  63.8362116  91.2477282  66.6733350
  63.8910726  90.2951118  66.5975827  63.0253318  91.4036721  67.1574649
  64.9853310  95.1757405  57.9111633  64.5472740  94.4593264  57.4517271
  65.7263750  95.4033520  57.3496725  61.7754476  89.8654342  64.4323729
  60.9622341  90.1648512  64.8388921  62.2713470  89.4710030  65.1498211
  63.9263054  99.8612099  66.3657994  63.8839232 100.0872945  65.4366526
  64.8425753  99.6275473  66.5143795  67.3728687  90.3296166  73.2638623
  67.7278075  90.5567639  74.1233089  68.0200819  90.6614543  72.6415878
  73.1026424  93.4514602  63.9687952  72.9644323  93.6416198  63.0409141
  72.7462643  94.2133985  64.4256003  61.2668551  87.4372697  70.0484964
  61.9067930  87.2961456  69.3507927  60.4346081  87.1507210  69.6723566
  73.1295804  95.5191129  68.9799223  73.5632311  95.4266418  69.8282277
  73.8427385  95.4948629  68.3419239  62.0428854  96.7375128  66.1619956
  62.8369453  96.2425448  65.9602531  61.3320547  96.2092991  65.7987662
  66.8623699  99.1193223  70.5132324  66.9160721  99.6884159  71.2810040
  65.9938480  99.2895108  70.1486361  59.7422092  88.8210779  71.9956775
  60.4145146  88.6128141  71.3469424  58.9151879  88.6232865  71.5562008
  73.9911354  95.5614830  71.5132109  74.1847244  96.4660640  71.7591384
  73.8911972  95.1022249  72.3470694  65.6447664  85.4472720  74.0122436
  64.9975579  86.1462670  73.9186913  66.4148680  85.8808864  74.3798684
  69.0526462  95.7121572  77.0872989  68.9011969  95.4832124  76.1703073
  69.0431142  96.6692174  77.1004334  65.8211799  93.2853485  72.0719256
  66.7503859  93.4364645  71.8988223  65.4002829  93.3737506  71.2167902
  64.6200130  97.3104150  69.8417793  64.4811216  96.9422934  70.7143732
  63.8314727  97.8251789  69.6701751  65.2148282 102.4113246  61.1843330
  65.3900038 101.9401289  61.9988953  64.5281070 103.0379012  61.4124591
  66.1705346  96.6885752  67.2306631  65.8355178  96.6486522  68.1264281
  65.6709291  96.0230468  66.7577041  60.1449590  92.0953382  72.7559212
  60.0069387  91.3633621  73.3570751  61.0554513  92.0062282  72.4743400
  69.1064537  94.0341787  57.5043691  68.4893708  93.3088615  57.4076744
  68.6381026  94.7951147  57.1610765  62.7731890  91.8073342  72.2442892
  63.4831509  91.1666534  72.2029510  62.7301198  92.0586236  73.1669073
  70.7618669  98.7440695  75.1649471  70.7031215  98.0599915  74.4980054
  71.1638187  99.4859685  74.7130097  61.4860824  88.7938559  74.0638532
  60.9498181  88.3429298  74.7160128  60.8977533  88.9284468  73.3208996
  59.7809368 105.5602609  67.9583190  60.0205966 106.1921133  68.6362209
  58.9378564 105.2090649  68.2448549  60.8963083  88.2527211  56.6264995
  60.0192549  88.1316012  56.2627242  61.3720836  87.4613289  56.3743884
  70.7636076  96.7080279  73.3963451  69.8762855  96.3706201  73.5189850
  71.3334627  95.9763310  73.6332216  52.4165223  93.0404371  66.7206502
  53.1036263  92.7266101  66.1327518  52.2613352  93.9445735  66.4473754
  64.2937230 101.3681731  70.3624694  64.2207401 102.1736703  70.8743999
  63.8514623 101.5673697  69.5372716  64.0827009 100.6053501  63.8727516
  63.2994531 101.1475181  63.9665740  64.7819754 101.1227481  64.2721757
  75.2453417  92.1188496  68.1580013  75.2343293  93.0013212  67.7873946
  74.3770796  91.7660047  67.9634550  66.7535913 101.2668565  72.5182853
  67.4663885 101.9016030  72.4458754  66.2625942 101.3632431  71.7022855
  68.4753440  95.1719818  64.0900144  67.5409719  95.2921280  63.9204849
  68.6530108  94.2692285  63.8260154  71.8625991  91.0137137  64.6250179
  72.3286444  91.8465129  64.5510481  72.3133492  90.5482119  65.3295437
  61.8047827  99.0163009  73.3388424  62.5057286  99.6499492  73.4917818
  61.3342942  99.3577740  72.5784063  69.9302222  97.3580958  61.6236331
  70.2062066  97.2437553  62.5330205  69.0606721  96.9598443  61.5848504
  69.8342654  83.3817724  68.6641080  68.9205734  83.6121951  68.8323287
  70.2635756  83.4656168  69.5155112  69.6049113  91.5707616  71.1640974
  68.9520563  91.8183524  70.5093427  69.9829492  90.7571754  70.8303451
  66.5656286 101.6067309  65.2669144  66.7478681 100.7888965  65.7296897
  67.3889272 101.8235002  64.8294034  66.8998452 100.5335494  62.5284193
  67.4286218 100.0227949  61.9154355  67.1626672 100.2178025  63.3929726
  65.6536686  92.3127427  77.6507011  64.9777323  92.2121557  78.3209386
  66.4764319  92.1566641  78.1143008  57.4015545  98.5499364  70.2719526
  57.9868981  97.8043052  70.4047431  57.2040383  98.8603320  71.1556190
  60.2554200 101.5850611  65.2881969  59.5864575 102.0696739  64.8046009
  60.1167070 101.8319832  66.2025347  64.3959468 103.6194355  71.8864627
  64.9477777 103.7825976  72.6513712  64.7365662 104.2098792  71.2144652
  58.8476234  88.0392637  76.1359546  59.4748273  87.6569714  76.7497070
  57.9904153  87.8206839  76.5015239  69.2470343  98.4455612  77.7413281
  69.7910247  99.0585570  77.2468236  68.6657188  99.0035191  78.2580294
  67.5327856 101.5676330  68.8728309  67.4078995 100.7666070  68.3639255
  68.1906947 102.0622524  68.3842279  69.5962764  99.3685350  70.5007859
  68.6493100  99.2490701  70.4286186  69.9445537  98.4807848  70.5834121
  66.6009197  99.1638066  66.7012212  66.4534160  98.2354774  66.8819782
  67.4262691  99.1858157  66.2169287  70.2043319  99.9866625  67.7877084
  71.1289867  99.7809487  67.6501535  70.0358623  99.7383026  68.6966426
  66.5970712  87.0175904  61.6944329  66.8134326  87.9000542  61.3933157
  66.1164779  86.6262118  60.9649971  61.3369933  89.9761617  68.2715073
  61.1914514  90.2901920  69.1639355  60.8595137  90.5946518  67.7185972
  69.9938636 100.5052293  63.1439176  70.1675513  99.9398715  62.3913028
  70.4867527 101.3053188  62.9618666  55.8115595  92.5166962  71.2102735
  55.2669063  93.2926770  71.3423009  56.6894945  92.8637766  71.0521856
  75.8478027  93.2688716  64.7629475  76.2909173  92.5196041  64.3648599
  74.9704537  93.2598852  64.3803207  70.9813808  99.8219057  60.2436074
  71.6764713 100.4425750  60.4623389  71.3236958  98.9714408  60.5188452
  56.5981617  91.6436858  74.1032891  55.8563353  91.7919493  74.6897522
  56.2774361  91.9045124  73.2399641  72.8805231  97.2718763  61.7723405
  73.4056555  97.6106035  61.0472725  72.7927584  96.3365778  61.5886539
  64.5425280 101.1852836  73.9013281  64.8512406 100.9401983  74.7735981
  65.3400762 101.3899475  73.4132152  64.5645892 103.3390746  66.1318658
  64.1250882 102.8467125  66.8251515  65.3154009 102.7963714  65.8910733
  57.0438231  99.5302287  66.1343286  57.8696251  99.2306059  65.7541930
  56.6932283  98.7609909  66.5833075  62.0119764  98.8828755  68.2040960
  61.3899773  98.2199460  67.9043188  62.6824631  98.9089887  67.5214607
  55.2446836  97.4488613  67.0932220  54.4078744  97.0210788  66.9116221
  55.2170481  97.6421057  68.0303011  62.0844292  87.3610543  77.7973466
  62.1332447  88.2372666  77.4151235  62.6266806  86.8187936  77.2245109
  72.5699137  97.9051666  77.0774603  71.7794681  97.8875805  76.5379102
  72.3332492  98.4439960  77.8323639  72.6897012  94.7544133  74.3907331
  72.7395017  94.5894140  75.3322854  72.5810936  93.8871392  74.0005212
  61.5733271  97.4332678  61.6799420  61.7221391  98.1168143  61.0266093
  62.3799714  97.4137768  62.1948876  69.9800775  90.7375061  75.7066638
  70.8810637  90.5981525  75.4150636  70.0548749  90.9029515  76.6464815
  64.3143580  88.1141915  74.5519824  63.4446889  88.4075481  74.2802413
  64.5503060  88.6982360  75.2727088  74.1915209  97.1741074  74.6349353
  73.9000017  97.5371055  75.4712814  73.5787340  96.4608082  74.4562685
  75.3910891  94.7393954  67.1551923  76.2257783  95.1783758  67.3189483
  75.5270020  94.2632607  66.3360169  72.4402397  92.2973689  73.1029411
  72.9156519  92.4901335  72.2948262  71.5167963  92.3532875  72.8572794
  59.3285904  93.4597856  62.6860489  59.0831946  92.5560186  62.8840699
  59.4981818  93.4615006  61.7439967  65.0728676  99.9280809  59.1511168
  64.5002644 100.5470996  58.6981639  65.6461470 100.4780170  59.6851090
  71.1404066  89.1739449  71.3357716  72.0921489  89.2737547  71.3569940
  70.9707517  88.3817717  71.8455801  69.1618446  86.2595032  71.5217117
  68.5668378  86.5400045  70.8263606  68.8768142  86.7488933  72.2933858
  68.2925936 100.2117959  60.2819750  69.2256609 100.1463521  60.4852625
  68.2049149 101.0474226  59.8234283  70.9213953  99.5283829  57.2423697
  70.8427584  99.1943693  58.1359455  71.7423620 100.0205597  57.2415170
  73.6192144  92.3945569  70.4500016  73.5868464  91.4561569  70.6359700
  74.2292768  92.4729605  69.7165841  65.4575475  91.2641622  56.4927220
  66.4034580  91.1347830  56.5615638  65.0789720  90.5256283  56.9696648
  73.7686633  89.1856612  70.4958299  73.2525681  88.4015069  70.3088228
  74.6526581  88.8575329  70.6604819  71.4297359  82.9297628  66.4554112
  71.2322181  82.6212716  67.3397444  72.0397065  83.6559266  66.5852042
  79.4368694  93.4561575  69.5906053  80.1672082  93.1946863  70.1513756
  78.8275639  92.7190297  69.6308121  77.5183991  91.5969438  70.1880504
  76.7917155  91.4625403  69.5796996  77.1031278  91.9046267  70.9937222
  65.3414167  95.3159368  77.9527877  66.2617177  95.4937967  78.1467924
  65.3063751  94.3715413  77.8007576  63.6418392  89.1891598  56.4282105
  62.7349847  88.8924711  56.5044819  63.9194373  88.8921416  55.5616392
  58.3376240  93.2260402  70.5950658  58.5562250  94.1577510  70.6138692
  58.7502014  92.8668377  71.3805462  63.2104105  88.7993608  79.9853407
  63.1100832  89.7487965  79.9165498  62.9925647  88.4711847  79.1129477
  54.4284592  94.1300873  68.8474273  53.7348064  93.7154826  68.3344228
  55.1757583  94.1721409  68.2507692  70.5649813  84.9207060  63.7129308
  69.9848482  85.5791864  63.3307360  70.2985746  84.0984404  63.3016725
  63.0735375  92.2290747  78.8018469  62.5902457  93.0291107  79.0082358
  63.1596314  92.2398692  77.8485913  56.3421335  94.0619127  66.7240288
  56.3192023  94.1606814  65.7722171  56.6521971  94.9084277  67.0457454
  59.0008713  96.1195282  70.8386903  59.9551966  96.0879224  70.7716834
  58.8021236  95.6585905  71.6537129  59.5908095  94.6896398  73.4057700
  60.4100984  95.1840476  73.4292538  59.8644903  93.7728366  73.3775268
  72.6989227  87.1053671  66.4839995  73.4749617  87.5950123  66.7564612
  71.9737362  87.5311725  66.9411865  75.1361786  87.8181290  67.5413936
  75.7306277  87.5777026  66.8307244  75.2088370  87.0988421  68.1687472
  57.3558942 101.6614901  67.8557100  57.2213410 100.9015302  67.2895099
  56.9391004 102.3855801  67.3885889  68.4917905  96.8451825  56.8633676
  69.1953755  97.0501827  57.4791331  67.7680553  97.4128587  57.1282759
  69.3215715  92.5961686  62.9835946  69.2650916  93.0530237  62.1443578
  69.8744057  91.8352370  62.8058789  73.1320521  88.3851418  63.8086065
  72.8757455  87.9848053  64.6394273  72.5073389  89.0995212  63.6836205
  77.4432859  91.1247491  66.3157357  76.8832417  91.1940680  67.0888919
  76.8376362  90.9488476  65.5956853  60.5128068 102.5584218  68.0675543
  60.3960452 103.5029651  67.9654233  59.6920514 102.2557780  68.4561342
  70.4004602  97.2834354  58.9132136  71.2350206  96.8515552  58.7309611
  70.2388945  97.1116368  59.8409030  70.0550494  93.7866467  60.2788475
  69.9999298  93.6210739  59.3376919  69.4296550  94.4942500  60.4350665
  54.8443009  89.0234532  74.1049897  55.4901873  88.5133485  74.5937123
  54.6360160  89.7603213  74.6793323  67.3696401  96.0915379  79.6042038
  68.2387561  96.2656031  79.2428673  66.8903153  96.9109796  79.4817767
  61.5382582 103.2112480  71.2831472  62.4409828 103.2436090  71.5997967
  61.3119952 102.2812931  71.2977807  63.2936184 101.9643467  67.9441550
  62.3431815 101.9645328  67.8305922  63.5968670 101.2176201  67.4277585
  59.1840500  86.1702149  78.2024912  60.0471962  85.8138953  78.4128236
  58.6105911  85.8316043  78.8900316  79.0288877 107.8004005  69.0087313
  79.6667287 107.6810752  68.3050653  78.9109720 108.7484849  69.0675265
  75.8378583 107.7531433  68.9448837  75.4997095 107.6372498  68.0569372
  76.7068352 107.3522598  68.9249843  71.6965399 109.6066909  64.9345728
  71.1330264 109.5156846  64.1662016  71.5817794 108.7866814  65.4148221
  76.3198366 108.9066285  74.9035043  76.3087007 108.5119083  74.0315546
  76.4819006 108.1732357  75.4968814  69.2429831 111.1018101  67.7729949
  70.0351123 110.7608926  67.3576248  69.4826481 111.2113076  68.6932102
  77.2764958 113.2737877  60.2460193  76.6252938 113.8591958  59.8594207
  78.0709321 113.8044072  60.3055231  71.2020585 110.3627014  60.6447327
  71.9751461 109.8156001  60.5060203  71.5545984 111.2271264  60.8561789
  73.0405628 111.6903397  73.8514227  72.7495494 112.5949027  73.7360893
  73.6762612 111.7319924  74.5658296  73.9661834 109.0680245  70.4415586
  74.5625407 108.8436267  69.7272549  74.0236806 108.3264991  71.0441034
  73.5386863 106.5219680  58.2765777  73.7912384 106.0001202  57.5149240
  72.6011422 106.3585826  58.3792461  78.5830146 105.5255459  66.0840521
  79.3693235 105.1074882  65.7330938  78.8468850 106.4301551  66.2522169
  78.7540223 110.9628309  60.7829177  78.1186056 111.0362936  61.4950082
  78.4237629 111.5521908  60.1048257  83.9838573 105.4630692  66.9873499
  84.7163745 104.8929909  67.2211329  83.2277928 105.0752292  67.4280005
  73.2583152 108.4247786  60.4790152  73.1419410 107.7492690  61.1471237
  73.3685411 107.9380160  59.6622305  75.6014693 107.8857933  64.1836842
  75.2372900 107.3588554  64.8949763  76.4581808 107.4956403  64.0103327
  81.5063993  99.1752266  71.4468108  81.1747318 100.0447677  71.2229323
  80.9109607  98.8588550  72.1262138  77.9995513 111.3764812  70.8464020
  77.6996236 112.2789851  70.7379828  77.6546572 111.1096995  71.6985173
  71.4507994 107.8278609  66.8800725  70.5258491 107.6954823  67.0878417
  71.6992407 108.6072828  67.3770667  81.3992656 103.8947352  68.5261458
  80.4909534 103.8262761  68.2320219  81.3480252 104.3719297  69.3543283
  75.2209400 105.3705491  60.1644857  75.1009026 105.8162541  61.0030337
  74.5261989 105.7190808  59.6058395  68.8116805 107.4711882  67.7144514
  68.9409186 107.7246361  68.6283926  68.1314256 108.0639590  67.3949169
  75.4733522 105.3136998  76.4696355  74.6966856 105.8730918  76.4599220
  76.1124085 105.7993781  76.9911225  83.2654303 102.0963791  70.3039332
  82.6228683 102.3896324  69.6579126  82.7609231 101.9816711  71.1092528
  80.9194467 105.8426964  60.9925191  81.8312323 106.0754351  60.8172889
  80.4104114 106.4264008  60.4300270  73.7279895 108.1222451  76.0314322
  74.4694579 108.6607495  75.7549146  73.0216880 108.7488740  76.1885874
  79.2035234 110.2651592  74.6286484  79.6118590 109.8234002  73.8841116
  78.4812496 109.6904219  74.8820676  75.5566304 105.2024198  72.0020041
  76.4027499 105.6263612  72.1454690  75.4964942 104.5457823  72.6958604
  79.5264049 110.8252782  68.3838772  78.8972911 110.9898496  67.6814840
  79.1389711 111.2394392  69.1549736  78.7065750 102.8628567  73.6601214
  78.4626681 103.6170627  73.1235490  78.9825680 103.2413914  74.4948461
  80.6604212 109.4067179  72.3378480  80.8721108 110.0498939  71.6612861
  80.6133961 108.5729496  71.8700410  78.2630441 102.0185000  69.2415052
  77.4014920 102.3166253  69.5331789  78.2892876 102.2355399  68.3096085
  75.0792011 110.5627190  65.6488858  75.5430356 110.8414893  64.8593480
  74.8148809 109.6610635  65.4661948  71.9716092 110.1098672  68.5868621
  72.5417449 110.5385940  67.9486105  72.5624204 109.8281257  69.2852806
  74.0160897 106.6850343  62.4578423  74.7184940 107.1371386  62.9252349
  73.6841525 106.0434162  63.0858316  72.4641258 105.2762099  76.8329632
  71.8339919 105.9578380  77.0665029  72.3577346 105.1645181  75.8882770
  67.7586231 104.9433895  67.7595556  66.9685285 105.1991424  67.2835667
  68.2497478 105.7582233  67.8647597  69.7100976 105.3078475  64.7179033
  68.9132139 105.4197169  65.2362529  69.4826568 105.6465127  63.8519923
  75.5406644 111.8323178  72.6661548  75.6051076 112.2943585  73.5019719
  74.8317568 111.2020543  72.7943857  66.0423934 105.1964386  70.1910547
  66.2931972 106.0811396  70.4568123  66.5783482 105.0168987  69.4185639
  75.2554661 113.4991285  62.5340528  75.1200336 114.3442821  62.9625376
  75.7964474 113.7010563  61.7706462  71.7422001  99.5782865  79.1954883
  71.3488947  99.0249064  79.8702527  72.5588141  99.8893444  79.5861401
  68.7084059 111.0166723  63.1068453  69.2208579 111.8109974  63.2574018
  69.3606772 110.3193014  63.0402054  70.5178943 114.1332480  65.1891206
  70.6945572 115.0550444  65.0012190  71.3135777 113.8190899  65.6185586
  74.6589962 100.9940744  76.7875140  75.3999675 101.5947897  76.7079602
  74.8907885 100.2518382  76.2293182  69.8031300 106.1797112  75.0653369
  69.6884815 105.2782369  75.3660468  68.9475818 106.4260808  74.7138186
  71.6410259 115.6510653  71.1901548  72.1917684 115.5227717  70.4178542
  70.8021735 115.9505543  70.8396441  75.4377430 111.9161781  75.5345780
  75.9705767 111.1550069  75.3045088  74.9091511 111.6235433  76.2769934
  78.6047125  97.0221847  71.0639421  78.2611394  97.9123489  70.9878532
  78.9726088  96.8323505  70.2009006  66.6732976 109.3455378  63.8828024
  67.5108198 109.7552386  63.6661731  66.8511243 108.4054820  63.8528217
  78.5697408 107.0130458  59.5711856  78.0544031 107.7835063  59.8100244
  78.2974716 106.3395595  60.1944918  76.1544519 101.8580159  64.6297095
  75.2986115 101.4687010  64.4502734  76.5671470 101.9372120  63.7696880
  77.6843665  99.3926502  69.0288655  77.1808461  99.3556638  68.2156460
  77.9774272 100.3019245  69.0885311  73.9286551  99.4765232  68.0354836
  74.7939548  99.2808041  67.6760726  73.9964060  99.2475584  68.9624193
  78.3583711 104.8857550  61.3971638  78.0533846 105.2003700  62.2481781
  79.3114153 104.9638970  61.4398971  76.8030143 111.0447774  63.0464592
  76.2751504 110.3100533  62.7337829  76.3017645 111.8222450  62.8004560
  81.7822989 109.2396794  68.1631638  81.1246663 109.9296056  68.2511767
  82.5863388 109.6293226  68.5065624  71.5348870 101.7067440  65.4071203
  72.1092622 101.4842622  64.6744396  72.1219853 101.7756135  66.1599804
  80.5928448 107.5941167  66.2135580  81.1060329 108.2271159  66.7157289
  81.2429671 106.9942362  65.8478940  71.8618457 103.7371901  59.4267088
  71.0255770 104.0746588  59.7476363  71.7223227 103.6020881  58.4894225
  73.8371538  98.5808689  64.1346273  73.1835950  98.2657706  63.5102887
  73.7952012  97.9584429  64.8606096  74.9482743 108.8627984  56.0499565
  74.0409805 108.6317238  56.2490714  75.4453775 108.0665603  56.2373546
  77.0709278 105.0690623  68.4593920  76.1531840 105.2905570  68.3015608
  77.4869422 105.1436933  67.6005628  77.8544326 106.4682038  63.5896600
  78.6016145 106.9803435  63.2803723  78.1235916 106.1466091  64.4500994
  76.1270976 108.9640579  60.5723555  75.2182196 108.6799612  60.6696025
  76.1566060 109.3839657  59.7126862  80.3023163 103.5039154  65.5715390
  79.5645920 102.9916541  65.9025632  80.5549937 103.0639536  64.7598667
  80.4034791  96.2815406  66.1657159  80.7093667  95.4212770  65.8783074
  81.1287395  96.8733027  65.9656153  66.6959147 106.6846093  64.5538757
  66.4983547 106.0915454  63.8289824  66.1405811 106.3798303  65.2714696
  74.6755870 106.5769200  66.6733350  74.7304480 105.6243036  66.5975827
  73.8647072 106.7328639  67.1574649  75.8247064 110.5049323  57.9111633
  75.3866494 109.7885182  57.4517271  76.5657505 110.7325437  57.3496725
  72.6148230 105.1946259  64.4323729  71.8016096 105.4940430  64.8388921
  73.1107224 104.8001948  65.1498211  74.7656808 115.1904016  66.3657994
  74.7232987 115.4164863  65.4366526  75.6819507 114.9567391  66.5143795
  78.2122442 105.6588084  73.2638623  78.5671830 105.8859557  74.1233089
  78.8594573 105.9906461  72.6415878  83.9420179 108.7806520  63.9687952
  83.8038077 108.9708116  63.0409141  83.5856398 109.5425902  64.4256003
  72.1062305 102.7664615  70.0484964  72.7461684 102.6253374  69.3507927
  71.2739836 102.4799128  69.6723566  72.8822609 112.0667045  66.1619956
  73.6763207 111.5717365  65.9602531  72.1714301 111.5384908  65.7987662
  69.1905372 106.2110127  62.2379709  68.2602961 106.1494582  62.4549671
  69.2862844 105.6886080  61.4416350  69.1090921 102.7364940  64.8257951
  69.3697739 103.6510273  64.7167111  69.9308094 102.2689382  64.9754564
  70.5815847 104.1502697  71.9956775  71.2538900 103.9420059  71.3469424
  69.7545633 103.9524783  71.5562008  76.4841419 100.7764638  74.0122436
  75.8369334 101.4754588  73.9186913  77.2542434 101.2100782  74.3798684
  76.6605553 108.6145403  72.0719256  77.5897613 108.7656562  71.8988223
  76.2396583 108.7029424  71.2167902  75.4593885 112.6396067  69.8417793
  75.3204971 112.2714852  70.7143732  74.6708481 113.1543707  69.6701751
  77.0099100 112.0177670  67.2306631  76.6748933 111.9778440  68.1264281
  76.5103046 111.3522386  66.7577041  70.9843344 107.4245300  72.7559212
  70.8463142 106.6925539  73.3570751  71.8948268 107.3354200  72.4743400
  79.9458292 109.3633704  57.5043691  79.3287462 108.6380532  57.4076744
  79.4774780 110.1243065  57.1610765  73.6125645 107.1365259  72.2442892
  74.3225263 106.4958451  72.2029510  73.5694953 107.3878154  73.1669073
  72.3254579 104.1230477  74.0638532  71.7891936 103.6721216  74.7160128
  71.7371287 104.2576386  73.3208996  71.7356838 103.5819129  56.6264995
  70.8586304 103.4607929  56.2627242  72.2114591 102.7905207  56.3743884
  63.2558978 108.3696288  66.7206502  63.9430018 108.0558018  66.1327518
  63.1007106 109.2737653  66.4473754  68.0593700 103.2586485  71.1491526
  67.9751889 102.6512154  70.4141936  67.2376406 103.7495503  71.1501022
  78.2317414 101.7440048  66.5161721  78.7286113 100.9910011  66.1962791
  77.4604395 101.7804365  65.9504930  79.3147194 110.5011736  64.0900144
  78.3803473 110.6213198  63.9204849  79.4923863 109.5984202  63.8260154
  74.8152383 103.8857431  66.2433406  74.4450170 103.3328472  66.9314311
  75.3111475 103.2815565  65.6908406  82.7019746 106.3429055  64.6250179
  83.1680198 107.1757046  64.5510481  83.1527246 105.8774036  65.3295437
  72.6441581 114.3454926  73.3388424  73.3451041 114.9791409  73.4917818
  72.1736696 114.6869658  72.5784063  80.6736409  98.7109642  68.6641080
  79.7599488  98.9413869  68.8323287  81.1029510  98.7948086  69.5155112
  80.4442867 106.8999534  71.1640974  79.7914317 107.1475441  70.5093427
  80.8223247 106.0863672  70.8303451  76.4930440 107.6419345  77.6507011
  75.8171077 107.5413474  78.3209386  77.3158074 107.4858559  78.1143008
  68.2409299 113.8791281  70.2719526  68.8262736 113.1334969  70.4047431
  68.0434138 114.1895238  71.1556190  62.8326954 106.4496882  68.9923969
  62.8711053 105.9160472  69.7861088  62.3267247 105.9232087  68.3734947
  70.2117716 101.2961422  72.4886512  70.2759043 102.1576253  72.0763909
  70.1484836 100.6835424  71.7558870  69.6869989 103.3684555  76.1359546
  70.3142028 102.9861632  76.7497070  68.8297908 103.1498757  76.5015239
  66.4635531 105.1760984  62.0677901  66.7588973 104.2671662  62.0144955
  65.5623567 105.1548723  61.7458903  69.9929778 103.2516980  68.0505449
  69.2716364 103.8652948  67.9112923  70.7823034 103.7874745  67.9722095
  72.7956092 100.5871407  74.3246101  73.3190494 100.8333703  75.0872411
  72.5768425 101.4191442  73.9049239  68.1923373 102.8575081  62.1917226
  67.8636079 101.9772460  62.0092332  68.5462744 102.8022750  63.0793615
  71.3065196 103.1448051  62.5592704  71.6461269 103.6733972  61.8371312
  71.7537317 103.4828457  63.3351270  74.0008637 101.5285102  72.0095772
  73.6605457 100.7292915  72.4116452  73.2947643 101.8286813  71.4372605
  74.6525109  98.6134414  70.4623095  75.4751178  98.1394893  70.3401985
  74.8963172  99.3924898  70.9621781  73.2933343 101.6422673  60.7585996
  74.0141706 102.0203926  60.2549713  72.6698647 102.3611550  60.8620974
  77.4364466 102.3467822  61.6944329  77.6528081 103.2292460  61.3933157
  76.9558533 101.9554035  60.9649971  72.1763688 105.3053535  68.2715073
  72.0308268 105.6193838  69.1639355  71.6988891 105.9238435  67.7185972
  74.0360071 102.2956083  68.3195963  74.0221639 101.3997176  67.9828261
  74.7532499 102.3026747  68.9534249  75.8886201 102.7293423  70.3649090
  75.6303979 103.6510494  70.3633421  75.3571242 102.3323858  71.0549554
  66.6509350 107.8458879  71.2102735  66.1062818 108.6218687  71.3423009
  67.5288700 108.1929684  71.0521856  73.4396966 101.1770463  63.5883533
  73.5612878 100.2487109  63.7874421  73.1499009 101.1909149  62.6761848
  76.3088157  98.8625374  66.7250253  76.3309854  98.9264707  65.7702232
  76.7256216  98.0229882  66.9190759  67.4375372 106.9728776  74.1032891
  66.6957108 107.1211411  74.6897522  67.1168116 107.2337041  73.2399641
  67.8831985 114.8594204  66.1343286  68.7090005 114.5597976  65.7541930
  67.5326037 114.0901827  66.5833075  72.8513519 114.2120673  68.2040960
  72.2293528 113.5491378  67.9043188  73.5218385 114.2381805  67.5214607
  66.0840590 112.7780531  67.0932220  65.2472499 112.3502705  66.9116221
  66.0564236 112.9712974  68.0303011  72.9238046 102.6902461  77.7973466
  72.9726201 103.5664583  77.4151235  73.4660560 102.1479854  77.2245109
  72.4127025 112.7624596  61.6799420  72.5615146 113.4460060  61.0266093
  73.2193469 112.7429686  62.1948876  80.8194529 106.0666978  75.7066638
  81.7204392 105.9273443  75.4150636  80.8942504 106.2321433  76.6464815
  75.1537334 103.4433833  74.5519824  74.2840644 103.7367399  74.2802413
  75.3896815 104.0274278  75.2727088  83.2796152 107.6265606  73.1029411
  83.7550273 107.8193253  72.2948262  82.3561717 107.6824792  72.8572794
  70.1679658 108.7889774  62.6860489  69.9225700 107.8852104  62.8840699
  70.3375573 108.7906924  61.7439967  77.8576368  99.6613450  72.0685245
  78.3758312 100.3974477  71.7431733  77.5031501  99.9677443  72.9032004
  69.4375306 104.5218131  60.1846651  68.7444551 104.5962486  59.5286687
  69.1927058 103.7578475  60.7068167  78.1088962  96.0813733  67.5886141
  78.3890716  95.4136922  68.2146568  78.8939569  96.2742828  67.0760805
  81.9797821 104.5031367  71.3357716  82.9315244 104.6029464  71.3569940
  81.8101271 103.7109635  71.8455801  80.0012200 101.5886950  71.5217117
  79.4062132 101.8691962  70.8263606  79.7161897 102.0780851  72.2933858
  84.4585899 107.7237486  70.4500016  84.4262219 106.7853487  70.6359700
  85.0686522 107.8021523  69.7165841  76.2969229 106.5933539  56.4927220
  77.2428334 106.4639747  56.5615638  75.9183474 105.8548201  56.9696648
  84.6080387 104.5148530  70.4958299  84.0919436 103.7306986  70.3088228
  85.4920336 104.1867246  70.6604819  82.2691114  98.2589545  66.4554112
  82.0715935  97.9504633  67.3397444  82.8790820  98.9851184  66.5852042
  76.1807922 110.6451285  77.9527877  77.1010931 110.8229884  78.1467924
  76.1457505 109.7007331  77.8007576  74.4812147 104.5183516  56.4282105
  73.5743602 104.2216628  56.5044819  74.7588128 104.2213334  55.5616392
  65.3990087 105.8389879  66.8781152  65.0792871 104.9855187  66.5855526
  64.8523515 106.0538457  67.6339119  69.1769995 108.5552320  70.5950658
  69.3956004 109.4869428  70.6138692  69.5895768 108.1960294  71.3805462
  76.0974212  99.0620405  62.5826347  75.2874941  98.7167490  62.9581593
  76.7858629  98.7527949  63.1713958  78.0264761  98.1398452  64.2050643
  78.5795799  98.5593906  64.8640666  78.2634847  97.2134200  64.2473599
  74.0497860 104.1285526  79.9853407  73.9494587 105.0779883  79.9165498
  73.8319402 103.8003765  79.1129477  73.2510931 101.3770451  56.5694085
  74.1130095 101.7025349  56.8289902  73.4361275 100.5901947  56.0567150
  65.2678347 109.4592790  68.8474273  64.5741818 109.0446743  68.3344228
  66.0151338 109.5013327  68.2507692  81.4043568 100.2498977  63.7129308
  80.8242237 100.9083781  63.3307360  81.1379500  99.4276322  63.3016725
  79.8547134  99.6504035  65.9150628  80.3546912  99.7620569  65.1064947
  80.4982742  99.3465088  66.5551436  73.9129130 107.5582665  78.8018469
  73.4296212 108.3583025  79.0082358  73.9990069 107.5690609  77.8485913
  67.1815089 109.3911044  66.7240288  67.1585778 109.4898732  65.7722171
  67.4915726 110.2376195  67.0457454  69.8402467 111.4487199  70.8386903
  70.7945721 111.4171142  70.7716834  69.6414991 110.9877823  71.6537129
  70.4301849 110.0188315  73.4057700  71.2494738 110.5132394  73.4292538
  70.7038657 109.1020283  73.3775268  80.1868446 102.4099068  62.7685656
  79.2994301 102.6948718  62.5505851  80.6022435 102.2492831  61.9212933
  83.5382982 102.4345589  66.4839995  84.3143372 102.9242041  66.7564612
  82.8131116 102.8603643  66.9411865  85.9755540 103.1473208  67.5413936
  86.5700031 102.9068944  66.8307244  86.0482124 102.4280338  68.1687472
  79.3311659 112.1743742  56.8633676  80.0347509 112.3793745  57.4791331
  78.6074308 112.7420504  57.1282759  80.1609469 107.9253604  62.9835946
  80.1044671 108.3822155  62.1443578  80.7137812 107.1644288  62.8058789
  83.9714275 103.7143335  63.8086065  83.7151210 103.3139971  64.6394273
  83.3467143 104.4287129  63.6836205  88.2826613 106.4539409  66.3157357
  87.7226171 106.5232598  67.0888919  87.6770117 106.2780393  65.5956853
  80.8944249 109.1158385  60.2788475  80.8393053 108.9502656  59.3376919
  80.2690304 109.8234418  60.4350665  65.6836764 104.3526449  74.1049897
  66.3295627 103.8425403  74.5937123  65.4753915 105.0895131  74.6793323
  74.2040374  98.6166494  59.8573794  74.1919044  99.5608334  60.0142064
  75.0963796  98.4336639  59.5633255  78.0192494  95.2109270  64.1119730
  77.2524889  94.6567757  64.2576413  78.4303199  95.2831139  64.9733882
  70.0234255 101.4994066  78.2024912  70.8865716 101.1430871  78.4128236
  69.4499665 101.1607961  78.8900316  24.8320106   8.1606539  55.7332619
  25.4698516   8.0413287  55.0295959  24.7140949   9.1087383  55.7920571
  21.6409812   8.1133967  55.6694144  21.3028324   7.9975032  54.7814679
  22.5099580   7.7125132  55.6495150  17.4996628   9.9669444  51.6591035
  16.9361493   9.8759381  50.8907323  17.3849023   9.1469348  52.1393527
  22.1229595   9.2668819  61.6280349  22.1118236   8.8721617  60.7560853
  22.2850235   8.5334892  62.2214121  15.0461060  11.4620635  54.4975255
  15.8382352  11.1211460  54.0821555  15.2857710  11.5715610  55.4177409
  23.0796187  13.6340411  46.9705500  22.4284166  14.2194492  46.5839514
  23.8740549  14.1646606  47.0300537  17.0051814  10.7229549  47.3692634
  17.7782690  10.1758536  47.2305510  17.3577213  11.5873798  47.5807096
  18.8436856  12.0505931  60.5759533  18.5526722  12.9551562  60.4606200
  19.4793841  12.0922458  61.2903603  19.7693063   9.4282779  57.1660893
  20.3656635   9.2038802  56.4517856  19.8268035   8.6867525  57.7686341
  19.3418092   6.8822215  45.0011084  19.5943612   6.3603736  44.2394547
  18.4042651   6.7188360  45.1037768  24.3861374   5.8857993  52.8085827
  25.1724464   5.4677416  52.4576244  24.6500079   6.7904085  52.9767476
  24.5571452  11.3230843  47.5074484  23.9217285  11.3965470  48.2195389
  24.2268858  11.9124442  46.8293563  29.7869802   5.8233226  53.7118806
  30.5194974   5.2532443  53.9456635  29.0309157   5.4354827  54.1525311
  19.0614380   8.7850321  47.2035459  18.9450638   8.1095224  47.8716543
  19.1716640   8.2982695  46.3867612  21.4045921   8.2460468  50.9082148
  21.0404129   7.7191089  51.6195070  22.2613037   7.8558937  50.7348634
  27.3095222  -0.4645200  58.1713414  26.9778547   0.4050211  57.9474629
  26.7140835  -0.7808916  58.8507445  21.0451408   3.2750367  45.9043497
  21.2125811   4.1430604  46.2713968  20.8548577   3.4377649  44.9804786
  23.8026741  11.7367346  57.5709327  23.5027465  12.6392385  57.4625134
  23.4577801  11.4699530  58.4230480  17.2539223   8.1881143  53.6046032
  16.3289719   8.0557357  53.8123723  17.5023636   8.9675362  54.1015974
  27.2023885   4.2549886  55.2506764  26.2940763   4.1865295  54.9565525
  27.1511481   4.7321831  56.0788590  21.0240629   5.7308025  46.8890164
  20.9040254   6.1765076  47.7275644  20.3293218   6.0793343  46.3303702
  14.6148034   7.8314417  54.4389821  14.7440415   8.0848896  55.3529232
  13.9345485   8.4242125  54.1194476  18.7847521  18.5011667  50.5380295
  18.7071551  19.4519492  50.6168775  18.1809165  18.1557539  51.1955221
  21.2764751   5.6739532  63.1941662  20.4998085   6.2333452  63.1844526
  21.9155314   6.1596315  63.7156532  29.0685532   2.4566325  57.0284638
  28.4259912   2.7498858  56.3824433  28.5640460   2.3419245  57.8337835
  26.7225695   6.2029498  47.7170498  27.6343551   6.4356885  47.5418195
  26.2135342   6.7866542  47.1545576  19.5311123   8.4824985  62.7559629
  20.2725808   9.0210029  62.4794452  18.8248109   9.1091274  62.9131180
  25.0066463  10.6254126  61.3531790  25.4149819  10.1836536  60.6086423
  24.2843724  10.0506753  61.6065983  21.3597533   5.5626733  58.7265347
  22.2058728   5.9866146  58.8699996  21.2996171   4.9060357  59.4203910
  25.3295278  11.1855317  55.1084079  24.7004140  11.3501031  54.4060147
  24.9420940  11.5996926  55.8795043  29.2084510  12.1209754  52.4628443
  28.5235548  12.5008656  51.9125476  29.2928359  12.7305081  53.1960391
  24.5096978   3.2231101  60.3846521  24.2657910   3.9773162  59.8480796
  24.7856909   3.6016449  61.2193768  26.4635441   9.7669713  59.0623786
  26.6752336  10.4101473  58.3858167  26.4165189   8.9332030  58.5945716
  24.0661670   2.3787534  55.9660358  23.2046149   2.6768788  56.2577096
  24.0924105   2.5957933  55.0341391  20.8823240  10.9229725  52.3734164
  21.3461585  11.2017428  51.5838787  20.6180038  10.0213169  52.1907255
  17.7747321  10.4701206  55.3113927  18.3448678  10.8988475  54.6731412
  18.3655432  10.1883791  56.0098113  19.8192126   7.0452877  49.1823729
  20.5216169   7.4973921  49.6497656  19.4872754   6.4036696  49.8103622
  18.2672487   5.6364634  63.5574939  17.6371148   6.3180914  63.7910336
  18.1608575   5.5247715  62.6128077  27.5781269  12.6441669  57.2346144
  28.3998713  12.2421856  56.9528825  27.5743672  12.5409903  58.1862259
  21.3437873  12.1925712  59.3906854  21.4082305  12.6546119  60.2265026
  20.6348796  11.5623077  59.5189164  35.6687262   8.9880417  53.5831115
  34.9150971   8.4187815  53.4275120  35.8034803   8.9543082  54.5301750
  21.0585890  13.8593820  49.2585835  20.9231565  14.7045355  49.6870682
  21.5995703  14.0613097  48.4951768  14.5115288  11.3769258  49.8313760
  15.0239808  12.1712508  49.9819324  15.1638000  10.6795548  49.7647361
  16.3210172  14.4935014  51.9136513  16.4976801  15.4152979  51.7257497
  17.1167006  14.1793433  52.3430893  15.6062529   6.5399646  61.7898676
  15.4916044   5.6384903  62.0905775  14.7507047   6.7863343  61.4383493
  22.6854367  14.4817386  63.3886177  22.2418221  13.6953765  63.0707081
  23.3471580  14.6696537  62.7230067  17.4441488  16.0113188  57.9146855
  17.9948913  15.8830251  57.1423849  16.6052964  16.3108077  57.5641748
  24.7835605  14.7620186  61.4167578  24.7654080  15.5829067  60.9247847
  25.7055525  14.6374261  61.6417719  21.2408659  12.2764316  62.2591086
  21.7736996  11.5152604  62.0290394  20.7122740  11.9837967  63.0015241
  12.4764204   9.7057912  50.6073330  13.3139426  10.1154920  50.3907038
  12.6542472   8.7657354  50.5773524  24.3728636   7.3732993  46.2957163
  23.8575260   8.1437597  46.5345551  24.1005945   6.6998129  46.9190225
  21.9575748   2.2182693  51.3542401  21.1017344   1.8289544  51.1748040
  22.3702699   2.2974654  50.4942187  29.3462911  10.1265347  48.2310337
  28.5692353   9.7876507  47.7865499  30.0254392  10.1317970  47.5565302
  24.1614940   5.2460085  48.1216944  23.8565075   5.5606234  48.9727087
  25.1145382   5.3241505  48.1644277  22.6061372  11.4050308  49.7709898
  22.0782733  10.6703068  49.4583136  22.1048874  12.1824984  49.5249867
  27.5854218   9.5999328  54.8876945  26.9277892  10.2898590  54.9757073
  28.3894617   9.9895760  55.2310931  26.3959676   7.9543701  52.9380886
  26.9091558   8.5873693  53.4402596  27.0460900   7.3544897  52.5724246
  20.7513972   9.2230518  42.7744871  19.8441033   8.9919772  42.9736020
  21.2485004   8.4268138  42.9618853  23.6582051  17.9328025  45.6941557
  22.9843749  18.2359722  46.3026515  24.0447873  18.7357106  45.3447015
  22.8740507   5.4293157  55.1839227  21.9563069   5.6508104  55.0260915
  23.2900651   5.5039467  54.3250934  23.6575555   6.8284572  50.3141907
  24.4047374   7.3405970  50.0049029  23.9267144   6.5068625  51.1746301
  21.9302205   9.3243113  47.2968861  21.0213424   9.0402146  47.3941331
  21.9597289   9.7442192  46.4372168  27.1621473  12.9349703  51.0660029
  26.7083800  12.0940613  51.1225219  26.5315439  13.5711101  51.4034809
  26.1054392   3.8641689  52.2960696  25.3677149   3.3519075  52.6270939
  26.3581166   3.4242070  51.4843973  25.6054412  14.7726199  52.0009847
  25.8977386  15.3331256  51.2822213  26.1153032  15.0654760  52.7563006
  20.4787099   6.9371734  53.3978657  20.5335709   5.9845570  53.3221133
  19.6678301   7.0931173  53.8819955  21.6278293  10.8651857  44.6356940
  21.1897723  10.1487716  44.1762577  22.3688734  11.0927972  44.0742031
  18.4179459   5.5548793  51.1569036  17.6047325   5.8542964  51.5634228
  18.9138453   5.1604482  51.8743518  20.5688037  15.5506550  53.0903300
  20.5264216  15.7767397  52.1611832  21.4850736  15.3169925  53.2389101
  24.0153671   6.0190618  59.9883930  24.3703058   6.2462091  60.8478395
  24.6625802   6.3508995  59.3661185  29.7451408   9.1409054  50.6933259
  29.6069306   9.3310650  49.7654448  29.3887627   9.9028437  51.1501310
  29.7720787  11.2085581  55.7044530  30.2057294  11.1160870  56.5527584
  30.4852368  11.1843081  55.0664546  18.6853838  12.4269579  52.8865263
  19.4794436  11.9319900  52.6847838  17.9745530  11.8987443  52.5232969
  23.5048682  14.8087675  57.2377631  23.5585704  15.3778611  58.0055347
  22.6363464  14.9789560  56.8731668  30.6336337  11.2509281  58.2377415
  30.8272227  12.1555092  58.4836690  30.5336955  10.7916701  59.0716000
  22.2872648   1.1367172  60.7367743  21.6400563   1.8357122  60.6432219
  23.0573663   1.5703316  61.1043991  25.6951446  11.4016024  63.8118296
  25.5436952  11.1726576  62.8948380  25.6856125  12.3586626  63.8249641
  22.4636782   8.9747937  58.7964562  23.3928842   9.1259097  58.6233530
  22.0427812   9.0631958  57.9413209  21.2625114  12.9998601  56.5663100
  21.1236199  12.6317386  57.4389038  20.4739710  13.5146241  56.3947058
  21.8573266  18.1007698  47.9088637  22.0325021  17.6295741  48.7234259
  21.1706054  18.7273464  48.1369897  22.8130329  12.3780204  53.9551938
  22.4780161  12.3380974  54.8509588  22.3134275  11.7124920  53.4822348
  16.7874573   7.7847834  59.4804519  16.6494371   7.0528073  60.0816058
  17.6979496   7.6956734  59.1988707  25.7489521   9.7236238  44.2288998
  25.1318691   8.9983067  44.1322050  25.2806009  10.4845599  43.8856072
  19.4156874   7.4967793  58.9688199  20.1256492   6.8560986  58.9274817
  19.3726182   7.7480688  59.8914379  27.4043652  14.4335147  61.8894778
  27.3456198  13.7494367  61.2225361  27.8063171  15.1754137  61.4375404
  18.1285807   4.4833011  60.7883838  17.5923165   4.0323750  61.4405435
  17.5402516   4.6178920  60.0454303  16.4234351  21.2497061  54.6828497
  16.6630949  21.8815585  55.3607515  15.5803547  20.8985101  54.9693856
  27.4061059  12.3974731  60.1208758  26.5187838  12.0600653  60.2435156
  27.9759611  11.6657762  60.3577523  20.9362213  17.0576183  57.0870001
  20.8632384  17.8631155  57.5989305  20.4939606  17.2568149  56.2618022
  20.7251992  16.2947953  50.5972822  19.9419514  16.8369633  50.6911047
  21.4244738  16.8121933  50.9967064  24.0348643   2.1042583  53.2407028
  24.5317342   1.3512545  52.9208098  23.2635624   2.1406899  52.6750237
  31.8878400   7.8082948  54.8825319  31.8768276   8.6907664  54.5119252
  31.0195779   7.4554499  54.6879856  23.3960896  16.9563017  59.2428159
  24.1088869  17.5910482  59.1704061  22.9050925  17.0526883  58.4268161
  25.1178423  10.8614270  50.8145451  24.1834702  10.9815732  50.6450155
  25.2955092   9.9586737  50.5505461  20.6183611   4.2459966  52.9678712
  20.2481399   3.6931006  53.6559618  21.1142704   3.6418099  52.4153712
  28.5050975   6.7031589  51.3495485  28.9711427   7.5359581  51.2755788
  28.9558475   6.2376571  52.0540744  18.4472810  14.7057461  60.0633730
  19.1482269  15.3393944  60.2163124  17.9767925  15.0472192  59.3029370
  26.5727206  13.0475410  48.3481637  26.8487050  12.9332005  49.2575511
  25.7031704  12.6492895  48.3093810  26.4767637  -0.9287824  55.3886387
  25.5630717  -0.6983597  55.5568594  26.9060739  -0.8449380  56.2400419
  26.2474096   7.2602068  57.8886281  25.5945546   7.5077975  57.2338733
  26.6254476   6.4466206  57.5548758  23.2081270  17.2961761  51.9914451
  23.3903664  16.4783417  52.4542203  24.0314256  17.5129453  51.5539341
  23.5423435  16.2229946  49.2529499  24.0711202  15.7122401  48.6399662
  23.8051655  15.9072477  50.1175032  22.2961669   8.0021879  64.3752318
  21.6202306   7.9016008  65.0454693  23.1189303   7.8461093  64.8388315
  14.0440528  14.2393816  56.9964833  14.6293965  13.4937504  57.1292737
  13.8465366  14.5497772  57.8801497  16.8979183  17.2745063  52.0127275
  16.2289558  17.7591191  51.5291315  16.7592053  17.5214283  52.9270654
  21.0384452  19.3088807  58.6109934  21.5902760  19.4720428  59.3759019
  21.3790645  19.8993244  57.9389959  25.8895326  14.1350064  64.4658588
  26.4335230  14.7480022  63.9713543  25.3082171  14.6929642  64.9825601
  24.1752839  17.2570782  55.5973616  24.0503979  16.4560522  55.0884561
  24.8331930  17.7516975  55.1087586  26.2387747  15.0579802  57.2253166
  25.2918083  14.9385153  57.1531493  26.5870521  14.1702300  57.3079427
  23.2434181  14.8532518  53.4257518  23.0959143  13.9249226  53.6065088
  24.0687674  14.8752609  52.9414593  26.8468303  15.6761077  54.5122391
  27.7714850  15.4703938  54.3746842  26.6783606  15.4277478  55.4211732
  23.2395695   2.7070356  48.4189635  23.4559309   3.5894994  48.1178464
  22.7589762   2.3156569  47.6895277  17.9794916   5.6656069  54.9960380
  17.8339497   5.9796372  55.8884662  17.5020120   6.2840970  54.4431279
  21.6917430   3.0895957  57.0894397  21.4335208   4.0113028  57.0878727
  21.1602470   2.6926392  57.7794861  26.6363619  16.1946745  49.8684482
  26.8100496  15.6293167  49.1158335  27.1292510  16.9947639  49.6863972
  12.4540579   8.2061414  57.9348041  11.9094047   8.9821222  58.0668316
  13.3319928   8.5532218  57.7767163  32.4903010   8.9583167  51.4874782
  32.9334156   8.2090493  51.0893905  31.6129520   8.9493304  51.1048514
  27.6238791  15.5113509  46.9681381  28.3189696  16.1320202  47.1868695
  27.9661941  14.6608860  47.2433759  29.5230214  12.9613214  48.4968711
  30.0481538  13.3000487  47.7718031  29.4352567  12.0260230  48.3131846
  21.1850263  16.8747288  60.6258588  21.4937390  16.6296435  61.4981288
  21.9825745  17.0793927  60.1377458  21.2070875  19.0285198  52.8563965
  20.7675865  18.5361576  53.5496821  21.9578992  18.4858165  52.6156040
  13.6863214  15.2196739  52.8588593  14.5121234  14.9200510  52.4787236
  13.3357266  14.4504361  53.3078381  18.6544747  14.5723207  54.9286266
  18.0324757  13.9093912  54.6288494  19.3249614  14.5984339  54.2459914
  11.8871819  13.1383065  53.8177526  11.0503727  12.7105239  53.6361528
  11.8595465  13.3315508  54.7548317  29.2124120  13.5946118  63.8019909
  28.4219664  13.5770257  63.2624409  28.9757475  14.1334412  64.5568946
  29.3321996  10.4438584  61.1152638  29.3820000  10.2788592  62.0568161
  29.2235919   9.5765844  60.7250519  18.2158254  13.1227130  48.4044727
  18.3646375  13.8062595  47.7511400  19.0224698  13.1032220  48.9194183
  26.6225758   6.4269513  62.4311945  27.5235621   6.2875977  62.1395942
  26.6973732   6.5923967  63.3710122  20.9568563   3.8036367  61.2765131
  20.0871873   4.0969933  61.0047719  21.1928044   4.3876812  61.9972395
  30.8340192  12.8635526  61.3594659  30.5425001  13.2265507  62.1958120
  30.2212324  12.1502534  61.1807992  32.0335875  10.4288406  53.8797230
  32.8682766  10.8678210  54.0434790  32.1695003   9.9527059  53.0605475
  29.0827381   7.9868141  59.8274717  29.5581502   8.1795787  59.0193569
  28.1592946   8.0427326  59.5818101  15.9710887   9.1492308  49.4105796
  15.7256929   8.2454638  49.6086006  16.1406802   9.1509458  48.4685274
  23.6607597   0.0215984  58.7930551  24.1789541   0.7577011  58.4677040
  23.3062730   0.3279977  59.6277310  21.7153660  15.6175261  45.8756474
  21.1427627  16.2365448  45.4226946  22.2886453  16.1674622  46.4096396
  27.7829050   4.8633901  58.0603023  28.7346472   4.9631998  58.0815247
  27.6132500   4.0712169  58.5701107  25.8043429   1.9489484  58.2462424
  25.2093361   2.2294497  57.5508913  25.5193126   2.4383385  59.0179165
  24.9350920  15.9012411  47.0065057  25.8681593  15.8357972  47.2097932
  24.8474132  16.7368678  46.5479589  27.5638936  15.2178281  43.9669004
  27.4852568  14.8838145  44.8604762  28.3848603  15.7100049  43.9660476
  30.2617127   8.0840020  57.1745323  30.2293447   7.1456021  57.3605007
  30.8717751   8.1624057  56.4411148  22.1000458   6.9536073  43.2172527
  23.0459563   6.8242281  43.2860945  21.7214703   6.2150735  43.6941955
  30.4111616   4.8751064  57.2203606  29.8950665   4.0909520  57.0333535
  31.2951564   4.5469780  57.3850125  28.0722343  -1.3807921  53.1799419
  27.8747164  -1.6892832  54.0642751  28.6822048  -0.6546282  53.3097348
  36.0793677   9.1456027  56.3151359  36.8097066   8.8841315  56.8759063
  35.4700623   8.4084749  56.3553427  34.1608974   7.2863890  56.9125811
  33.4342138   7.1519855  56.3042302  33.7456261   7.5940718  57.7182529
  21.9839151  11.0053820  64.6773184  22.9042160  11.1832419  64.8713230
  21.9488734  10.0609865  64.5252883  20.2843375   4.8786050  43.1527412
  19.3774831   4.5819162  43.2290126  20.5619356   4.5815868  42.2861698
  14.9801223   8.9154854  57.3195965  15.1987233   9.8471962  57.3383999
  15.3926997   8.5562829  58.1050769  19.8529089   4.4888060  66.7098714
  19.7525816   5.4382417  66.6410805  19.6350631   4.1606299  65.8374784
  11.0709576   9.8195325  55.5719580  10.3773047   9.4049277  55.0589534
  11.8182567   9.8615861  54.9752999  27.2074796   0.6101511  50.4374614
  26.6273466   1.2686315  50.0552667  26.9410729  -0.2121144  50.0262032
  25.6578363   0.0106569  52.6395934  26.1578141   0.1223104  51.8310253
  26.3013971  -0.2932378  53.2796743  19.7160359   7.9185199  65.5263775
  19.2327440   8.7185559  65.7327664  19.8021298   7.9293144  64.5731219
  12.9846318   9.7513578  53.4485595  12.9617006   9.8501266  52.4967478
  13.2946955  10.5978729  53.7702761  15.6433696  11.8089733  57.5632209
  16.5976950  11.7773676  57.4962141  15.4446220  11.3480357  58.3782435
  16.2333078  10.3790850  60.1303007  17.0525967  10.8734928  60.1537844
  16.5069886   9.4622818  60.1020574  25.9899675   2.7701602  49.4930962
  25.1025530   3.0551252  49.2751157  26.4053664   2.6095365  48.6458239
  29.3414211   2.7948123  53.2085302  30.1174601   3.2844575  53.4809918
  28.6162345   3.2206177  53.6657171  31.7786769   3.5075742  54.2659242
  32.3731260   3.2671478  53.5552551  31.8513353   2.7882873  54.8932779
  13.9983925  17.3509353  54.5802407  13.8638393  16.5909754  54.0140405
  13.5815987  18.0750253  54.1131196  25.1342888  12.5346277  43.5878982
  25.8378738  12.7396279  44.2036638  24.4105537  13.1023038  43.8528066
  25.9640698   8.2856138  49.7081253  25.9075900   8.7424689  48.8688885
  26.5169041   7.5246822  49.5304095  29.7745504   4.0745870  50.5331372
  29.5182438   3.6742505  51.3639580  29.1498372   4.7889664  50.4081511
  34.0857842   6.8141943  53.0402663  33.5257400   6.8835132  53.8134226
  33.4801345   6.6382928  52.3202160  17.1553051  18.2478670  54.7920850
  17.0385435  19.1924102  54.6899540  16.3345497  17.9452232  55.1806649
  27.0429585  12.9728806  45.6377442  27.8775189  12.5410004  45.4554917
  26.8813928  12.8010819  46.5654337  26.6975478   9.4760919  47.0033782
  26.6424281   9.3105190  46.0622226  26.0721533  10.1836952  47.1595971
  24.0121385  11.7809831  66.3287345  24.8812544  11.9550483  65.9673979
  23.5328136  12.6004248  66.2063074  18.1807565  18.9006932  58.0076778
  19.0834812  18.9330542  58.3243273  17.9544935  17.9707383  58.0223114
  19.9361167  17.6537918  54.6686857  18.9856798  17.6539780  54.5551229
  20.2393653  16.9070653  54.1522891  35.6713860  23.4898457  55.7332619
  36.3092270  23.3705204  55.0295959  35.5534703  24.4379301  55.7920571
  32.4803567  23.4425885  55.6694144  32.1422078  23.3266950  54.7814679
  33.3493335  23.0417050  55.6495150  28.3390382  25.2961361  51.6591035
  27.7755248  25.2051298  50.8907323  28.2242777  24.4761266  52.1393527
  32.9623350  24.5960737  61.6280349  32.9511991  24.2013535  60.7560853
  33.1243989  23.8626809  62.2214121  25.8854814  26.7912553  54.4975255
  26.6776106  26.4503378  54.0821555  26.1251465  26.9007528  55.4177409
  33.9189941  28.9632329  46.9705500  33.2677921  29.5486409  46.5839514
  34.7134304  29.4938524  47.0300537  27.8445568  26.0521466  47.3692634
  28.6176444  25.5050453  47.2305510  28.1970967  26.9165716  47.5807096
  29.6830611  27.3797848  60.5759533  29.3920477  28.2843479  60.4606200
  30.3187595  27.4214376  61.2903603  30.6086818  24.7574697  57.1660893
  31.2050390  24.5330719  56.4517856  30.6661789  24.0159442  57.7686341
  30.1811846  22.2114132  45.0011084  30.4337367  21.6895654  44.2394547
  29.2436405  22.0480278  45.1037768  35.2255129  21.2149911  52.8085827
  36.0118218  20.7969334  52.4576244  35.4893833  22.1196003  52.9767476
  35.3965206  26.6522761  47.5074484  34.7611039  26.7257387  48.2195389
  35.0662613  27.2416360  46.8293563  40.6263556  21.1525144  53.7118806
  41.3588728  20.5824361  53.9456635  39.8702912  20.7646744  54.1525311
  29.9008135  24.1142238  47.2035459  29.7844393  23.4387142  47.8716543
  30.0110395  23.6274612  46.3867612  32.2439676  23.5752385  50.9082148
  31.8797883  23.0483006  51.6195070  33.1006792  23.1850854  50.7348634
  38.1488976  14.8646718  58.1713414  37.8172301  15.7342129  57.9474629
  37.5534590  14.5483002  58.8507445  31.8845163  18.6042285  45.9043497
  32.0519565  19.4722521  46.2713968  31.6942332  18.7669567  44.9804786
  34.6420496  27.0659264  57.5709327  34.3421219  27.9684303  57.4625134
  34.2971555  26.7991447  58.4230480  28.0932977  23.5173061  53.6046032
  27.1683474  23.3849275  53.8123723  28.3417391  24.2967280  54.1015974
  38.0417640  19.5841804  55.2506764  37.1334517  19.5157213  54.9565525
  37.9905236  20.0613749  56.0788590  31.8634384  21.0599943  46.8890164
  31.7434009  21.5056993  47.7275644  31.1686972  21.4085260  46.3303702
  25.4541788  23.1606334  54.4389821  25.5834170  23.4140813  55.3529232
  24.7739240  23.7534042  54.1194476  29.6241276  33.8303584  50.5380295
  29.5465305  34.7811409  50.6168775  29.0202919  33.4849457  51.1955221
  32.1158506  21.0031450  63.1941662  31.3391840  21.5625370  63.1844526
  32.7549069  21.4888233  63.7156532  39.9079286  17.7858243  57.0284638
  39.2653666  18.0790776  56.3824433  39.4034215  17.6711163  57.8337835
  37.5619450  21.5321416  47.7170498  38.4737306  21.7648802  47.5418195
  37.0529097  22.1158460  47.1545576  30.3704878  23.8116903  62.7559629
  31.1119562  24.3501947  62.4794452  29.6641863  24.4383192  62.9131180
  35.8460217  25.9546044  61.3531790  36.2543574  25.5128454  60.6086423
  35.1237479  25.3798671  61.6065983  32.1991288  20.8918650  58.7265347
  33.0452483  21.3158064  58.8699996  32.1389925  20.2352275  59.4203910
  36.1689032  26.5147234  55.1084079  35.5397895  26.6792948  54.4060147
  35.7814694  26.9288844  55.8795043  40.0478264  27.4501672  52.4628443
  39.3629302  27.8300573  51.9125476  40.1322113  28.0596999  53.1960391
  35.3490733  18.5523019  60.3846521  35.1051665  19.3065079  59.8480796
  35.6250663  18.9308366  61.2193768  37.3029196  25.0961631  59.0623786
  37.5146091  25.7393391  58.3858167  37.2558944  24.2623948  58.5945716
  34.9055425  17.7079452  55.9660358  34.0439904  18.0060705  56.2577096
  34.9317859  17.9249851  55.0341391  31.7216994  26.2521642  52.3734164
  32.1855340  26.5309345  51.5838787  31.4573792  25.3505087  52.1907255
  28.6141075  25.7993124  55.3113927  29.1842432  26.2280392  54.6731412
  29.2049187  25.5175709  56.0098113  30.6585880  22.3744795  49.1823729
  31.3609923  22.8265838  49.6497656  30.3266509  21.7328614  49.8103622
  29.1066242  20.9656551  63.5574939  28.4764902  21.6472832  63.7910336
  29.0002329  20.8539633  62.6128077  24.4011214  20.6328347  54.4840863
  23.6110268  20.8885876  54.0080973  24.8922461  21.4476685  54.5892903
  38.4175024  27.9733586  57.2346144  39.2392467  27.5713774  56.9528825
  38.4137426  27.8701821  58.1862259  26.3525959  20.9972927  51.4424340
  25.5557123  21.1091621  51.9607835  26.1251552  21.3359579  50.5765230
  32.1831627  27.5217630  59.3906854  32.2476060  27.9838037  60.2265026
  31.4742551  26.8914995  59.5189164  22.6848917  20.8858838  56.9155854
  22.9356955  21.7705848  57.1813430  23.2208465  20.7063439  56.1430945
  46.5081017  24.3172335  53.5831115  45.7544725  23.7479733  53.4275120
  46.6428558  24.2834999  54.5301750  31.8979645  29.1885737  49.2585835
  31.7625319  30.0337273  49.6870682  32.4389457  29.3905015  48.4951768
  28.3846984  15.2677317  65.9200190  27.9913930  14.7143516  66.5947834
  29.2013125  15.5787896  66.3106707  25.3509042  26.7061175  49.8313760
  25.8633563  27.5004426  49.9819324  26.0031755  26.0087466  49.7647361
  27.1603927  29.8226932  51.9136513  27.3370555  30.7444896  51.7257497
  27.9560760  29.5085351  52.3430893  31.3014945  16.6835196  63.5120446
  32.0424659  17.2842349  63.4324909  31.5332868  15.9412834  62.9538489
  26.4456283  21.8691563  61.7898676  26.3309798  20.9676821  62.0905775
  25.5900801  22.1155260  61.4383493  33.5248121  29.8109304  63.3886177
  33.0811975  29.0245682  63.0707081  34.1865335  29.9988454  62.7230067
  28.2835242  31.3405105  57.9146855  28.8342667  31.2122169  57.1423849
  27.4446718  31.6399994  57.5641748  35.6229359  30.0912104  61.4167578
  35.6047834  30.9120985  60.9247847  36.5449279  29.9666179  61.6417719
  32.0802413  27.6056233  62.2591086  32.6130750  26.8444521  62.0290394
  31.5516494  27.3129885  63.0015241  35.2472108  12.7116299  57.7884728
  34.9036378  13.6017941  57.7123839  35.6151071  12.5217957  56.9254313
  23.3157959  25.0349830  50.6073330  24.1533181  25.4446838  50.3907038
  23.4936227  24.0949272  50.5773524  35.2122391  22.7024910  46.2957163
  34.6969014  23.4729515  46.5345551  34.9399699  22.0290046  46.9190225
  32.7969502  17.5474611  51.3542401  31.9411098  17.1581461  51.1748040
  33.2096454  17.6266572  50.4942187  34.3268649  15.0820954  55.7533961
  33.8233444  15.0451089  54.9401767  34.6199256  15.9913697  55.8130618
  30.5711535  15.1659684  54.7600143  31.4364531  14.9702493  54.4006032
  30.6389043  14.9370036  55.6869500  40.1856665  25.4557265  48.2310337
  39.4086108  25.1168424  47.7865499  40.8648146  25.4609888  47.5565302
  35.0008694  20.5752002  48.1216944  34.6958830  20.8898152  48.9727087
  35.9539136  20.6533422  48.1644277  33.4455126  26.7342226  49.7709898
  32.9176488  25.9994985  49.4583136  32.9442629  27.5116902  49.5249867
  38.4247972  24.9291246  54.8876945  37.7671646  25.6190508  54.9757073
  39.2288371  25.3187678  55.2310931  28.1773854  17.3961892  52.1316510
  28.7517606  17.1737073  51.3989703  28.7644836  17.4650586  52.8845111
  37.2353431  23.2835619  52.9380886  37.7485313  23.9165611  53.4402596
  37.8854655  22.6836814  52.5724246  28.5043441  19.4266353  46.1512395
  27.6680753  19.7641040  46.4721670  28.3648210  19.2915333  45.2139532
  30.4796521  14.2703141  50.8591579  29.8260934  13.9552158  50.2348194
  30.4376995  13.6478881  51.5851402  31.5907726  24.5522436  42.7744871
  30.6834788  24.3211689  42.9736020  32.0878758  23.7560055  42.9618853
  34.4975805  33.2619943  45.6941557  33.8237504  33.5651640  46.3026515
  34.8841627  34.0649023  45.3447015  33.7134262  20.7585074  55.1839227
  32.7956823  20.9800021  55.0260915  34.1294405  20.8331385  54.3250934
  34.4969309  22.1576490  50.3141907  35.2441128  22.6697887  50.0049029
  34.7660899  21.8360543  51.1746301  32.7695960  24.6535031  47.2968861
  31.8607179  24.3694064  47.3941331  32.7991043  25.0734109  46.4372168
  38.0015227  28.2641620  51.0660029  37.5477554  27.4232530  51.1225219
  37.3709194  28.9003019  51.4034809  36.9448147  19.1933606  52.2960696
  36.2070903  18.6810993  52.6270939  37.1974920  18.7533988  51.4843973
  36.4448166  30.1018117  52.0009847  36.7371141  30.6623174  51.2822213
  36.9546787  30.3946678  52.7563006  37.0459774  11.9709858  52.8902466
  37.3518651  11.1107222  52.6028381  37.7712379  12.5627479  52.6901460
  23.3384130  22.3740545  51.2784064  23.1408530  21.7809906  50.5535130
  22.7830794  22.0692755  51.9960002  31.3180854  22.2663651  53.3978657
  31.3729463  21.3137488  53.3221133  30.5072056  22.4223091  53.8819955
  32.4672047  26.1943774  44.6356940  32.0291477  25.4779633  44.1762577
  33.2082488  26.4219889  44.0742031  29.2573214  20.8840711  51.1569036
  28.4441079  21.1834882  51.5634228  29.7532208  20.4896400  51.8743518
  31.4081791  30.8798468  53.0903300  31.3657970  31.1059314  52.1611832
  32.3244490  30.6461843  53.2389101  34.8547425  21.3482536  59.9883930
  35.2096813  21.5754009  60.8478395  35.5019556  21.6800912  59.3661185
  40.5845162  24.4700972  50.6933259  40.4463061  24.6602567  49.7654448
  40.2281381  25.2320354  51.1501310  28.7487288  18.4559067  56.7730271
  29.3886668  18.3147826  56.0753234  27.9164819  18.1693580  56.3968873
  40.6114542  26.5377499  55.7044530  41.0451048  26.4452788  56.5527584
  41.3246123  26.5134999  55.0664546  29.5247592  27.7561497  52.8865263
  30.3188191  27.2611817  52.6847838  28.8139285  27.2279360  52.5232969
  34.3442437  30.1379593  57.2377631  34.3979459  30.7070529  58.0055347
  33.4757218  30.3081478  56.8731668  25.8330356  21.9004579  48.9625016
  24.9027944  21.8389034  49.1794978  25.9287828  21.3780532  48.1661657
  25.7515905  18.4259392  51.5503257  26.0122722  19.3404725  51.4412418
  26.5733077  17.9583834  51.6999870  27.2240830  19.8397149  58.7202082
  27.8963884  19.6314511  58.0714731  26.3970617  19.6419235  58.2807314
  41.4730091  26.5801199  58.2377415  41.6665981  27.4847010  58.4836690
  41.3730710  26.1208618  59.0716000  33.1266402  16.4659090  60.7367743
  32.4794317  17.1649039  60.6432219  33.8967417  16.8995234  61.1043991
  36.5345200  26.7307942  63.8118296  36.3830706  26.5018494  62.8948380
  36.5249880  27.6878543  63.8249641  33.3030536  24.3039855  58.7964562
  34.2322596  24.4551014  58.6233530  32.8821566  24.3923875  57.9413209
  32.1018868  28.3290519  56.5663100  31.9629954  27.9609303  57.4389038
  31.3133464  28.8438159  56.3947058  32.6967020  33.4299616  47.9088637
  32.8718776  32.9587659  48.7234259  32.0099808  34.0565382  48.1369897
  33.6524083  27.7072122  53.9551938  33.3173916  27.6672892  54.8509588
  33.1528029  27.0416838  53.4822348  27.6268327  23.1139752  59.4804519
  27.4888125  22.3819991  60.0816058  28.5373251  23.0248652  59.1988707
  36.5883275  25.0528156  44.2288998  35.9712446  24.3274984  44.1322050
  36.1199763  25.8137516  43.8856072  30.2550628  22.8259711  58.9688199
  30.9650247  22.1852903  58.9274817  30.2119936  23.0772606  59.8914379
  38.2437407  29.7627064  61.8894778  38.1849953  29.0786285  61.2225361
  38.6456925  30.5046054  61.4375404  28.9679562  19.8124929  60.7883838
  28.4316919  19.3615667  61.4405435  28.3796270  19.9470838  60.0454303
  27.2628105  36.5788978  54.6828497  27.5024704  37.2107502  55.3607515
  26.4197302  36.2277018  54.9693856  28.3781821  19.2713580  43.3510302
  27.5011287  19.1502381  42.9872548  28.8539574  18.4799659  43.0989190
  38.2454814  27.7266648  60.1208758  37.3581593  27.3892570  60.2435156
  38.8153365  26.9949680  60.3577523  19.8983961  24.0590740  53.4451809
  20.5855001  23.7452470  52.8572824  19.7432090  24.9632105  53.1719060
  24.7018683  18.9480937  57.8736833  24.6176872  18.3406606  57.1387243
  23.8801390  19.4389955  57.8746329  31.7755967  32.3868101  57.0870001
  31.7026139  33.1923072  57.5989305  31.3333360  32.5860067  56.2618022
  31.5645747  31.6239871  50.5972822  30.7813269  32.1661551  50.6911047
  32.2638492  32.1413850  50.9967064  34.8742397  17.4334500  53.2407028
  35.3711097  16.6804463  52.9208098  34.1029379  17.4698817  52.6750237
  42.7272154  23.1374866  54.8825319  42.7162031  24.0199581  54.5119252
  41.8589534  22.7846417  54.6879856  34.2354651  32.2854935  59.2428159
  34.9482623  32.9202400  59.1704061  33.7444680  32.3818801  58.4268161
  35.9572178  26.1906187  50.8145451  35.0228457  26.3107650  50.6450155
  36.1348846  25.2878654  50.5505461  31.4577366  19.5751883  52.9678712
  31.0875153  19.0222924  53.6559618  31.9536458  18.9710017  52.4153712
  39.3444729  22.0323507  51.3495485  39.8105181  22.8651498  51.2755788
  39.7952230  21.5668488  52.0540744  29.2866564  30.0349378  60.0633730
  29.9876024  30.6685861  60.2163124  28.8161679  30.3764110  59.3029370
  37.4120960  28.3767328  48.3481637  37.6880804  28.2623923  49.2575511
  36.5425459  27.9784813  48.3093810  37.3161392  14.4004094  55.3886387
  36.4024472  14.6308321  55.5568594  37.7454493  14.4842538  56.2400419
  37.0867850  22.5893986  57.8886281  36.4339301  22.8369893  57.2338733
  37.4648230  21.7758124  57.5548758  34.0475024  32.6253679  51.9914451
  34.2297419  31.8075335  52.4542203  34.8708010  32.8421371  51.5539341
  34.3817190  31.5521864  49.2529499  34.9104956  31.0414319  48.6399662
  34.6445409  31.2364394  50.1175032  33.1355423  23.3313797  64.3752318
  32.4596060  23.2307926  65.0454693  33.9583057  23.1753011  64.8388315
  24.8834282  29.5685733  56.9964833  25.4687719  28.8229421  57.1292737
  24.6859121  29.8789690  57.8801497  27.7372938  32.6036981  52.0127275
  27.0683313  33.0883108  51.5291315  27.5985807  32.8506201  52.9270654
  19.4751937  22.1391334  55.7169276  19.5136037  21.6054924  56.5106394
  18.9692230  21.6126539  55.0980253  26.8542699  16.9855874  59.2131818
  26.9184026  17.8470705  58.8009216  26.7909820  16.3729876  58.4804177
  26.3294972  19.0579007  62.8604853  26.9567011  18.6756084  63.4742377
  25.4722891  18.8393208  63.2260545  36.7289081  29.4641982  64.4658588
  37.2728985  30.0771940  63.9713543  36.1475925  30.0221560  64.9825601
  23.1060515  20.8655436  48.7923207  23.4013956  19.9566114  48.7390261
  22.2048551  20.8443175  48.4704210  35.0146594  32.5862700  55.5973616
  34.8897733  31.7852440  55.0884561  35.6725685  33.0808893  55.1087586
  26.6354762  18.9411432  54.7750756  25.9141348  19.5547400  54.6358229
  27.4248018  19.4769197  54.6967402  37.0781502  30.3871720  57.2253166
  36.1311837  30.2677071  57.1531493  37.4264275  29.4994218  57.3079427
  29.4381075  16.2765859  61.0491408  29.9615477  16.5228155  61.8117717
  29.2193409  17.1085894  60.6294545  24.8348356  18.5469533  48.9162533
  24.5061063  17.6666912  48.7337639  25.1887727  18.4917202  49.8038922
  34.0827935  30.1824436  53.4257518  33.9352898  29.2541143  53.6065088
  34.9081429  30.2044527  52.9414593  27.9490180  18.8342503  49.2838010
  28.2886252  19.3628424  48.5616619  28.3962300  19.1722909  50.0596577
  37.6862057  31.0052995  54.5122391  38.6108605  30.7995856  54.3746842
  37.5177360  30.7569396  55.4211732  30.6433620  17.2179554  58.7341078
  30.3030441  16.4187367  59.1361758  29.9372627  17.5181265  58.1617912
  31.2950092  14.3028866  57.1868401  32.1176161  13.8289344  57.0647292
  31.5388156  15.0819350  57.6867088  29.9358327  17.3317125  47.4831303
  30.6566689  17.7098378  46.9795020  29.3123631  18.0506002  47.5866281
  34.0789450  18.0362274  48.4189635  34.2953064  18.9186912  48.1178464
  33.5983517  17.6448487  47.6895277  28.8188671  20.9947987  54.9960380
  28.6733252  21.3088290  55.8884662  28.3413875  21.6132887  54.4431279
  30.6785054  17.9850535  55.0441270  30.6646623  17.0891628  54.7073568
  31.3957482  17.9921199  55.6779556  32.5311185  18.4187875  57.0894397
  32.2728962  19.3404946  57.0878727  31.9996225  18.0218310  57.7794861
  37.4757373  31.5238662  49.8684482  37.6494251  30.9585085  49.1158335
  37.9686265  32.3239557  49.6863972  23.2934333  23.5353331  57.9348041
  22.7487801  24.3113139  58.0668316  24.1713683  23.8824136  57.7767163
  30.0821950  16.8664915  50.3128840  30.2037861  15.9381561  50.5119727
  29.7923992  16.8803601  49.4007155  32.9513140  14.5519826  53.4495560
  32.9734837  14.6159159  52.4947539  33.3681199  13.7124334  53.6436066
  43.3296764  24.2875085  51.4874782  43.7727910  23.5382410  51.0893905
  42.4523275  24.2785222  51.1048514  38.4632546  30.8405427  46.9681381
  39.1583450  31.4612119  47.1868695  38.8055696  29.9900778  47.2433759
  24.0800355  22.6623228  60.8278198  23.3382091  22.8105863  61.4142828
  23.7593099  22.9231493  59.9644947  40.3623969  28.2905132  48.4968711
  40.8875293  28.6292405  47.7718031  40.2746321  27.3552147  48.3131846
  32.0244018  32.2039206  60.6258588  32.3331144  31.9588353  61.4981288
  32.8219500  32.4085844  60.1377458  32.0464630  34.3577115  52.8563965
  31.6069620  33.8653494  53.5496821  32.7972747  33.8150083  52.6156040
  24.5256969  30.5488656  52.8588593  25.3514989  30.2492428  52.4787236
  24.1751021  29.7796279  53.3078381  29.4938502  29.9015125  54.9286266
  28.8718511  29.2385830  54.6288494  30.1643369  29.9276256  54.2459914
  22.7265574  28.4674983  53.8177526  21.8897482  28.0397157  53.6361528
  22.6989219  28.6607426  54.7548317  29.5663029  18.3796913  64.5218772
  29.6151185  19.2559035  64.1396542  30.1085543  17.8374306  63.9490416
  40.0517875  28.9238036  63.8019909  39.2613419  28.9062175  63.2624409
  39.8151230  29.4626329  64.5568946  40.1715750  25.7730502  61.1152638
  40.2213755  25.6080510  62.0568161  40.0629673  24.9057761  60.7250519
  29.0552009  28.4519048  48.4044727  29.2040129  29.1354512  47.7511400
  29.8618452  28.4324138  48.9194183  37.4619512  21.7561430  62.4311945
  38.3629375  21.6167895  62.1395942  37.5367487  21.9215885  63.3710122
  31.7962318  19.1328285  61.2765131  30.9265627  19.4261851  61.0047719
  32.0321798  19.7168730  61.9972395  41.6733947  28.1927444  61.3594659
  41.3818755  28.5557424  62.1958120  41.0606078  27.4794452  61.1807992
  42.8729629  25.7580323  53.8797230  43.7076521  26.1970128  54.0434790
  43.0088758  25.2818977  53.0605475  39.9221135  23.3160058  59.8274717
  40.3975257  23.5087705  59.0193569  38.9986700  23.3719244  59.5818101
  26.8104642  24.4784225  49.4105796  26.5650684  23.5746555  49.6086006
  26.9800556  24.4801376  48.4685274  34.5001352  15.3507902  58.7930551
  35.0183295  16.0868929  58.4677040  34.1456484  15.6571895  59.6277310
  26.0800289  20.2112583  46.9091957  25.3869534  20.2856938  46.2531993
  25.8352041  19.4472927  47.4313474  34.7513946  11.7708184  54.3131448
  35.0315699  11.1031373  54.9391874  35.5364553  11.9637280  53.8006112
  32.5547414  30.9467178  45.8756474  31.9821381  31.5657365  45.4226946
  33.1280208  31.4966540  46.4096396  38.6222804  20.1925818  58.0603023
  39.5740227  20.2923916  58.0815247  38.4526254  19.4004087  58.5701107
  36.6437184  17.2781402  58.2462424  36.0487116  17.5586414  57.5508913
  36.3586880  17.7675303  59.0179165  35.7744674  31.2304328  47.0065057
  36.7075347  31.1649890  47.2097932  35.6867887  32.0660595  46.5479589
  38.4032691  30.5470199  43.9669004  38.3246322  30.2130062  44.8604762
  39.2242357  31.0391967  43.9660476  41.1010882  23.4131938  57.1745323
  41.0687202  22.4747939  57.3605007  41.7111506  23.4915975  56.4411148
  32.9394213  22.2827991  43.2172527  33.8853317  22.1534199  43.2860945
  32.5608458  21.5442653  43.6941955  41.2505370  20.2042982  57.2203606
  40.7344419  19.4201438  57.0333535  42.1345319  19.8761698  57.3850125
  38.9116097  13.9483997  53.1799419  38.7140918  13.6399085  54.0642751
  39.5215803  14.6745636  53.3097348  46.9187432  24.4747945  56.3151359
  47.6490820  24.2133233  56.8759063  46.3094377  23.7376667  56.3553427
  45.0002729  22.6155808  56.9125811  44.2735892  22.4811772  56.3042302
  44.5850016  22.9232636  57.7182529  32.8232905  26.3345737  64.6773184
  33.7435915  26.5124336  64.8713230  32.7882488  25.3901783  64.5252883
  31.1237130  20.2077967  43.1527412  30.2168585  19.9111080  43.2290126
  31.4013111  19.9107786  42.2861698  22.0415070  21.5284331  53.6026458
  21.7217855  20.6749639  53.3100832  21.4948498  21.7432909  54.3584426
  25.8194978  24.2446772  57.3195965  26.0380988  25.1763880  57.3383999
  26.2320752  23.8854746  58.1050769  32.7399196  14.7514857  49.3071653
  31.9299924  14.4061942  49.6826899  33.4283613  14.4422401  49.8959265
  34.6689744  13.8292904  50.9295950  35.2220783  14.2488357  51.5885973
  34.9059830  12.9028652  50.9718906  30.6922843  19.8179978  66.7098714
  30.5919570  20.7674335  66.6410805  30.4744385  19.4898217  65.8374784
  29.8935915  17.0664903  43.2939391  30.7555079  17.3919801  43.5535209
  30.0786259  16.2796399  42.7812457  21.9103330  25.1487242  55.5719580
  21.2166802  24.7341195  55.0589534  22.6576321  25.1907779  54.9752999
  38.0468551  15.9393429  50.4374614  37.4667220  16.5978233  50.0552667
  37.7804484  15.1170774  50.0262032  36.4972117  15.3398487  52.6395934
  36.9971896  15.4515021  51.8310253  37.1407725  15.0359540  53.2796743
  30.5554113  23.2477116  65.5263775  30.0721195  24.0477477  65.7327664
  30.6415052  23.2585061  64.5731219  23.8240073  25.0805496  53.4485595
  23.8010761  25.1793183  52.4967478  24.1340709  25.9270647  53.7702761
  26.4827451  27.1381651  57.5632209  27.4370704  27.1065593  57.4962141
  26.2839974  26.6772275  58.3782435  27.0726833  25.7082767  60.1303007
  27.8919722  26.2026846  60.1537844  27.3463641  24.7914735  60.1020574
  36.8293429  18.0993520  49.4930962  35.9419284  18.3843170  49.2751157
  37.2447418  17.9387283  48.6458239  40.1807965  18.1240040  53.2085302
  40.9568355  18.6136493  53.4809918  39.4556099  18.5498095  53.6657171
  42.6180524  18.8367660  54.2659242  43.2125015  18.5963396  53.5552551
  42.6907107  18.1174790  54.8932779  24.8377679  32.6801271  54.5802407
  24.7032147  31.9201672  54.0140405  24.4209742  33.4042171  54.1131196
  35.9736642  27.8638194  43.5878982  36.6772493  28.0688197  44.2036638
  35.2499291  28.4314956  43.8528066  36.8034453  23.6148055  49.7081253
  36.7469654  24.0716607  48.8688885  37.3562795  22.8538740  49.5304095
  40.6139259  19.4037787  50.5331372  40.3576193  19.0034423  51.3639580
  39.9892127  20.1181581  50.4081511  44.9251597  22.1433861  53.0402663
  44.3651154  22.2127050  53.8134226  44.3195100  21.9674845  52.3202160
  27.9946805  33.5770588  54.7920850  27.8779189  34.5216020  54.6899540
  27.1739252  33.2744149  55.1806649  37.8823340  28.3020723  45.6377442
  38.7168944  27.8701922  45.4554917  37.7207683  28.1302737  46.5654337
  37.5369232  24.8052837  47.0033782  37.4818036  24.6397108  46.0622226
  36.9115287  25.5128870  47.1595971  22.3261747  20.0420901  60.8295204
  22.9720611  19.5319855  61.3182429  22.1178898  20.7789583  61.4038629
  34.8515139  27.1101749  66.3287345  35.7206299  27.2842401  65.9673979
  34.3721891  27.9296165  66.2063074  30.8465358  14.3060946  46.5819100
  30.8344027  15.2502786  46.7387371  31.7388779  14.1231091  46.2878561
  29.0201319  34.2298850  58.0076778  29.9228566  34.2622460  58.3243273
  28.7938690  33.2999301  58.0223114  30.7754921  32.9829836  54.6686857
  29.8250552  32.9831698  54.5551229  31.0787408  32.2362571  54.1522891
  34.6617477  10.9003722  50.8365037  33.8949873  10.3462209  50.9821719
  35.0728182  10.9725591  51.6979189  26.6659238  17.1888518  64.9270218
  27.5290700  16.8325323  65.1373543  26.0924649  16.8502413  65.6145622
  48.9882731  30.1938636  58.1713414  48.6566056  31.0634047  57.9474629
  48.3928344  29.8774920  58.8507445  50.7473041  33.1150160  57.0284638
  50.1047421  33.4082693  56.3824433  50.2427969  33.0003081  57.8337835
  46.1884487  33.8814936  60.3846521  45.9445419  34.6356997  59.8480796
  46.4644418  34.2600284  61.2193768  39.2240739  30.5969235  65.9200190
  38.8307684  30.0435433  66.5947834  40.0406879  30.9079813  66.3106707
  42.1408700  32.0127114  63.5120446  42.8818413  32.6134267  63.4324909
  42.3726623  31.2704752  62.9538489  46.0865863  28.0408217  57.7884728
  45.7430132  28.9309859  57.7123839  46.4544825  27.8509874  56.9254313
  45.1662403  30.4112872  55.7533961  44.6627199  30.3743007  54.9401767
  45.4593010  31.3205615  55.8130618  41.4105289  30.4951602  54.7600143
  42.2758286  30.2994410  54.4006032  41.4782798  30.2661953  55.6869500
  39.0167608  32.7253810  52.1316510  39.5911360  32.5028991  51.3989703
  39.6038591  32.7942504  52.8845111  41.3190276  29.5995059  50.8591579
  40.6654688  29.2844076  50.2348194  41.2770750  28.9770799  51.5851402
  47.8853528  27.3001776  52.8902466  48.1912405  26.4399139  52.6028381
  48.6106133  27.8919396  52.6901460  36.5909659  33.7551309  51.5503257
  36.8516477  34.6696643  51.4412418  37.4126832  33.2875752  51.6999870
  43.9660157  31.7951007  60.7367743  43.3188072  32.4940957  60.6432219
  44.7361172  32.2287151  61.1043991  39.2175575  34.6005498  43.3510302
  38.3405042  34.4794299  42.9872548  39.6933328  33.8091576  43.0989190
  48.1555146  29.7296011  55.3886387  47.2418226  29.9600238  55.5568594
  48.5848248  29.8134455  56.2400419  37.1688727  34.3870924  62.8604853
  37.7960765  34.0048002  63.4742377  36.3116645  34.1685126  63.2260545
  40.2774830  31.6057776  61.0491408  40.8009232  31.8520073  61.8117717
  40.0587163  32.4377811  60.6294545  38.7883934  34.1634421  49.2838010
  39.1280007  34.6920342  48.5616619  39.2356054  34.5014827  50.0596577
  42.1343847  29.6320784  57.1868401  42.9569916  29.1581262  57.0647292
  42.3781910  30.4111268  57.6867088  40.7752081  32.6609042  47.4831303
  41.4960444  33.0390295  46.9795020  40.1517385  33.3797919  47.5866281
  40.9215704  32.1956833  50.3128840  41.0431615  31.2673479  50.5119727
  40.6317747  32.2095519  49.4007155  43.7906895  29.8811743  53.4495560
  43.8128591  29.9451076  52.4947539  44.2074954  29.0416252  53.6436066
  45.3395106  30.6799820  58.7930551  45.8577050  31.4160846  58.4677040
  44.9850239  30.9863813  59.6277310  45.5907700  27.1000102  54.3131448
  45.8709454  26.4323291  54.9391874  46.3758307  27.2929198  53.8006112
  41.9630884  35.5369885  43.1527412  41.0562340  35.2402998  43.2290126
  42.2406865  35.2399703  42.2861698  43.5792950  30.0806775  49.3071653
  42.7693678  29.7353860  49.6826899  44.2677367  29.7714319  49.8959265
  45.5083498  29.1584822  50.9295950  46.0614537  29.5780275  51.5885973
  45.7453585  28.2320570  50.9718906  40.7329669  32.3956820  43.2939391
  41.5948833  32.7211719  43.5535209  40.9180013  31.6088316  42.7812457
  41.6859112  29.6352863  46.5819100  41.6737782  30.5794703  46.7387371
  42.5782534  29.4523009  46.2878561  45.5011231  26.2295640  50.8365037
  44.7343627  25.6754127  50.9821719  45.9121936  26.3017509  51.6979189
  37.5052993  32.5180436  64.9270218  38.3684454  32.1617241  65.1373543
  36.9318403  32.1794331  65.6145622  79.0262280  70.3048088  53.5831115
  78.2725988  69.7355486  53.4275120  79.1609821  70.2710752  54.5301750
  64.1088990  70.5398189  42.7744871  63.2016051  70.3087442  42.9736020
  64.6060022  69.7435808  42.9618853  67.0157069  79.2495696  45.6941557
  66.3418767  79.5527393  46.3026515  67.4022890  80.0524777  45.3447015
  65.2148284  79.4175369  47.9088637  65.3900039  78.9463412  48.7234259
  64.5281072  80.0441135  48.1369897  75.2453418  69.1250619  54.8825319
  75.2343294  70.0075334  54.5119252  74.3770797  68.7722170  54.6879856
  65.0728678  76.9342931  45.8756474  64.5002645  77.5533118  45.4226946
  65.6461471  77.4842293  46.4096396  70.9213954  76.5345952  43.9669004
  70.8427586  76.2005815  44.8604762  71.7423621  77.0267720  43.9660476
  79.4368695  70.4623698  56.3151359  80.1672084  70.2008986  56.8759063
  78.8275641  69.7252420  56.3553427  77.5183992  68.6031561  56.9125811
  76.7917156  68.4687525  56.3042302  77.1031279  68.9108389  57.7182529
  68.4917906  73.8513947  43.5878982  69.1953756  74.0563950  44.2036638
  67.7680555  74.4190709  43.8528066  77.4432860  68.1309614  53.0402663
  76.8832418  68.2002803  53.8134226  76.8376363  67.9550598  52.3202160
  70.4004603  74.2896476  45.6377442  71.2350207  73.8577675  45.4554917
  70.2388946  74.1178490  46.5654337  79.0288878  84.8066128  55.7332619
  79.6667288  84.6872875  55.0295959  78.9109721  85.7546971  55.7920571
  75.8378585  84.7593556  55.6694144  75.4997096  84.6434620  54.7814679
  76.7068353  84.3584721  55.6495150  71.6965400  86.6129032  51.6591035
  71.1330266  86.5218969  50.8907323  71.5817795  85.7928937  52.1393527
  76.3198368  85.9128407  61.6280349  76.3087008  85.5181206  60.7560853
  76.4819007  85.1794480  62.2214121  69.2429832  88.1080224  54.4975255
  70.0351124  87.7671048  54.0821555  69.4826483  88.2175199  55.4177409
  77.2764959  90.2800000  46.9705500  76.6252939  90.8654080  46.5839514
  78.0709322  90.8106195  47.0300537  71.2020586  87.3689137  47.3692634
  71.9751462  86.8218124  47.2305510  71.5545985  88.2333386  47.5807096
  73.0405629  88.6965519  60.5759533  72.7495495  89.6011150  60.4606200
  73.6762613  88.7382047  61.2903603  73.9661836  86.0742368  57.1660893
  74.5625408  85.8498390  56.4517856  74.0236807  85.3327113  57.7686341
  73.5386864  83.5281803  45.0011084  73.7912385  83.0063324  44.2394547
  72.6011423  83.3647948  45.1037768  78.5830147  82.5317581  52.8085827
  79.3693236  82.1137005  52.4576244  78.8468851  83.4363674  52.9767476
  78.7540224  87.9690432  47.5074484  78.1186057  88.0425058  48.2195389
  78.4237631  88.5584031  46.8293563  83.9838574  82.4692815  53.7118806
  84.7163746  81.8992031  53.9456635  83.2277930  82.0814415  54.1525311
  73.2583153  85.4309909  47.2035459  73.1419411  84.7554812  47.8716543
  73.3685413  84.9442283  46.3867612  75.6014694  84.8920056  50.9082148
  75.2372901  84.3650677  51.6195070  76.4581810  84.5018525  50.7348634
  81.5063994  76.1814389  58.1713414  81.1747319  77.0509800  57.9474629
  80.9109608  75.8650673  58.8507445  75.2420181  79.9209956  45.9043497
  75.4094583  80.7890192  46.2713968  75.0517350  80.0837237  44.9804786
  77.9995514  88.3826935  57.5709327  77.6996237  89.2851973  57.4625134
  77.6546573  88.1159118  58.4230480  81.3992658  80.9009475  55.2506764
  80.4909535  80.8324883  54.9565525  81.3480254  81.3781420  56.0788590
  75.2209402  82.3767613  46.8890164  75.1009027  82.8224664  47.7275644
  74.5261990  82.7252931  46.3303702  72.9816294  95.1471255  50.5380295
  72.9040323  96.0979080  50.6168775  72.3777937  94.8017128  51.1955221
  75.4733523  82.3199120  63.1941662  74.6966858  82.8793041  63.1844526
  76.1124087  82.8055903  63.7156532  83.2654304  79.1025913  57.0284638
  82.6228684  79.3958446  56.3824433  82.7609233  78.9878834  57.8337835
  80.9194468  82.8489086  47.7170498  81.8312324  83.0816473  47.5418195
  80.4104115  83.4326131  47.1545576  73.7279896  85.1284574  62.7559629
  74.4694580  85.6669618  62.4794452  73.0216881  85.7550863  62.9131180
  79.2035235  87.2713714  61.3531790  79.6118591  86.8296125  60.6086423
  78.4812497  86.6966342  61.6065983  75.5566305  82.2086321  58.7265347
  76.4027501  82.6325735  58.8699996  75.4964943  81.5519945  59.4203910
  79.5264050  87.8314905  55.1084079  78.8972913  87.9960619  54.4060147
  79.1389712  88.2456514  55.8795043  83.4053282  88.7669343  52.4628443
  82.7204320  89.1468244  51.9125476  83.4897131  89.3764669  53.1960391
  78.7065751  79.8690689  60.3846521  78.4626683  80.6232750  59.8480796
  78.9825681  80.2476037  61.2193768  80.6604214  86.4129302  59.0623786
  80.8721109  87.0561062  58.3858167  80.6133962  85.5791618  58.5945716
  75.0792012  87.5689313  52.3734164  75.5430358  87.8477016  51.5838787
  74.8148810  86.6672758  52.1907255  71.9716093  87.1160795  55.3113927
  72.5417450  87.5448063  54.6731412  72.5624205  86.8343379  56.0098113
  74.0160898  83.6912465  49.1823729  74.7184941  84.1433509  49.6497656
  73.6841527  83.0496284  49.8103622  72.4641260  82.2824222  63.5574939
  71.8339920  82.9640503  63.7910336  72.3577347  82.1707304  62.6128077
  81.7750042  89.2901257  57.2346144  82.5967485  88.8881444  56.9528825
  81.7712444  89.1869491  58.1862259  75.5406645  88.8385300  59.3906854
  75.6051078  89.3005708  60.2265026  74.8317569  88.2082665  59.5189164
  89.8656035  85.6340006  53.5831115  89.1119743  85.0647404  53.4275120
  90.0003576  85.6002670  54.5301750  75.2554663  90.5053408  49.2585835
  75.1200337  91.3504944  49.6870682  75.7964475  90.7072686  48.4951768
  68.7084060  88.0228846  49.8313760  69.2208581  88.8172096  49.9819324
  69.3606773  87.3255136  49.7647361  70.5178945  91.1394602  51.9136513
  70.6945573  92.0612567  51.7257497  71.3135778  90.8253022  52.3430893
  69.8031301  83.1859234  61.7898676  69.6884816  82.2844491  62.0905775
  68.9475819  83.4322931  61.4383493  76.8823139  91.1276974  63.3886177
  76.4386993  90.3413353  63.0707081  77.5440353  91.3156125  62.7230067
  71.6410260  92.6572776  57.9146855  72.1917685  92.5289839  57.1423849
  70.8021736  92.9567665  57.5641748  78.9804377  91.4079774  61.4167578
  78.9622852  92.2288655  60.9247847  79.9024297  91.2833850  61.6417719
  75.4377431  88.9223904  62.2591086  75.9705768  88.1612192  62.0290394
  74.9091512  88.6297556  63.0015241  78.6047126  74.0283970  57.7884728
  78.2611396  74.9185612  57.7123839  78.9726089  73.8385628  56.9254313
  78.5697409  84.0192581  46.2957163  78.0544032  84.7897186  46.5345551
  78.2974717  83.3457717  46.9190225  83.5431683  86.7724936  48.2310337
  82.7661126  86.4336095  47.7865499  84.2223164  86.7777559  47.5565302
  78.3583712  81.8919673  48.1216944  78.0533848  82.2065822  48.9727087
  79.3114154  81.9701093  48.1644277  76.8030144  88.0509896  49.7709898
  76.2751506  87.3162656  49.4583136  76.3017647  88.8284573  49.5249867
  81.7822990  86.2458917  54.8876945  81.1246664  86.9358178  54.9757073
  82.5863389  86.6355349  55.2310931  80.5928449  84.6003290  52.9380886
  81.1060331  85.2333281  53.4402596  81.2429673  84.0004485  52.5724246
  71.8618459  80.7434024  46.1512395  71.0255771  81.0808710  46.4721670
  71.7223228  80.6083003  45.2139532  74.9482744  85.8690107  42.7744871
  74.0409806  85.6379360  42.9736020  75.4453776  85.0727726  42.9618853
  77.8550823  94.5787614  45.6941557  77.1812522  94.8819311  46.3026515
  78.2416645  95.3816694  45.3447015  77.8544327  83.4744161  50.3141907
  78.6016146  83.9865558  50.0049029  78.1235917  83.1528214  51.1746301
  76.1270978  85.9702702  47.2968861  75.2182197  85.6861734  47.3941331
  76.1566061  86.3901780  46.4372168  81.3590245  89.5809291  51.0660029
  80.9052572  88.7400201  51.1225219  80.7284212  90.2170689  51.4034809
  80.3023165  80.5101277  52.2960696  79.5645921  79.9978663  52.6270939
  80.5549938  80.0701659  51.4843973  79.8023184  91.4185788  52.0009847
  80.0946159  91.9790845  51.2822213  80.3121805  91.7114349  52.7563006
  80.4034792  73.2877529  52.8902466  80.7093669  72.4274892  52.6028381
  81.1287397  73.8795149  52.6901460  75.8247065  87.5111445  44.6356940
  75.3866495  86.7947304  44.1762577  76.5657506  87.7387560  44.0742031
  74.7656809  92.1966139  53.0903300  74.7232988  92.4226985  52.1611832
  75.6819508  91.9629513  53.2389101  78.2122443  82.6650206  59.9883930
  78.5671831  82.8921679  60.8478395  78.8594574  82.9968583  59.3661185
  83.9420180  85.7868642  50.6933259  83.8038079  85.9770238  49.7654448
  83.5856399  86.5488025  51.1501310  83.9689560  87.8545169  55.7044530
  84.4026066  87.7620458  56.5527584  84.6821140  87.8302670  55.0664546
  72.8822610  89.0729168  52.8865263  73.6763209  88.5779488  52.6847838
  72.1714303  88.5447031  52.5232969  77.7017455  91.4547263  57.2377631
  77.7554477  92.0238200  58.0055347  76.8332236  91.6249148  56.8731668
  69.1905374  83.2172250  48.9625016  68.2602962  83.1556705  49.1794978
  69.2862846  82.6948202  48.1661657  84.8305109  87.8968870  58.2377415
  85.0240999  88.8014680  58.4836690  84.7305727  87.4376289  59.0716000
  76.4841420  77.7826760  60.7367743  75.8369335  78.4816710  60.6432219
  77.2542435  78.2162904  61.1043991  79.8920218  88.0475613  63.8118296
  79.7405724  87.8186164  62.8948380  79.8824897  89.0046214  63.8249641
  76.6605554  85.6207525  58.7964562  77.5897614  85.7718685  58.6233530
  76.2396584  85.7091546  57.9413209  75.4593886  89.6458190  56.5663100
  75.3204972  89.2776974  57.4389038  74.6708482  90.1605829  56.3947058
  76.0542038  94.7467286  47.9088637  76.2293794  94.2755329  48.7234259
  75.3674826  95.3733052  48.1369897  77.0099101  89.0239792  53.9551938
  76.6748934  88.9840562  54.8509588  76.5103047  88.3584508  53.4822348
  70.9843345  84.4307423  59.4804519  70.8463143  83.6987661  60.0816058
  71.8948269  84.3416323  59.1988707  79.9458293  86.3695827  44.2288998
  79.3287464  85.6442655  44.1322050  79.4774781  87.1305187  43.8856072
  73.6125646  84.1427382  58.9688199  74.3225264  83.5020574  58.9274817
  73.5694954  84.3940277  59.8914379  81.6012425  91.0794735  61.8894778
  81.5424971  90.3953955  61.2225361  82.0031943  91.8213725  61.4375404
  72.3254580  81.1292600  60.7883838  71.7891937  80.6783338  61.4405435
  71.7371288  81.2638509  60.0454303  70.6203123  97.8956649  54.6828497
  70.8599722  98.5275173  55.3607515  69.7772320  97.5444689  54.9693856
  71.7356839  80.5881251  43.3510302  70.8586305  80.4670052  42.9872548
  72.2114592  79.7967329  43.0989190  81.6029832  89.0434319  60.1208758
  80.7156611  88.7060241  60.2435156  82.1728383  88.3117350  60.3577523
  75.1330985  93.7035771  57.0870001  75.0601157  94.5090743  57.5989305
  74.6908378  93.9027737  56.2618022  74.9220765  92.9407541  50.5972822
  74.1388287  93.4829222  50.6911047  75.6213510  93.4581521  50.9967064
  78.2317415  78.7502171  53.2407028  78.7286115  77.9972133  52.9208098
  77.4604397  78.7866488  52.6750237  86.0847172  84.4542536  54.8825319
  86.0737049  85.3367252  54.5119252  85.2164552  84.1014087  54.6879856
  77.5929669  93.6022605  59.2428159  78.3057641  94.2370070  59.1704061
  77.1019697  93.6986471  58.4268161  79.3147196  87.5073858  50.8145451
  78.3803474  87.6275321  50.6450155  79.4923864  86.6046325  50.5505461
  82.7019747  83.3491177  51.3495485  83.1680199  84.1819169  51.2755788
  83.1527248  82.8836159  52.0540744  72.6441582  91.3517049  60.0633730
  73.3451042  91.9853532  60.2163124  72.1736697  91.6931781  59.3029370
  80.7695978  89.6934999  48.3481637  81.0455822  89.5791593  49.2575511
  79.9000477  89.2952484  48.3093810  80.6736410  75.7171764  55.3886387
  79.7599490  75.9475991  55.5568594  81.1029511  75.8010209  56.2400419
  80.4442868  83.9061656  57.8886281  79.7914319  84.1537564  57.2338733
  80.8223248  83.0925795  57.5548758  77.4050042  93.9421350  51.9914451
  77.5872437  93.1243006  52.4542203  78.2283028  94.1589042  51.5539341
  77.7392208  92.8689535  49.2529499  78.2679974  92.3581989  48.6399662
  78.0020427  92.5532065  50.1175032  76.4930441  84.6481467  64.3752318
  75.8171078  84.5475597  65.0454693  77.3158075  84.4920681  64.8388315
  68.2409300  90.8853404  56.9964833  68.8262737  90.1397092  57.1292737
  68.0434139  91.1957361  57.8801497  71.0947956  93.9204651  52.0127275
  70.4258331  94.4050779  51.5291315  70.9560825  94.1673872  52.9270654
  75.2353224  95.9548395  58.6109934  75.7871532  96.1180016  59.3759019
  75.5759418  96.5452833  57.9389959  80.0864099  90.7809652  64.4658588
  80.6304003  91.3939611  63.9713543  79.5050943  91.3389231  64.9825601
  66.4635533  82.1823106  48.7923207  66.7588974  81.2733785  48.7390261
  65.5623569  82.1610846  48.4704210  78.3721612  93.9030370  55.5973616
  78.2472751  93.1020110  55.0884561  79.0300703  94.3976564  55.1087586
  80.4356520  91.7039391  57.2253166  79.4886855  91.5844742  57.1531493
  80.7839293  90.8161889  57.3079427  77.4402953  91.4992107  53.4257518
  77.2927916  90.5708814  53.6065088  78.2656447  91.5212197  52.9414593
  81.0437075  92.3220665  54.5122391  81.9683623  92.1163527  54.3746842
  80.8752378  92.0737067  55.4211732  73.2933345  78.6484795  47.4831303
  74.0141707  79.0266048  46.9795020  72.6698649  79.3673672  47.5866281
  77.4364468  79.3529944  48.4189635  77.6528082  80.2354582  48.1178464
  76.9558535  78.9616158  47.6895277  80.8332391  92.8406333  49.8684482
  81.0069269  92.2752755  49.1158335  81.3261282  93.6407228  49.6863972
  76.3088158  75.8687496  53.4495560  76.3309855  75.9326829  52.4947539
  76.7256217  75.0292005  53.6436066  86.6871782  85.6042756  51.4874782
  87.1302928  84.8550081  51.0893905  85.8098293  85.5952892  51.1048514
  81.8207564  92.1573097  46.9681381  82.5158468  92.7779790  47.1868695
  82.1630714  91.3068449  47.2433759  67.4375373  83.9790898  60.8278198
  66.6957109  84.1273534  61.4142828  67.1168117  84.2399164  59.9644947
  83.7198987  89.6072803  48.4968711  84.2450311  89.9460076  47.7718031
  83.6321339  88.6719818  48.3131846  75.3819036  93.5206877  60.6258588
  75.6906162  93.2756023  61.4981288  76.1794518  93.7253515  60.1377458
  75.4039648  95.6744786  52.8563965  74.9644638  95.1821165  53.5496821
  76.1547765  95.1317754  52.6156040  67.8831987  91.8656327  52.8588593
  68.7090006  91.5660099  52.4787236  67.5326039  91.0963949  53.3078381
  72.8513520  91.2182795  54.9286266  72.2293529  90.5553500  54.6288494
  73.5218387  91.2443927  54.2459914  66.0840592  89.7842653  53.8177526
  65.2472500  89.3564828  53.6361528  66.0564237  89.9775097  54.7548317
  83.4092893  90.2405707  63.8019909  82.6188437  90.2229845  63.2624409
  83.1726247  90.7794000  64.5568946  83.5290768  87.0898173  61.1152638
  83.5788773  86.9248180  62.0568161  83.4204691  86.2225432  60.7250519
  72.4127027  89.7686719  48.4044727  72.5615147  90.4522183  47.7511400
  73.2193470  89.7491809  48.9194183  80.8194530  83.0729101  62.4311945
  81.7204393  82.9335566  62.1395942  80.8942505  83.2383556  63.3710122
  75.1537336  80.4495956  61.2765131  74.2840645  80.7429522  61.0047719
  75.3896816  81.0336401  61.9972395  85.0308965  89.5095114  61.3594659
  84.7393773  89.8725095  62.1958120  84.4181096  88.7962123  61.1807992
  86.2304647  87.0747994  53.8797230  87.0651538  87.5137798  54.0434790
  86.3663776  86.5986647  53.0605475  83.2796153  84.6327729  59.8274717
  83.7550275  84.8255375  59.0193569  82.3561718  84.6886915  59.5818101
  70.1679660  85.7951896  49.4105796  69.9225702  84.8914226  49.6086006
  70.3375574  85.7969047  48.4685274  77.8576370  76.6675573  58.7930551
  78.3758313  77.4036600  58.4677040  77.5031502  76.9739566  59.6277310
  69.4375307  81.5280254  46.9091957  68.7444552  81.6024609  46.2531993
  69.1927059  80.7640597  47.4313474  78.1088964  73.0875855  54.3131448
  78.3890717  72.4199044  54.9391874  78.8939571  73.2804951  53.8006112
  75.9122432  92.2634849  45.8756474  75.3396399  92.8825036  45.4226946
  76.4855226  92.8134211  46.4096396  81.9797822  81.5093489  58.0603023
  82.9315245  81.6091587  58.0815247  81.8101272  80.7171758  58.5701107
  80.0012202  78.5949072  58.2462424  79.4062134  78.8754085  57.5508913
  79.7161898  79.0842973  59.0179165  79.1319692  92.5471999  47.0065057
  80.0650365  92.4817561  47.2097932  79.0442905  93.3828266  46.5479589
  81.7607709  91.8637869  43.9669004  81.6821340  91.5297733  44.8604762
  82.5817375  92.3559637  43.9660476  84.4585900  84.7299609  57.1745323
  84.4262220  83.7915610  57.3605007  85.0686523  84.8083646  56.4411148
  76.2969231  83.5995662  43.2172527  77.2428335  83.4701870  43.2860945
  75.9183476  82.8610324  43.6941955  84.6080388  81.5210652  57.2203606
  84.0919437  80.7369109  57.0333535  85.4920337  81.1929369  57.3850125
  82.2691115  75.2651668  53.1799419  82.0715936  74.9566756  54.0642751
  82.8790821  75.9913307  53.3097348  90.2762450  85.7915616  56.3151359
  91.0065838  85.5300904  56.8759063  89.6669395  85.0544338  56.3553427
  88.3577747  83.9323478  56.9125811  87.6310910  83.7979443  56.3042302
  87.9425034  84.2400307  57.7182529  76.1807923  87.6513408  64.6773184
  77.1010933  87.8292007  64.8713230  76.1457506  86.7069453  64.5252883
  74.4812148  81.5245638  43.1527412  73.5743603  81.2278751  43.2290126
  74.7588129  81.2275456  42.2861698  69.1769996  85.5614443  57.3195965
  69.3956006  86.4931550  57.3383999  69.5895770  85.2022417  58.1050769
  76.0974214  76.0682528  49.3071653  75.2874942  75.7229613  49.6826899
  76.7858630  75.7590072  49.8959265  78.0264762  75.1460575  50.9295950
  78.5795800  75.5656028  51.5885973  78.2634848  74.2196323  50.9718906
  74.0497861  81.1347648  66.7098714  73.9494588  82.0842005  66.6410805
  73.8319403  80.8065887  65.8374784  73.2510932  78.3832573  43.2939391
  74.1130096  78.7087472  43.5535209  73.4361277  77.5964069  42.7812457
  81.4043569  77.2561100  50.4374614  80.8242238  77.9145904  50.0552667
  81.1379502  76.4338444  50.0262032  79.8547135  76.6566158  52.6395934
  80.3546914  76.7682692  51.8310253  80.4982743  76.3527210  53.2796743
  73.9129131  84.5644787  65.5263775  73.4296213  85.3645147  65.7327664
  73.9990070  84.5752732  64.5731219  69.8402469  88.4549322  57.5632209
  70.7945722  88.4233264  57.4962141  69.6414992  87.9939946  58.3782435
  70.4301851  87.0250438  60.1303007  71.2494740  87.5194517  60.1537844
  70.7038658  86.1082406  60.1020574  80.1868447  79.4161190  49.4930962
  79.2994302  79.7010841  49.2751157  80.6022436  79.2554954  48.6458239
  83.5382983  79.4407711  53.2085302  84.3143373  79.9304164  53.4809918
  82.8131117  79.8665765  53.6657171  85.9755542  80.1535330  54.2659242
  86.5700033  79.9131066  53.5552551  86.0482125  79.4342461  54.8932779
  68.1952697  93.9968941  54.5802407  68.0607165  93.2369342  54.0140405
  67.7784760  94.7209841  54.1131196  79.3311660  89.1805865  43.5878982
  80.0347511  89.3855867  44.2036638  78.6074309  89.7482627  43.8528066
  80.1609471  84.9315726  49.7081253  80.1044672  85.3884278  48.8688885
  80.7137813  84.1706411  49.5304095  83.9714277  80.7205458  50.5331372
  83.7151211  80.3202094  51.3639580  83.3467145  81.4349252  50.4081511
  88.2826614  83.4601531  53.0402663  87.7226172  83.5294721  53.8134226
  87.6770118  83.2842516  52.3202160  71.3521823  94.8938258  54.7920850
  71.2354207  95.8383691  54.6899540  70.5314270  94.5911820  55.1806649
  81.2398358  89.6188394  45.6377442  82.0743962  89.1869593  45.4554917
  81.0782701  89.4470408  46.5654337  80.8944250  86.1220507  47.0033782
  80.8393054  85.9564779  46.0622226  80.2690305  86.8296540  47.1595971
  78.2090157  88.4269419  66.3287345  79.0781317  88.6010072  65.9673979
  77.7296909  89.2463836  66.2063074  74.2040375  75.6228616  46.5819100
  74.1919045  76.5670456  46.7387371  75.0963797  75.4398762  46.2878561
  72.3776337  95.5466520  58.0076778  73.2803584  95.5790131  58.3243273
  72.1513707  94.6166971  58.0223114  74.1329939  94.2997507  54.6686857
  73.1825570  94.2999368  54.5551229  74.4362426  93.5530241  54.1522891
  78.0192495  72.2171393  50.8365037  77.2524891  71.6629880  50.9821719
  78.4303200  72.2893262  51.6979189  89.8682633 100.1358045  55.7332619
  90.5061043 100.0164793  55.0295959  89.7503476 101.0838889  55.7920571
  86.6772339 100.0885473  55.6694144  86.3390851  99.9726538  54.7814679
  87.5462107  99.6876638  55.6495150  82.5359155 101.9420950  51.6591035
  81.9724020 101.8510887  50.8907323  82.4211550 101.1220854  52.1393527
  87.1592122 101.2420325  61.6280349  87.1480763 100.8473123  60.7560853
  87.3212762 100.5086398  62.2214121  80.0823587 103.4372141  54.4975255
  80.8744879 103.0962966  54.0821555  80.3220237 103.5467116  55.4177409
  88.1158714 105.6091917  46.9705500  87.4646693 106.1945998  46.5839514
  88.9103076 106.1398112  47.0300537  82.0414341 102.6981055  47.3692634
  82.8145217 102.1510042  47.2305510  82.3939740 103.5625304  47.5807096
  83.8799383 104.0257437  60.5759533  83.5889249 104.9303068  60.4606200
  84.5156368 104.0673964  61.2903603  84.8055590 101.4034285  57.1660893
  85.4019162 101.1790308  56.4517856  84.8630562 100.6619031  57.7686341
  84.3780619  98.8573721  45.0011084  84.6306139  98.3355242  44.2394547
  83.4405178  98.6939866  45.1037768  89.4223901  97.8609499  52.8085827
  90.2086991  97.4428922  52.4576244  89.6862606  98.7655591  52.9767476
  89.5933979 103.2982349  47.5074484  88.9579812 103.3716976  48.2195389
  89.2631385 103.8875948  46.8293563  94.8232329  97.7984732  53.7118806
  95.5557500  97.2283949  53.9456635  94.0671684  97.4106333  54.1525311
  84.0976907 100.7601827  47.2035459  83.9813165 100.0846730  47.8716543
  84.2079167 100.2734201  46.3867612  86.4408448 100.2211974  50.9082148
  86.0766655  99.6942595  51.6195070  87.2975564  99.8310443  50.7348634
  92.3457749  91.5106306  58.1713414  92.0141074  92.3801717  57.9474629
  91.7503362  91.1942590  58.8507445  86.0813935  95.2501873  45.9043497
  86.2488338  96.1182110  46.2713968  85.8911104  95.4129155  44.9804786
  88.8389268 103.7118852  57.5709327  88.5389992 104.6143891  57.4625134
  88.4940328 103.4451036  58.4230480  82.2901750 100.1632649  53.6046032
  81.3652246 100.0308863  53.8123723  82.5386163 100.9426868  54.1015974
  92.2386412  96.2301393  55.2506764  91.3303290  96.1616801  54.9565525
  92.1874008  96.7073337  56.0788590  86.0603156  97.7059531  46.8890164
  85.9402781  98.1516582  47.7275644  85.3655744  98.0544849  46.3303702
  79.6510561  99.8065923  54.4389821  79.7802942 100.0600402  55.3529232
  78.9708012 100.3993631  54.1194476  86.3127278  97.6491038  63.1941662
  85.5360612  98.2084958  63.1844526  86.9517841  98.1347821  63.7156532
  94.1048059  94.4317831  57.0284638  93.4622439  94.7250364  56.3824433
  93.6002987  94.3170751  57.8337835  91.7588222  98.1781004  47.7170498
  92.6706078  98.4108391  47.5418195  91.2497869  98.7618048  47.1545576
  84.5673650 100.4576491  62.7559629  85.3088335 100.9961535  62.4794452
  83.8610636 101.0842780  62.9131180  90.0428990 102.6005632  61.3531790
  90.4512346 102.1588042  60.6086423  89.3206251 102.0258259  61.6065983
  86.3960060  97.5378239  58.7265347  87.2421255  97.9617652  58.8699996
  86.3358698  96.8811863  59.4203910  90.3657805 103.1606823  55.1084079
  89.7366667 103.3252537  54.4060147  89.9783467 103.5748432  55.8795043
  89.5459505  95.1982607  60.3846521  89.3020437  95.9524668  59.8480796
  89.8219436  95.5767955  61.2193768  91.4997968 101.7421219  59.0623786
  91.7114863 102.3852979  58.3858167  91.4527716 100.9083536  58.5945716
  89.1024197  94.3539040  55.9660358  88.2408676  94.6520294  56.2577096
  89.1286632  94.5709439  55.0341391  85.9185766 102.8981231  52.3734164
  86.3824112 103.1768934  51.5838787  85.6542565 101.9964675  52.1907255
  82.8109848 102.4452712  55.3113927  83.3811205 102.8739981  54.6731412
  83.4017959 102.1635297  56.0098113  84.8554653  99.0204383  49.1823729
  85.5578696  99.4725427  49.6497656  84.5235281  98.3788202  49.8103622
  83.3035014  97.6116140  63.5574939  82.6733675  98.2932421  63.7910336
  83.1971102  97.4999221  62.6128077  78.5979986  97.2787936  54.4840863
  77.8079040  97.5345464  54.0080973  79.0891234  98.0936274  54.5892903
  80.5494732  97.6432515  51.4424340  79.7525895  97.7551209  51.9607835
  80.3220324  97.9819167  50.5765230  86.3800399 104.1677218  59.3906854
  86.4444832 104.6297625  60.2265026  85.6711323 103.5374583  59.5189164
  76.8817689  97.5318426  56.9155854  77.1325728  98.4165436  57.1813430
  77.4177238  97.3523028  56.1430945  86.0948417 105.8345326  49.2585835
  85.9594092 106.6796861  49.6870682  86.6358230 106.0364603  48.4951768
  82.5815757  91.9136906  65.9200190  82.1882702  91.3603104  66.5947834
  83.3981897  92.2247484  66.3106707  79.5477815 103.3520764  49.8313760
  80.0602335 104.1464014  49.9819324  80.2000527 102.6547054  49.7647361
  81.3572699 106.4686520  51.9136513  81.5339328 107.3904485  51.7257497
  82.1529533 106.1544939  52.3430893  85.4983718  93.3294785  63.5120446
  86.2393431  93.9301938  63.4324909  85.7301641  92.5872422  62.9538489
  80.6425056  98.5151152  61.7898676  80.5278571  97.6136409  62.0905775
  79.7869574  98.7614849  61.4383493  82.4804015 107.9864694  57.9146855
  83.0311440 107.8581757  57.1423849  81.6415491 108.2859583  57.5641748
  86.2771186 104.2515822  62.2591086  86.8099523 103.4904110  62.0290394
  85.7485267 103.9589473  63.0015241  89.4440881  89.3575888  57.7884728
  89.1005150  90.2477529  57.7123839  89.8119843  89.1677545  56.9254313
  77.5126731 101.6809418  50.6073330  78.3501953 102.0906426  50.3907038
  77.6904999 100.7408860  50.5773524  89.4091163  99.3484499  46.2957163
  88.8937787 100.1189103  46.5345551  89.1368472  98.6749635  46.9190225
  86.9938274  94.1934199  51.3542401  86.1379871  93.8041050  51.1748040
  87.4065226  94.2726160  50.4942187  88.5237421  91.7280543  55.7533961
  88.0202217  91.6910678  54.9401767  88.8168028  92.6373285  55.8130618
  84.7680307  91.8119272  54.7600143  85.6333304  91.6162081  54.4006032
  84.8357816  91.5829624  55.6869500  89.1977467  97.2211591  48.1216944
  88.8927602  97.5357740  48.9727087  90.1507909  97.2993011  48.1644277
  87.6423898 103.3801814  49.7709898  87.1145260 102.6454574  49.4583136
  87.1411401 104.1576490  49.5249867  92.6216744 101.5750835  54.8876945
  91.9640419 102.2650096  54.9757073  93.4257144 101.9647266  55.2310931
  82.3742626  94.0421480  52.1316510  82.9486378  93.8196662  51.3989703
  82.9613608  94.1110175  52.8845111  91.4322203  99.9295207  52.9380886
  91.9454085 100.5625199  53.4402596  92.0823427  99.3296403  52.5724246
  82.7012213  96.0725941  46.1512395  81.8649525  96.4100628  46.4721670
  82.5616983  95.9374921  45.2139532  84.6765294  90.9162729  50.8591579
  84.0229706  90.6011746  50.2348194  84.6345768  90.2938470  51.5851402
  85.7876499 101.1982024  42.7744871  84.8803560 100.9671278  42.9736020
  86.2847531 100.4019644  42.9618853  87.9103034  97.4044663  55.1839227
  86.9925595  97.6259610  55.0260915  88.3263178  97.4790973  54.3250934
  88.6938082  98.8036078  50.3141907  89.4409901  99.3157476  50.0049029
  88.9629671  98.4820131  51.1746301  86.9664732 101.2994619  47.2968861
  86.0575951 101.0153652  47.3941331  86.9959816 101.7193698  46.4372168
  91.1416919  95.8393195  52.2960696  90.4039676  95.3270581  52.6270939
  91.3943693  95.3993576  51.4843973  91.2428546  88.6169447  52.8902466
  91.5487423  87.7566810  52.6028381  91.9681151  89.2087067  52.6901460
  77.5352902  99.0200133  51.2784064  77.3377302  98.4269494  50.5535130
  76.9799566  98.7152344  51.9960002  85.5149626  98.9123240  53.3978657
  85.5698236  97.9597076  53.3221133  84.7040828  99.0682679  53.8819955
  86.6640820 102.8403363  44.6356940  86.2260250 102.1239222  44.1762577
  87.4051261 103.0679478  44.0742031  83.4541986  97.5300300  51.1569036
  82.6409852  97.8294470  51.5634228  83.9500980  97.1355988  51.8743518
  85.6050564 107.5258056  53.0903300  85.5626743 107.7518903  52.1611832
  86.5213263 107.2921431  53.2389101  89.0516198  97.9942124  59.9883930
  89.4065585  98.2213597  60.8478395  89.6988329  98.3260501  59.3661185
  94.7813935 101.1160560  50.6933259  94.6431833 101.3062156  49.7654448
  94.4250153 101.8779943  51.1501310  82.9456061  95.1018655  56.7730271
  83.5855440  94.9607414  56.0753234  82.1133591  94.8153168  56.3968873
  83.7216365 104.4021085  52.8865263  84.5156963 103.9071406  52.6847838
  83.0108057 103.8738949  52.5232969  80.0299128  98.5464167  48.9625016
  79.0996716  98.4848623  49.1794978  80.1256600  98.0240120  48.1661657
  79.9484677  95.0718980  51.5503257  80.2091495  95.9864313  51.4412418
  80.7701850  94.6043423  51.6999870  81.4209603  96.4856737  58.7202082
  82.0932656  96.2774099  58.0714731  80.5939389  96.2878823  58.2807314
  87.3235175  93.1118678  60.7367743  86.6763090  93.8108628  60.6432219
  88.0936190  93.5454822  61.1043991  90.7313972 103.3767530  63.8118296
  90.5799479 103.1478082  62.8948380  90.7218652 104.3338132  63.8249641
  87.4999309 100.9499443  58.7964562  88.4291369 101.1010603  58.6233530
  87.0790339 101.0383464  57.9413209  86.2987641 104.9750107  56.5663100
  86.1598726 104.6068892  57.4389038  85.5102237 105.4897747  56.3947058
  87.8492856 104.3531710  53.9551938  87.5142688 104.3132480  54.8509588
  87.3496802 103.6876426  53.4822348  81.8237100  99.7599340  59.4804519
  81.6856898  99.0279579  60.0816058  82.7342023  99.6708240  59.1988707
  90.7852047 101.6987745  44.2288998  90.1681218 100.9734573  44.1322050
  90.3168536 102.4597105  43.8856072  84.4519400  99.4719300  58.9688199
  85.1619019  98.8312492  58.9274817  84.4088709  99.7232194  59.8914379
  83.1648334  96.4584517  60.7883838  82.6285691  96.0075256  61.4405435
  82.5765043  96.5930426  60.0454303  82.5750593  95.9173169  43.3510302
  81.6980060  95.7961970  42.9872548  83.0508346  95.1259247  43.0989190
  74.0952734 100.7050329  53.4451809  74.7823773 100.3912059  52.8572824
  73.9400862 101.6091693  53.1719060  78.8987456  95.5940525  57.8736833
  78.8145644  94.9866195  57.1387243  78.0770162  96.0849543  57.8746329
  89.0711170  94.0794089  53.2407028  89.5679869  93.3264051  52.9208098
  88.2998151  94.1158405  52.6750237  90.1540950 102.8365776  50.8145451
  89.2197229 102.9567238  50.6450155  90.3317619 101.9338243  50.5505461
  85.6546138  96.2211472  52.9678712  85.2843926  95.6682512  53.6559618
  86.1505231  95.6169605  52.4153712  93.5413502  98.6783095  51.3495485
  94.0073954  99.5111087  51.2755788  93.9921002  98.2128077  52.0540744
  83.4835337 106.6808967  60.0633730  84.1844796 107.3145450  60.2163124
  83.0130452 107.0223698  59.3029370  91.5130164  91.0463682  55.3886387
  90.5993244  91.2767909  55.5568594  91.9423266  91.1302126  56.2400419
  91.2836623  99.2353574  57.8886281  90.6308073  99.4829482  57.2338733
  91.6617003  98.4217712  57.5548758  87.3324196  99.9773385  64.3752318
  86.6564833  99.8767514  65.0454693  88.1551830  99.8212599  64.8388315
  79.0803055 106.2145322  56.9964833  79.6656492 105.4689010  57.1292737
  78.8827893 106.5249278  57.8801497  81.9341710 109.2496569  52.0127275
  81.2652085 109.7342697  51.5291315  81.7954580 109.4965790  52.9270654
  73.6720710  98.7850922  55.7169276  73.7104809  98.2514513  56.5106394
  73.1661002  98.2586127  55.0980253  81.0511472  93.6315462  59.2131818
  81.1152798  94.4930293  58.8009216  80.9878592  93.0189464  58.4804177
  80.5263744  95.7038595  62.8604853  81.1535783  95.3215672  63.4742377
  79.6691663  95.4852797  63.2260545  77.3029287  97.5115024  48.7923207
  77.5982728  96.6025702  48.7390261  76.4017323  97.4902763  48.4704210
  80.8323534  95.5871021  54.7750756  80.1110120  96.2006988  54.6358229
  81.6216790  96.1228785  54.6967402  83.6349848  92.9225447  61.0491408
  84.1584250  93.1687744  61.8117717  83.4162181  93.7545482  60.6294545
  79.0317129  95.1929122  48.9162533  78.7029835  94.3126501  48.7337639
  79.3856500  95.1376790  49.8038922  82.1458952  95.4802092  49.2838010
  82.4855024  96.0088013  48.5616619  82.5931072  95.8182498  50.0596577
  84.8402393  93.8639142  58.7341078  84.4999213  93.0646955  59.1361758
  84.1341399  94.1640853  58.1617912  85.4918865  90.9488455  57.1868401
  86.3144934  90.4748933  57.0647292  85.7356928  91.7278938  57.6867088
  84.1327099  93.9776713  47.4831303  84.8535462  94.3557966  46.9795020
  83.5092403  94.6965590  47.5866281  88.2758222  94.6821862  48.4189635
  88.4921836  95.5646500  48.1178464  87.7952289  94.2908075  47.6895277
  83.0157443  97.6407575  54.9960380  82.8702024  97.9547878  55.8884662
  82.5382647  98.2592476  54.4431279  84.8753826  94.6310123  55.0441270
  84.8615395  93.7351217  54.7073568  85.5926254  94.6380787  55.6779556
  86.7279957  95.0647463  57.0894397  86.4697735  95.9864534  57.0878727
  86.1964997  94.6677898  57.7794861  77.4903106 100.1812920  57.9348041
  76.9456574 100.9572728  58.0668316  78.3682455 100.5283724  57.7767163
  84.2790722  93.5124504  50.3128840  84.4006633  92.5841150  50.5119727
  83.9892765  93.5263190  49.4007155  87.1481913  91.1979414  53.4495560
  87.1703609  91.2618747  52.4947539  87.5649972  90.3583923  53.6436066
  78.2769127  99.3082816  60.8278198  77.5350863  99.4565451  61.4142828
  77.9561872  99.5691082  59.9644947  78.7225741 107.1948245  52.8588593
  79.5483761 106.8952017  52.4787236  78.3719793 106.4255867  53.3078381
  83.6907274 106.5474713  54.9286266  83.0687284 105.8845418  54.6288494
  84.3612141 106.5735845  54.2459914  76.9234346 105.1134571  53.8177526
  76.0866254 104.6856745  53.6361528  76.8957992 105.3067014  54.7548317
  83.7631802  95.0256501  64.5218772  83.8119957  95.9018624  64.1396542
  84.3054316  94.4833894  63.9490416  83.2520781 105.0978636  48.4044727
  83.4008902 105.7814101  47.7511400  84.0587225 105.0783726  48.9194183
  91.6588285  98.4021019  62.4311945  92.5598148  98.2627483  62.1395942
  91.7336259  98.5675473  63.3710122  85.9931090  95.7787873  61.2765131
  85.1234400  96.0721439  61.0047719  86.2290571  96.3628318  61.9972395
  94.1189908  99.9619647  59.8274717  94.5944029 100.1547293  59.0193569
  93.1955473 100.0178833  59.5818101  81.0073414 101.1243814  49.4105796
  80.7619456 100.2206144  49.6086006  81.1769329 101.1260964  48.4685274
  88.6970124  91.9967490  58.7930551  89.2152068  92.7328517  58.4677040
  88.3425257  92.3031484  59.6277310  80.2769062  96.8572171  46.9091957
  79.5838307  96.9316526  46.2531993  80.0320814  96.0932515  47.4313474
  88.9482718  88.4167773  54.3131448  89.2284472  87.7490962  54.9391874
  89.7333325  88.6096868  53.8006112  92.8191577  96.8385407  58.0603023
  93.7708999  96.9383504  58.0815247  92.6495027  96.0463675  58.5701107
  90.8405956  93.9240990  58.2462424  90.2455888  94.2046003  57.5508913
  90.5555653  94.4134891  59.0179165  95.2979654 100.0591526  57.1745323
  95.2655974  99.1207527  57.3605007  95.9080278 100.1375563  56.4411148
  87.1362985  98.9287579  43.2172527  88.0822090  98.7993788  43.2860945
  86.7577230  98.1902241  43.6941955  95.4474143  96.8502570  57.2203606
  94.9313191  96.0661027  57.0333535  96.3314091  96.5221287  57.3850125
  93.1084870  90.5943585  53.1799419  92.9109691  90.2858674  54.0642751
  93.7184575  91.3205224  53.3097348  87.0201678 102.9805326  64.6773184
  87.9404687 103.1583925  64.8713230  86.9851261 102.0361371  64.5252883
  85.3205902  96.8537556  43.1527412  84.4137358  96.5570669  43.2290126
  85.5981883  96.5567374  42.2861698  76.2383843  98.1743919  53.6026458
  75.9186627  97.3209227  53.3100832  75.6917271  98.3892497  54.3584426
  80.0163750 100.8906360  57.3195965  80.2349760 101.8223468  57.3383999
  80.4289524 100.5314335  58.1050769  86.9367968  91.3974446  49.3071653
  86.1268696  91.0521531  49.6826899  87.6252385  91.0881989  49.8959265
  88.8658516  90.4752492  50.9295950  89.4189555  90.8947946  51.5885973
  89.1028603  89.5488240  50.9718906  84.8891616  96.4639566  66.7098714
  84.7888342  97.4133923  66.6410805  84.6713158  96.1357805  65.8374784
  84.0904687  93.7124491  43.2939391  84.9523851  94.0379389  43.5535209
  84.2755031  92.9255987  42.7812457  76.1072103 101.7946831  55.5719580
  75.4135574 101.3800784  55.0589534  76.8545094 101.8367367  54.9752999
  92.2437323  92.5853018  50.4374614  91.6635992  93.2437822  50.0552667
  91.9773256  91.7630362  50.0262032  90.6940890  91.9858075  52.6395934
  91.1940668  92.0974610  51.8310253  91.3376498  91.6819128  53.2796743
  84.7522886  99.8936705  65.5263775  84.2689967 100.6937065  65.7327664
  84.8383825  99.9044650  64.5731219  78.0208845 101.7265085  53.4485595
  77.9979533 101.8252772  52.4967478  78.3309482 102.5730235  53.7702761
  80.6796223 103.7841240  57.5632209  81.6339477 103.7525182  57.4962141
  80.4808747 103.3231863  58.3782435  81.2695605 102.3542356  60.1303007
  82.0888494 102.8486434  60.1537844  81.5432413 101.4374324  60.1020574
  91.0262201  94.7453108  49.4930962  90.1388056  95.0302759  49.2751157
  91.4416191  94.5846871  48.6458239  94.3776738  94.7699629  53.2085302
  95.1537128  95.2596081  53.4809918  93.6524872  95.1957683  53.6657171
  96.8149296  95.4827248  54.2659242  97.4093787  95.2422984  53.5552551
  96.8875880  94.7634379  54.8932779  79.0346452 109.3260859  54.5802407
  78.9000920 108.5661260  54.0140405  78.6178514 110.0501759  54.1131196
  90.1705415 104.5097783  43.5878982  90.8741265 104.7147785  44.2036638
  89.4468064 105.0774544  43.8528066  91.0003225 100.2607644  49.7081253
  90.9438427 100.7176195  48.8688885  91.5531568  99.4998328  49.5304095
  94.8108031  96.0497376  50.5331372  94.5544965  95.6494011  51.3639580
  94.1860899  96.7641170  50.4081511  99.1220369  98.7893449  53.0402663
  98.5619927  98.8586638  53.8134226  98.5163872  98.6134434  52.3202160
  91.7338005 101.4512425  47.0033782  91.6786808 101.2856697  46.0622226
  91.1084060 102.1588458  47.1595971  76.5230519  96.6880489  60.8295204
  77.1689383  96.1779443  61.3182429  76.3147671  97.4249171  61.4038629
  89.0483912 103.7561337  66.3287345  89.9175071 103.9301989  65.9673979
  88.5690663 104.5755754  66.2063074  85.0434130  90.9520534  46.5819100
  85.0312800  91.8962374  46.7387371  85.9357552  90.7690679  46.2878561
  88.8586249  87.5463311  50.8365037  88.0918645  86.9921797  50.9821719
  89.2696954  87.6185179  51.6979189  80.8628010  93.8348107  64.9270218
  81.7259472  93.4784911  65.1373543  80.2893421  93.4962001  65.6145622
  35.6713862   0.4960579  42.4577926  36.3092272   0.3767327  41.7541266
  35.5534705   1.4441423  42.5165878  32.4803568   0.4488008  42.3939451
  32.1422080   0.3329072  41.5059985  33.3493336   0.0479173  42.3740457
  28.3390384   2.3023484  38.3836342  27.7755249   2.2113421  37.6152629
  28.2242779   1.4823388  38.8638834  32.9623351   1.6022859  48.3525656
  32.9511992   1.2075658  47.4806160  33.1243990   0.8688932  48.9459428
  25.8854816   3.7974676  41.2220562  26.6776108   3.4565500  40.8066861
  26.1251466   3.9069651  42.1422715  33.9189942   5.9694452  33.6950806
  33.2677922   6.5548532  33.3084820  34.7134305   6.5000647  33.7545844
  27.8445570   3.0583589  34.0937941  28.6176446   2.5112576  33.9550817
  28.1970968   3.9227838  34.3052402  29.6830612   4.3859971  47.3004840
  29.3920478   5.2905602  47.1851506  30.3187596   4.4276499  48.0148910
  30.6086819   1.7636820  43.8906200  31.2050391   1.5392842  43.1763163
  30.6661791   1.0221565  44.4931648  30.1811847  -0.7823745  31.7256391
  30.4337368  -1.3042224  30.9639854  29.2436406  -0.9457600  31.8283074
  35.2255130  -1.7787967  39.5331134  36.0118219  -2.1968544  39.1821551
  35.4893835  -0.8741875  39.7012782  35.3965208   3.6584884  34.2319791
  34.7611041   3.7319510  34.9440695  35.0662614   4.2478482  33.5538870
  40.6263557  -1.8412734  40.4364112  41.3588729  -2.4113517  40.6701942
  39.8702913  -2.2291133  40.8770618  29.9008136   1.1204361  33.9280766
  29.7844394   0.4449264  34.5961850  30.0110396   0.6336735  33.1112919
  32.2439677   0.5814508  37.6327455  31.8797884   0.0545129  38.3440376
  33.1006793   0.1912977  37.4593940  38.1488978  -8.1291159  44.8958721
  37.8172302  -7.2595748  44.6719936  37.5534591  -8.4454875  45.5752751
  31.8845164  -4.3895592  32.6288803  32.0519566  -3.5215356  32.9959274
  31.6942333  -4.2268311  31.7050093  34.6420497   4.0721387  44.2954634
  34.3421220   4.9746425  44.1870441  34.2971557   3.8053570  45.1475787
  28.0932979   0.5235183  40.3291338  27.1683475   0.3911398  40.5369030
  28.3417392   1.3029403  40.8261281  38.0417641  -3.4096073  41.9752071
  37.1334518  -3.4780665  41.6810832  37.9905237  -2.9324128  42.8033897
  31.8634385  -1.9337935  33.6135470  31.7434010  -1.4880884  34.4520950
  31.1686973  -1.5852617  33.0549008  25.4541790   0.1668457  41.1635127
  25.5834171   0.4202936  42.0774539  24.7739241   0.7596165  40.8439782
  29.6241277  10.8365707  37.2625601  29.5465307  11.7873532  37.3414082
  29.0202921  10.4911579  37.9200528  32.1158507  -1.9906428  49.9186968
  31.3391841  -1.4312508  49.9089833  32.7549070  -1.5049645  50.4401838
  39.9079287  -5.2079635  43.7529945  39.2653668  -4.9147102  43.1069740
  39.4034216  -5.3226715  44.5583142  37.5619451  -1.4616462  34.4415804
  38.4737307  -1.2289075  34.2663502  37.0529098  -0.8779417  33.8790883
  30.3704879   0.8179026  49.4804935  31.1119563   1.3564070  49.2039759
  29.6641865   1.4445314  49.6376487  35.8460219   2.9608166  48.0777097
  36.2543575   2.5190577  47.3331729  35.1237480   2.3860794  48.3311290
  32.1991289  -2.1019227  45.4510654  33.0452484  -1.6779814  45.5945303
  32.1389926  -2.7585603  46.1449217  36.1689033   3.5209357  41.8329386
  35.5397896   3.6855071  41.1305454  35.7814695   3.9350966  42.6040350
  40.0478265   4.4563795  39.1873749  39.3629303   4.8362696  38.6370783
  40.1322115   5.0659121  39.9205697  35.3490734  -4.4414859  47.1091827
  35.1051666  -3.6872798  46.5726103  35.6250665  -4.0629511  47.9439074
  37.3029197   2.1023754  45.7869093  37.5146092   2.7455514  45.1103474
  37.2558945   1.2686070  45.3191023  34.9055426  -5.2858426  42.6905665
  34.0439905  -4.9877172  42.9822403  34.9317861  -5.0688027  41.7586698
  31.7216995   3.2583765  39.0979471  32.1855341   3.5371468  38.3084093
  31.4573793   2.3567209  38.9152561  28.6141076   2.8055246  42.0359234
  29.1842433   3.2342515  41.3976719  29.2049188   2.5237831  42.7343420
  30.6585881  -0.6193083  35.9069036  31.3609925  -0.1672039  36.3742962
  30.3266510  -1.2609264  36.5348929  29.1066243  -2.0281326  50.2820245
  28.4764903  -1.3465045  50.5155642  29.0002331  -2.1398245  49.3373384
  38.4175025   4.9795709  43.9591450  39.2392469   4.5775896  43.6774132
  38.4137428   4.8763943  44.9107566  32.1831628   4.5279752  46.1152161
  32.2476061   4.9900160  46.9510333  31.4742552   3.8977117  46.2434471
  46.5081018   1.3234458  40.3076422  45.7544726   0.7541856  40.1520426
  46.6428559   1.2897122  41.2547057  31.8979646   6.1947860  35.9831141
  31.7625321   7.0399396  36.4115989  32.4389458   6.3967138  35.2197075
  25.3509043   3.7123298  36.5559066  25.8633564   4.5066548  36.7064631
  26.0031756   3.0149588  36.4892668  27.1603928   6.8289054  38.6381819
  27.3370556   7.7507019  38.4502803  27.9560762   6.5147473  39.0676199
  26.4456285  -1.1246314  48.5143983  26.3309800  -2.0261057  48.8151082
  25.5900802  -0.8782617  48.1628799  33.5248122   6.8171426  50.1131483
  33.0811977   6.0307805  49.7952388  34.1865336   7.0050577  49.4475374
  28.2835243   8.3467228  44.6392162  28.8342669   8.2184291  43.8669156
  27.4446719   8.6462117  44.2887055  35.6229360   7.0974226  48.1412885
  35.6047836   7.9183107  47.6493154  36.5449280   6.9728302  48.3663026
  32.0802415   4.6118356  48.9836393  32.6130751   3.8506644  48.7535701
  31.5516496   4.3192008  49.7260547  23.3157960   2.0411952  37.3318637
  24.1533182   2.4508961  37.1152345  23.4936228   1.1011394  37.3018831
  35.2122392  -0.2912967  33.0202470  34.6969016   0.4791637  33.2590857
  34.9399701  -0.9647831  33.6435531  32.7969503  -5.4463266  38.0787708
  31.9411100  -5.8356416  37.8993347  33.2096455  -5.3671306  37.2187494
  40.1856666   2.4619388  34.9555643  39.4086109   2.1230547  34.5110805
  40.8648147   2.4672011  34.2810608  35.0008695  -2.4185875  34.8462251
  34.6958831  -2.1039726  35.6972394  35.9539138  -2.3404455  34.8889584
  33.4455127   3.7404348  36.4955205  32.9176489   3.0057108  36.1828442
  32.9442630   4.5179025  36.2495173  38.4247973   1.9353369  41.6122251
  37.7671648   2.6252630  41.7002380  39.2288372   2.3249801  41.9556238
  37.2353432   0.2897741  39.6626193  37.7485314   0.9227733  40.1647903
  37.8854656  -0.3101063  39.2969553  31.5907727   1.5584559  29.4990178
  30.6834789   1.3273812  29.6981327  32.0878759   0.7622178  29.6864159
  34.4975806  10.2682066  32.4186864  33.8237505  10.5713762  33.0271822
  34.8841628  11.0711146  32.0692321  33.7134263  -2.2352803  41.9084533
  32.7956824  -2.0137856  41.7506222  34.1294407  -2.1606493  41.0496241
  34.4969311  -0.8361387  37.0387214  35.2441130  -0.3239990  36.7294336
  34.7660900  -1.1577335  37.8991607  32.7695961   1.6597153  34.0214168
  31.8607180   1.3756186  34.1186638  32.7991045   2.0796232  33.1617475
  38.0015228   5.2703743  37.7905336  37.5477555   4.4294653  37.8470526
  37.3709195   5.9065141  38.1280116  36.9448148  -3.8004271  39.0206003
  36.2070905  -4.3126885  39.3516246  37.1974921  -4.2403889  38.2089280
  36.4448168   7.1080240  38.7255154  36.7371142   7.6685297  38.0067519
  36.9546788   7.4008801  39.4808313  31.3180855  -0.7274226  40.1223963
  31.3729465  -1.6800390  40.0466440  30.5072057  -0.5714787  40.6065262
  32.4672049   3.2005897  31.3602247  32.0291479   2.4841756  30.9007884
  33.2082490   3.4282012  30.7987338  29.2573215  -2.1097166  37.8814342
  28.4441080  -1.8102996  38.2879534  29.7532209  -2.5041477  38.5988824
  31.4081793   7.8860591  39.8148607  31.3657972   8.1121437  38.8857139
  32.3244492   7.6523965  39.9634408  34.8547427  -1.6455342  46.7129236
  35.2096814  -1.4183869  47.5723702  35.5019558  -1.3136965  46.0906491
  40.5845163   1.4763094  37.4178565  40.4463062   1.6664690  36.4899754
  40.2281382   2.2382477  37.8746616  40.6114543   3.5439621  42.4289837
  41.0451050   3.4514910  43.2772891  41.3246124   3.5197122  41.7909853
  29.5247593   4.7623620  39.6110570  30.3188192   4.2673940  39.4093145
  28.8139286   4.2341483  39.2478275  34.3442438   7.1441715  43.9622937
  34.3979460   7.7132652  44.7300653  33.4757219   7.3143600  43.5976974
  41.4730093   3.5863322  44.9622722  41.6665983   4.4909132  45.2081997
  41.3730711   3.1270741  45.7961307  33.1266403  -6.5278788  47.4613049
  32.4794318  -5.8288838  47.3677526  33.8967419  -6.0942644  47.8289298
  36.5345201   3.7370065  50.5363603  36.3830708   3.5080616  49.6193686
  36.5249881   4.6940666  50.5494948  33.3030538   1.3101977  45.5209869
  34.2322598   1.4613137  45.3478836  32.8821568   1.3985998  44.6658516
  32.1018869   5.3352642  43.2908407  31.9629955   4.9671426  44.1634345
  31.3133466   5.8500281  43.1192365  32.6967021  10.4361738  34.6333943
  32.8718777   9.9649781  35.4479566  32.0099809  11.0627504  34.8615204
  33.6524085   4.7134244  40.6797245  33.3173917   4.6735014  41.5754894
  33.1528030   4.0478960  40.2067655  27.6268329   0.1201874  46.2049826
  27.4888127  -0.6117887  46.8061365  28.5373252   0.0310775  45.9234013
  36.5883276   2.0590279  30.9534304  35.9712447   1.3337107  30.8567357
  36.1199765   2.8199639  30.6101378  30.2550629  -0.1678166  45.6933505
  30.9650248  -0.8084974  45.6520124  30.2119937   0.0834729  46.6159686
  38.2437408   6.7689187  48.6140085  38.1849954   6.0848407  47.9470668
  38.6456926   7.5108177  48.1620711  28.9679563  -3.1812948  47.5129145
  28.4316920  -3.6322210  48.1650741  28.3796272  -3.0467040  46.7699609
  27.2628107  13.5851101  41.4073803  27.5024705  14.2169625  42.0852822
  26.4197303  13.2339141  41.6939163  38.2454815   4.7328771  46.8454064
  37.3581594   4.3954693  46.9680463  38.8153366   4.0011802  47.0822830
  31.7755969   9.3930223  43.8115307  31.7026140  10.1985195  44.3234612
  31.3333362   9.5922189  42.9863329  31.5645748   8.6301993  37.3218129
  30.7813270   9.1723674  37.4156353  32.2638493   9.1475973  37.7212370
  34.8742398  -5.5603377  39.9652334  35.3711098  -6.3133415  39.6453405
  34.1029380  -5.5239060  39.3995544  42.7272156   0.1436988  41.6070626
  42.7162032   1.0261704  41.2364559  41.8589535  -0.2091461  41.4125163
  34.2354652   9.2917057  45.9673466  34.9482624   9.9264522  45.8949368
  33.7444681   9.3880923  45.1513468  35.9572179   3.1968310  37.5390758
  35.0228458   3.3169773  37.3695462  36.1348847   2.2940777  37.2750768
  31.4577367  -3.4185994  39.6924019  31.0875155  -3.9714954  40.3804925
  31.9536460  -4.0227861  39.1399019  39.3444730  -0.9614371  38.0740792
  39.8105183  -0.1286379  38.0001095  39.7952231  -1.4269389  38.7786050
  29.2866566   7.0411501  46.7879037  29.9876025   7.6747984  46.9408431
  28.8161681   7.3826232  46.0274676  37.4120961   5.3829451  35.0726944
  37.6880805   5.2686045  35.9820818  36.5425460   4.9846935  35.0339117
  37.3161393  -8.5933784  42.1131693  36.4024473  -8.3629557  42.2813900
  37.7454495  -8.5095340  42.9645726  37.0867852  -0.4043892  44.6131587
  36.4339302  -0.1567984  43.9584040  37.4648232  -1.2179754  44.2794065
  34.0475026   9.6315801  38.7159758  34.2297420   8.8137457  39.1787510
  34.8708012   9.8483494  38.2784648  34.3817191   8.5583987  35.9774806
  34.9104957   8.0476441  35.3644968  34.6445411   8.2426517  36.8420339
  33.1355425   0.3375919  51.0997624  32.4596062   0.2370049  51.7700000
  33.9583059   0.1815133  51.5633622  24.8834284   6.5747856  43.7210140
  25.4687721   5.8291544  43.8538044  24.6859122   6.8851813  44.6046803
  27.7372939   9.6099103  38.7372582  27.0683314  10.0945231  38.2536622
  27.5985809   9.8568324  39.6515961  31.8778208  11.6442847  45.3355240
  32.4296516  11.8074468  46.1004326  32.2184401  12.2347285  44.6635265
  36.7289082   6.4704104  51.1903895  37.2728986   7.0834063  50.6958850
  36.1475927   7.0283683  51.7070908  35.0146595   9.5924822  42.3218923
  34.8897734   8.7914562  41.8129868  35.6725686  10.0871016  41.8332892
  37.0781503   7.3933842  43.9498473  36.1311839   7.2739194  43.8776799
  37.4264276   6.5056340  44.0324734  34.0827936   7.1886559  40.1502825
  33.9352899   6.2603266  40.3310395  34.9081430   7.2106649  39.6659900
  37.6862058   8.0115117  41.2367698  38.6108606   7.8057979  41.0992149
  37.5177362   7.7631519  42.1457039  34.0789451  -4.9575604  35.1434942
  34.2953065  -4.0750966  34.8423770  33.5983518  -5.3489390  34.4140584
  28.8188672  -1.9989890  41.7205687  28.6733253  -1.6849587  42.6129968
  28.3413876  -1.3804990  41.1676585  32.5311186  -4.5750002  43.8139704
  32.2728964  -3.6532932  43.8124034  31.9996226  -4.9719568  44.5040168
  37.4757375   8.5300785  36.5929789  37.6494252   7.9647207  35.8403641
  37.9686266   9.3301680  36.4109279  23.2934334   0.5415454  44.6593348
  22.7487802   1.3175262  44.7913622  24.1713684   0.8886258  44.5012469
  43.3296766   1.2937208  38.2120089  43.7727912   0.5444533  37.8139212
  42.4523276   1.2847344  37.8293821  38.4632547   7.8467549  33.6926687
  39.1583452   8.4674242  33.9114002  38.8055697   6.9962900  33.9679065
  40.3623970   5.2967255  35.2214018  40.8875294   5.6354528  34.4963338
  40.2746323   4.3614270  35.0377153  32.0244019   9.2101328  47.3503895
  32.3331145   8.9650475  48.2226594  32.8219501   9.4147967  46.8622765
  32.0464631  11.3639238  39.5809271  31.6069621  10.8715617  40.2742128
  32.7972748  10.8212206  39.3401346  24.5256970   7.5550779  39.5833899
  25.3514990   7.2554551  39.2032543  24.1751022   6.7858401  40.0323688
  29.4938503   6.9077247  41.6531573  28.8718512   6.2447952  41.3533801
  30.1643370   6.9338379  40.9705221  22.7265575   5.4737105  40.5422833
  21.8897483   5.0459280  40.3606834  22.6989220   5.6669549  41.4793624
  40.0517876   5.9300158  50.5265216  39.2613420   5.9124297  49.9869715
  39.8151231   6.4688452  51.2814253  40.1715751   2.7792625  47.8397945
  40.2213756   2.6142632  48.7813467  40.0629675   1.9119884  47.4495825
  29.0552010   5.4581170  35.1290033  29.2040130   6.1416635  34.4756706
  29.8618453   5.4386261  35.6439489  37.4619514  -1.2376447  49.1557251
  38.3629376  -1.3769982  48.8641249  37.5367488  -1.0721992  50.0955429
  31.7962319  -3.8609592  48.0010438  30.9265628  -3.5676026  47.7293026
  32.0321799  -3.2769147  48.7217701  41.6733948   5.1989566  48.0839966
  41.3818756   5.5619547  48.9203427  41.0606079   4.4856575  47.9053298
  42.8729630   2.7642446  40.6042536  43.7076522   3.2032250  40.7680097
  43.0088759   2.2881099  39.7850782  39.9221136   0.3222181  46.5520024
  40.3975258   0.5149827  45.7438875  38.9986702   0.3781367  46.3063408
  26.8104643   1.4846348  36.1351102  26.5650685   0.5808678  36.3331313
  26.9800557   1.4863499  35.1930580  34.5001353  -7.6429976  45.5175858
  35.0183297  -6.9068949  45.1922347  34.1456486  -7.3365982  46.3522617
  32.5547415   7.9529301  32.6001781  31.9821383   8.5719488  32.1472253
  33.1280209   8.5028663  33.1341703  38.6222805  -2.8012059  44.7848330
  39.5740228  -2.7013961  44.8060554  38.4526256  -3.5933790  45.2946414
  36.6437185  -5.7156476  44.9707731  36.0487117  -5.4351463  44.2754219
  36.3586882  -5.2262575  45.7424472  35.7744675   8.2366451  33.7310363
  36.7075348   8.1712013  33.9343239  35.6867888   9.0722718  33.2724896
  38.4032692   7.5532321  30.6914311  38.3246323   7.2192185  31.5850069
  39.2242359   8.0454089  30.6905783  41.1010883   0.4194061  43.8990629
  41.0687203  -0.5189939  44.0850313  41.7111507   0.4978097  43.1656454
  32.9394214  -0.7109886  29.9417833  33.8853319  -0.8403678  30.0106251
  32.5608459  -1.4495224  30.4187262  41.2505372  -2.7894896  43.9448913
  40.7344420  -3.5736439  43.7578841  42.1345320  -3.1176179  44.1095432
  46.9187433   1.4810068  43.0396666  47.6490821   1.2195356  43.6004369
  46.3094378   0.7438789  43.0798734  45.0002730  -0.3782070  43.6371117
  44.2735894  -0.5126105  43.0287609  44.5850017  -0.0705241  44.4427835
  32.8232907   3.3407860  51.4018490  33.7435916   3.5186459  51.5958537
  32.7882490   2.3963905  51.2498190  25.8194979   1.2508894  44.0441272
  26.0380989   2.1826002  44.0629305  26.2320753   0.8916869  44.8296075
  30.6922844  -3.1757900  53.4344020  30.5919571  -2.2263543  53.3656112
  30.4744386  -3.5039661  52.5620091  21.9103332   2.1549365  42.2964887
  21.2166803   1.7403318  41.7834841  22.6576323   2.1969901  41.6998306
  38.0468552  -7.0544448  37.1619921  37.4667221  -6.3959644  36.7797973
  37.7804485  -7.8767104  36.7507338  36.4972119  -7.6539391  39.3641241
  36.9971897  -7.5422856  38.5555560  37.1407727  -7.9578338  40.0042050
  30.5554114   0.2539239  52.2509082  30.0721196   1.0539599  52.4572971
  30.6415053   0.2647184  51.2976526  23.8240074   2.0867619  40.1730901
  23.8010762   2.1855306  39.2212785  24.1340711   2.9332770  40.4948068
  26.4827452   4.1443774  44.2877516  27.4370705   4.1127716  44.2207447
  26.2839976   3.6834397  45.1027742  27.0726834   2.7144890  46.8548314
  27.8919723   3.2088968  46.8783151  27.3463642   1.7976858  46.8265881
  36.8293430  -4.8944358  36.2176269  35.9419285  -4.6094707  35.9996464
  37.2447419  -5.0550595  35.3703546  40.1807966  -4.8697837  39.9330608
  40.9568357  -4.3801384  40.2055225  39.4556101  -4.4439783  40.3902478
  42.6180525  -4.1570218  40.9904549  43.2125016  -4.3974482  40.2797857
  42.6907109  -4.8763087  41.6178085  24.8377681   9.6863393  41.3047714
  24.7032149   8.9263794  40.7385712  24.4209743  10.4104293  40.8376503
  35.9736644   4.8700317  30.3124289  36.6772494   5.0750319  30.9281945
  35.2499292   5.4377079  30.5773373  36.8034454   0.6210178  36.4326559
  36.7469655   1.0778729  35.5934192  37.3562796  -0.1399137  36.2549402
  40.6139260  -3.5900090  37.2576679  40.3576194  -3.9903454  38.0884886
  39.9892128  -2.8756296  37.1326818  44.9251598  -0.8504017  39.7647970
  44.3651156  -0.7810828  40.5379532  44.3195101  -1.0263032  39.0447466
  27.9946807  10.5832710  41.5166156  27.8779191  11.5278143  41.4144847
  27.1739253  10.2806272  41.9051956  37.8823341   5.3082846  32.3622749
  38.7168945   4.8764044  32.1800224  37.7207684   5.1364860  33.2899644
  37.5369233   1.8114959  33.7279088  37.4818037   1.6459231  32.7867533
  36.9115289   2.5190992  33.8841278  34.8515140   4.1163871  53.0532651
  35.7206300   4.2904523  52.6919286  34.3721892   4.9358288  52.9308381
  29.0201321  11.2360972  44.7322085  29.9228567  11.2684582  45.0488580
  28.7938691  10.3061423  44.7468421  30.7754923   9.9891959  41.3932163
  29.8250554   9.9893820  41.2796536  31.0787409   9.2424693  40.8768198
  46.5107616  15.8252497  42.4577926  47.1486026  15.7059244  41.7541266
  46.3928459  16.7733341  42.5165878  43.3197323  15.7779925  42.3939451
  42.9815834  15.6620990  41.5059985  44.1887091  15.3771090  42.3740457
  39.1784138  17.6315402  38.3836342  38.6149003  17.5405339  37.6152629
  39.0636533  16.8115306  38.8638834  43.8017105  16.9314777  48.3525656
  43.7905746  16.5367575  47.4806160  43.9637745  16.1980850  48.9459428
  36.7248570  19.1266593  41.2220562  37.5169862  18.7857418  40.8066861
  36.9645220  19.2361568  42.1422715  44.7583697  21.2986369  33.6950806
  44.1071677  21.8840450  33.3084820  45.5528060  21.8292564  33.7545844
  38.6839324  18.3875506  34.0937941  39.4570200  17.8404494  33.9550817
  39.0364723  19.2519756  34.3052402  40.5224367  19.7151889  47.3004840
  40.2314233  20.6197520  47.1851506  41.1581351  19.7568416  48.0148910
  41.4480573  17.0928737  43.8906200  42.0444146  16.8684760  43.1763163
  41.5055545  16.3513483  44.4931648  41.0205602  14.5468173  31.7256391
  41.2731123  14.0249694  30.9639854  40.0830161  14.3834318  31.8283074
  46.0648885  13.5503951  39.5331134  46.8511974  13.1323374  39.1821551
  46.3287589  14.4550043  39.7012782  46.2358962  18.9876801  34.2319791
  45.6004795  19.0611428  34.9440695  45.9056368  19.5770400  33.5538870
  51.4657312  13.4879184  40.4364112  52.1982484  12.9178401  40.6701942
  50.7096668  13.1000785  40.8770618  40.7401891  16.4496279  33.9280766
  40.6238149  15.7741182  34.5961850  40.8504151  15.9628652  33.1112919
  43.0833432  15.9106426  37.6327455  42.7191639  15.3837047  38.3440376
  43.9400547  15.5204895  37.4593940  48.9882732   7.2000758  44.8958721
  48.6566057   8.0696169  44.6719936  48.3928346   6.8837042  45.5752751
  42.7238919  10.9396325  32.6288803  42.8913321  11.8076562  32.9959274
  42.5336088  11.1023607  31.7050093  45.4814252  19.4013304  44.2954634
  45.1814975  20.3038343  44.1870441  45.1365311  19.1345487  45.1475787
  38.9326733  15.8527101  40.3291338  38.0077230  15.7203315  40.5369030
  39.1811146  16.6321320  40.8261281  48.8811396  11.9195844  41.9752071
  47.9728273  11.8511253  41.6810832  48.8298991  12.3967789  42.8033897
  42.7028139  13.3953983  33.6135470  42.5827765  13.8411034  34.4520950
  42.0080728  13.7439301  33.0549008  36.2935544  15.4960375  41.1635127
  36.4227925  15.7494854  42.0774539  35.6132996  16.0888083  40.8439782
  40.4635032  26.1657625  37.2625601  40.3859061  27.1165450  37.3414082
  39.8596675  25.8203497  37.9200528  42.9552261  13.3385490  49.9186968
  42.1785595  13.8979410  49.9089833  43.5942824  13.8242273  50.4401838
  50.7473042  10.1212283  43.7529945  50.1047422  10.4144816  43.1069740
  50.2427970  10.0065203  44.5583142  48.4013206  13.8675456  34.4415804
  49.3131062  14.1002843  34.2663502  47.8922853  14.4512500  33.8790883
  41.2098634  16.1470943  49.4804935  41.9513318  16.6855987  49.2039759
  40.5035619  16.7737232  49.6376487  46.6853973  18.2900084  48.0777097
  47.0937329  17.8482494  47.3331729  45.9631235  17.7152711  48.3311290
  43.0385043  13.2272691  45.4510654  43.8846238  13.6512104  45.5945303
  42.9783681  12.5706315  46.1449217  47.0082788  18.8501274  41.8329386
  46.3791650  19.0146989  41.1305454  46.6208450  19.2642884  42.6040350
  50.8872020  19.7855712  39.1873749  50.2023058  20.1654614  38.6370783
  50.9715869  20.3951039  39.9205697  46.1884489  10.8877059  47.1091827
  45.9445420  11.6419120  46.5726103  46.4644419  11.2662407  47.9439074
  48.1422951  17.4315671  45.7869093  48.3539847  18.0747431  45.1103474
  48.0952700  16.5977988  45.3191023  45.7449180  10.0433492  42.6905665
  44.8833659  10.3414746  42.9822403  45.7711615  10.2603891  41.7586698
  42.5610750  18.5875683  39.0979471  43.0249095  18.8663386  38.3084093
  42.2967548  17.6859127  38.9152561  39.4534831  18.1347164  42.0359234
  40.0236188  18.5634432  41.3976719  40.0442943  17.8529749  42.7343420
  41.4979636  14.7098835  35.9069036  42.2003679  15.1619879  36.3742962
  41.1660264  14.0682654  36.5348929  39.9459997  13.3010592  50.2820245
  39.3158658  13.9826872  50.5155642  39.8396085  13.1893673  49.3373384
  35.2404970  12.9682388  41.2086170  34.4504024  13.2239916  40.7326280
  35.7316217  13.7830725  41.3138210  49.2568779  20.3087627  43.9591450
  50.0786223  19.9067814  43.6774132  49.2531182  20.2055861  44.9107566
  37.1919715  13.3326967  38.1669646  36.3950878  13.4445661  38.6853142
  36.9645307  13.6713619  37.3010537  43.0225383  19.8571670  46.1152161
  43.0869815  20.3192077  46.9510333  42.3136307  19.2269035  46.2434471
  33.5242673  13.2212878  43.6401160  33.7750711  14.1059888  43.9058736
  34.0602221  13.0417480  42.8676252  57.3474772  16.6526375  40.3076422
  56.5938481  16.0833773  40.1520426  57.4822314  16.6189040  41.2547057
  42.7373400  21.5239778  35.9831141  42.6019075  22.3691313  36.4115989
  43.2783213  21.7259055  35.2197075  39.2240740   7.6031357  52.6445496
  38.8307686   7.0497556  53.3193141  40.0406880   7.9141936  53.0352014
  36.1902798  19.0415216  36.5559066  36.7027318  19.8358466  36.7064631
  36.8425511  18.3441506  36.4892668  37.9997683  22.1580972  38.6381819
  38.1764311  23.0798937  38.4502803  38.7954516  21.8439391  39.0676199
  42.1408701   9.0189236  50.2365753  42.8818414   9.6196390  50.1570215
  42.3726624   8.2766874  49.6783796  37.2850039  14.2045604  48.5143983
  37.1703554  13.3030861  48.8151082  36.4294557  14.4509301  48.1628799
  44.3641877  22.1463344  50.1131483  43.9205731  21.3599723  49.7952388
  45.0259090  22.3342495  49.4475374  39.1228998  23.6759146  44.6392162
  39.6736423  23.5476209  43.8669156  38.2840474  23.9754035  44.2887055
  46.4623115  22.4266144  48.1412885  46.4441590  23.2475025  47.6493154
  47.3843035  22.3020219  48.3663026  42.9196169  19.9410273  48.9836393
  43.4524506  19.1798562  48.7535701  42.3910250  19.6483925  49.7260547
  46.0865864   5.0470339  44.5130035  45.7430133   5.9371981  44.4369145
  46.4544827   4.8571997  43.6499620  34.1551715  17.3703870  37.3318637
  34.9926937  17.7800878  37.1152345  34.3329982  16.4303312  37.3018831
  46.0516147  15.0378951  33.0202470  45.5362770  15.8083555  33.2590857
  45.7793455  14.3644087  33.6435531  43.6363258   9.8828651  38.0787708
  42.7804854   9.4935502  37.8993347  44.0490210   9.9620612  37.2187494
  45.1662404   7.4174995  42.4779268  44.6627200   7.3805130  41.6647073
  45.4593011   8.3267737  42.5375925  41.4105290   7.5013724  41.4845450
  42.2758287   7.3056533  41.1251339  41.4782799   7.2724076  42.4114806
  51.0250421  17.7911305  34.9555643  50.2479864  17.4522465  34.5110805
  51.7041902  17.7963928  34.2810608  45.8402450  12.9106043  34.8462251
  45.5352585  13.2252192  35.6972394  46.7932892  12.9887463  34.8889584
  44.2848882  19.0696266  36.4955205  43.7570243  18.3349026  36.1828442
  43.7836384  19.8470942  36.2495173  49.2641728  17.2645286  41.6122251
  48.6065402  17.9544548  41.7002380  50.0682127  17.6541718  41.9556238
  39.0167609   9.7315932  38.8561816  39.5911361   9.5091114  38.1235009
  39.6038592   9.8004627  39.6090418  48.0747187  15.6189659  39.6626193
  48.5879068  16.2519651  40.1647903  48.7248410  15.0190855  39.2969553
  39.3437196  11.7620393  32.8757702  38.5074509  12.0995080  33.1966976
  39.2041966  11.6269373  31.9384839  41.3190277   6.6057181  37.5836886
  40.6654689   6.2906198  36.9593501  41.2770751   5.9832922  38.3096709
  42.4301482  16.8876476  29.4990178  41.5228544  16.6565730  29.6981327
  42.9272514  16.0914095  29.6864159  45.3369561  25.5973983  32.4186864
  44.6631260  25.9005680  33.0271822  45.7235383  26.4003064  32.0692321
  44.5528017  13.0939115  41.9084533  43.6350579  13.3154062  41.7506222
  44.9688161  13.1685425  41.0496241  45.3363065  14.4930530  37.0387214
  46.0834884  15.0051928  36.7294336  45.6054655  14.1714583  37.8991607
  43.6089715  16.9889071  34.0214168  42.7000935  16.7048104  34.1186638
  43.6384799  17.4088150  33.1617475  48.8408983  20.5995661  37.7905336
  48.3871310  19.7586570  37.8470526  48.2102949  21.2357059  38.1280116
  47.7841902  11.5287647  39.0206003  47.0464659  11.0165033  39.3516246
  48.0368676  11.0888028  38.2089280  47.2841922  22.4372157  38.7255154
  47.5764896  22.9977214  38.0067519  47.7940543  22.7300718  39.4808313
  47.8853530   4.3063899  39.6147772  48.1912406   3.4461262  39.3273687
  48.6106134   4.8981519  39.4146766  34.1777886  14.7094585  38.0029370
  33.9802286  14.1163946  37.2780437  33.6224550  14.4046795  38.7205309
  42.1574609  14.6017692  40.1223963  42.2123219  13.6491528  40.0466440
  41.3465811  14.7577131  40.6065262  43.3065803  18.5297815  31.3602247
  42.8685233  17.8133674  30.9007884  44.0476244  18.7573930  30.7987338
  40.0966969  13.2194751  37.8814342  39.2834835  13.5188922  38.2879534
  40.5925964  12.8250440  38.5988824  42.2475547  23.2152508  39.8148607
  42.2051726  23.4413355  38.8857139  43.1638246  22.9815883  39.9634408
  45.6941181  13.6836576  46.7129236  46.0490569  13.9108049  47.5723702
  46.3413312  14.0154953  46.0906491  51.4238918  16.8055012  37.4178565
  51.2856817  16.9956608  36.4899754  51.0675137  17.5674395  37.8746616
  39.5881044  10.7913107  43.4975577  40.2280423  10.6501866  42.7998541
  38.7558575  10.5047620  43.1214179  51.4508298  18.8731539  42.4289837
  51.8844804  18.7806828  43.2772891  52.1639878  18.8489039  41.7909853
  40.3641348  20.0915537  39.6110570  41.1581946  19.5965858  39.4093145
  39.6533040  19.5633401  39.2478275  45.1836192  22.4733633  43.9622937
  45.2373215  23.0424569  44.7300653  44.3150974  22.6435518  43.5976974
  36.6724111  14.2358619  35.6870322  35.7421700  14.1743075  35.9040284
  36.7681583  13.7134572  34.8906964  36.5909660  10.7613432  38.2748564
  36.8516478  11.6758765  38.1657724  37.4126833  10.2937875  38.4245177
  38.0634586  12.1751189  45.4447389  38.7357639  11.9668551  44.7960037
  37.2364372  11.9773275  45.0052621  52.3123847  18.9155239  44.9622722
  52.5059737  19.8201050  45.2081997  52.2124465  18.4562659  45.7961307
  43.9660158   8.8013130  47.4613049  43.3188073   9.5003080  47.3677526
  44.7361173   9.2349274  47.8289298  47.3738956  19.0661982  50.5363603
  47.2224462  18.8372534  49.6193686  47.3643635  20.0232584  50.5494948
  44.1424292  16.6393895  45.5209869  45.0716352  16.7905055  45.3478836
  43.7215322  16.7277916  44.6658516  42.9412624  20.6644559  43.2908407
  42.8023710  20.2963344  44.1634345  42.1527220  21.1792199  43.1192365
  43.5360776  25.7653656  34.6333943  43.7112532  25.2941699  35.4479566
  42.8493564  26.3919422  34.8615204  44.4917839  20.0426162  40.6797245
  44.1567672  20.0026932  41.5754894  43.9921785  19.3770878  40.2067655
  38.4662083  15.4493792  46.2049826  38.3281881  14.7174031  46.8061365
  39.3767007  15.3602692  45.9234013  47.4277031  17.3882196  30.9534304
  46.8106201  16.6629025  30.8567357  46.9593519  18.1491557  30.6101378
  41.0944384  15.1613751  45.6933505  41.8044002  14.5206944  45.6520124
  41.0513692  15.4126646  46.6159686  49.0831162  22.0981105  48.6140085
  49.0243709  21.4140325  47.9470668  49.4850681  22.8400095  48.1620711
  39.8073318  12.1478969  47.5129145  39.2710675  11.6969708  48.1650741
  39.2190026  12.2824878  46.7699609  38.1021861  28.9143019  41.4073803
  38.3418459  29.5461543  42.0852822  37.2591058  28.5631059  41.6939163
  39.2175577  11.6067621  30.0755608  38.3405043  11.4856421  29.7117855
  39.6933330  10.8153699  29.8234497  49.0848570  20.0620689  46.8454064
  48.1975348  19.7246610  46.9680463  49.6547121  19.3303720  47.0822830
  30.7377717  16.3944780  40.1697116  31.4248757  16.0806510  39.5818131
  30.5825846  17.2986145  39.8964367  35.5412439  11.2834977  44.5982139
  35.4570628  10.6760647  43.8632549  34.7195145  11.7743995  44.5991636
  42.6149723  24.7222141  43.8115307  42.5419895  25.5277113  44.3234612
  42.1727116  24.9214107  42.9863329  42.4039503  23.9593911  37.3218129
  41.6207025  24.5015591  37.4156353  43.1032248  24.4767891  37.7212370
  45.7136153   9.7688541  39.9652334  46.2104852   9.0158503  39.6453405
  44.9423134   9.8052857  39.3995544  53.5665910  15.4728906  41.6070626
  53.5555786  16.3553621  41.2364559  52.6983290  15.1200457  41.4125163
  45.0748407  24.6208975  45.9673466  45.7876379  25.2556440  45.8949368
  44.5838435  24.7172841  45.1513468  46.7965934  18.5260228  37.5390758
  45.8622212  18.6461690  37.3695462  46.9742602  17.6232695  37.2750768
  42.2971122  11.9105924  39.6924019  41.9268909  11.3576964  40.3804925
  42.7930214  11.3064057  39.1399019  50.1838485  14.3677547  38.0740792
  50.6498937  15.2005539  38.0001095  50.6345985  13.9022529  38.7786050
  40.1260320  22.3703419  46.7879037  40.8269780  23.0039901  46.9408431
  39.6555435  22.7118150  46.0274676  48.2514716  20.7121368  35.0726944
  48.5274560  20.5977963  35.9820818  47.3819215  20.3138853  35.0339117
  48.1555148   6.7358134  42.1131693  47.2418227   6.9662361  42.2813900
  48.5848249   6.8196578  42.9645726  47.9261606  14.9248026  44.6131587
  47.2733056  15.1723933  43.9584040  48.3041986  14.1112164  44.2794065
  44.8868780  24.9607719  38.7159758  45.0691175  24.1429375  39.1787510
  45.7101766  25.1775411  38.2784648  45.2210945  23.8875904  35.9774806
  45.7498712  23.3768359  35.3644968  45.4839165  23.5718434  36.8420339
  43.9749179  15.6667837  51.0997624  43.2989816  15.5661966  51.7700000
  44.7976813  15.5107051  51.5633622  35.7228038  21.9039774  43.7210140
  36.3081475  21.1583461  43.8538044  35.5252877  22.2143730  44.6046803
  38.5766693  24.9391021  38.7372582  37.9077069  25.4237149  38.2536622
  38.4379563  25.1860241  39.6515961  30.3145693  14.4745374  42.4414583
  30.3529792  13.9408964  43.2351701  29.8085986  13.9480579  41.8225560
  42.7171962  26.9734764  45.3355240  43.2690270  27.1366386  46.1004326
  43.0578155  27.5639202  44.6635265  37.6936455   9.3209914  45.9377125
  37.7577782  10.1824745  45.5254523  37.6303575   8.7083916  45.2049484
  37.1688728  11.3933047  49.5850159  37.7960767  11.0110124  50.1987684
  36.3116647  11.1747249  49.9505852  47.5682836  21.7996022  51.1903895
  48.1122740  22.4125980  50.6958850  46.9869681  22.3575600  51.7070908
  33.9454271  13.2009476  35.5168514  34.2407712  12.2920154  35.4635568
  33.0442306  13.1797215  35.1949516  45.8540349  24.9216740  42.3218923
  45.7291489  24.1206480  41.8129868  46.5119440  25.4162933  41.8332892
  37.4748518  11.2765473  41.4996063  36.7535103  11.8901440  41.3603536
  38.2641773  11.8123237  41.4212709  47.9175258  22.7225760  43.9498473
  46.9705593  22.6031111  43.8776799  48.2658031  21.8348258  44.0324734
  40.2774831   8.6119899  47.7736714  40.8009233   8.8582196  48.5363024
  40.0587164   9.4439934  47.3539852  35.6742112  10.8823574  35.6407839
  35.3454818  10.0020953  35.4582945  36.0281483  10.8271242  36.5284229
  44.9221691  22.5178476  40.1502825  44.7746653  21.5895184  40.3310395
  45.7475184  22.5398567  39.6659900  38.7883935  11.1696543  36.0083317
  39.1280008  11.6982465  35.2861925  39.2356056  11.5076950  36.7841884
  48.5255813  23.3407035  41.2367698  49.4502360  23.1349896  41.0992149
  48.3571116  23.0923436  42.1457039  41.4827376   9.5533594  45.4586385
  41.1424196   8.7541407  45.8607065  40.7766382   9.8535305  44.8863218
  42.1343848   6.6382907  43.9113708  42.9569917   6.1643385  43.7892598
  42.3781911   7.4173390  44.4112394  40.7752082   9.6671165  34.2076610
  41.4960445  10.0452418  33.7040327  40.1517387  10.3860042  34.3111588
  44.9183205  10.3716314  35.1434942  45.1346820  11.2540952  34.8423770
  44.4377272   9.9802527  34.4140584  39.6582427  13.3302027  41.7205687
  39.5127007  13.6442330  42.6129968  39.1807630  13.9486928  41.1676585
  41.5178810  10.3204575  41.7686576  41.5040378   9.4245668  41.4318874
  42.2351238  10.3275239  42.4024862  43.3704940  10.7541915  43.8139704
  43.1122718  11.6758986  43.8124034  42.8389981  10.3572350  44.5040168
  48.3151129  23.8592702  36.5929789  48.4888007  23.2939125  35.8403641
  48.8080020  24.6593597  36.4109279  34.1328089  15.8707372  44.6593348
  33.5881557  16.6467180  44.7913622  35.0107439  16.2178176  44.5012469
  40.9215705   9.2018955  37.0374146  41.0431617   8.2735602  37.2365034
  40.6317748   9.2157641  36.1252462  43.7906896   6.8873866  40.1740866
  43.8128593   6.9513199  39.2192846  44.2074955   6.0478375  40.3681372
  54.1690520  16.6229125  38.2120089  54.6121666  15.8736451  37.8139212
  53.2917030  16.6139262  37.8293821  49.3026302  23.1759467  33.6926687
  49.9977206  23.7966160  33.9114002  49.6449452  22.3254818  33.9679065
  34.9194111  14.9977268  47.5523505  34.1775847  15.1459903  48.1388135
  34.5986855  15.2585533  46.6890254  51.2017725  20.6259172  35.2214018
  51.7269049  20.9646445  34.4963338  51.1140077  19.6906188  35.0377153
  42.8637773  24.5393246  47.3503895  43.1724900  24.2942393  48.2226594
  43.6613255  24.7439885  46.8622765  42.8858385  26.6931156  39.5809271
  42.4463376  26.2007534  40.2742128  43.6366502  26.1504123  39.3401346
  35.3650724  22.8842697  39.5833899  36.1908744  22.5846468  39.2032543
  35.0144776  22.1150319  40.0323688  40.3332258  22.2369165  41.6531573
  39.7112267  21.5739870  41.3533801  41.0037124  22.2630297  40.9705221
  33.5659329  20.8029023  40.5422833  32.7291238  20.3751197  40.3606834
  33.5382975  20.9961466  41.4793624  40.4056785  10.7150953  51.2464079
  40.4544941  11.5913076  50.8641849  40.9479299  10.1728346  50.6735722
  50.8911631  21.2592076  50.5265216  50.1007174  21.2416215  49.9869715
  50.6544985  21.7980370  51.2814253  51.0109506  18.1084542  47.8397945
  51.0607511  17.9434550  48.7813467  50.9023429  17.2411801  47.4495825
  39.8945764  20.7873088  35.1290033  40.0433885  21.4708553  34.4756706
  40.7012208  20.7678178  35.6439489  48.3013268  14.0915470  49.1557251
  49.2023131  13.9521935  48.8641249  48.3761243  14.2569925  50.0955429
  42.6356073  11.4682325  48.0010438  41.7659383  11.7615891  47.7293026
  42.8715554  12.0522770  48.7217701  52.5127703  20.5281484  48.0839966
  52.2212511  20.8911465  48.9203427  51.8999834  19.8148492  47.9053298
  53.7123385  18.0934364  40.6042536  54.5470276  18.5324168  40.7680097
  53.8482514  17.6173017  39.7850782  50.7614891  15.6514099  46.5520024
  51.2369012  15.8441745  45.7438875  49.8380456  15.7073284  46.3063408
  37.6498397  16.8138266  36.1351102  37.4044439  15.9100596  36.3331313
  37.8194312  16.8155416  35.1930580  45.3395107   7.6861942  45.5175858
  45.8577051   8.4222969  45.1922347  44.9850240   7.9925935  46.3522617
  36.9194045  12.5466623  33.6337264  36.2263290  12.6210978  32.9777300
  36.6745797  11.7826967  34.1558781  45.5907701   4.1062225  41.0376755
  45.8709455   3.4385414  41.6637181  46.3758308   4.2991320  40.5251418
  43.3941170  23.2821219  32.6001781  42.8215137  23.9011406  32.1472253
  43.9673964  23.8320580  33.1341703  49.4616560  12.5279859  44.7848330
  50.4133983  12.6277956  44.8060554  49.2920010  11.7358127  45.2946414
  47.4830939   9.6135442  44.9707731  46.8880871   9.8940455  44.2754219
  47.1980636  10.1029343  45.7424472  46.6138430  23.5658369  33.7310363
  47.5469103  23.5003930  33.9343239  46.5261643  24.4014636  33.2724896
  49.2426446  22.8824239  30.6914311  49.1640078  22.5484103  31.5850069
  50.0636113  23.3746007  30.6905783  51.9404638  15.7485978  43.8990629
  51.9080958  14.8101979  44.0850313  52.5505261  15.8270015  43.1656454
  43.7787968  14.6182031  29.9417833  44.7247073  14.4888239  30.0106251
  43.4002213  13.8796693  30.4187262  52.0899126  12.5397022  43.9448913
  51.5738175  11.7555478  43.7578841  52.9739075  12.2115738  44.1095432
  49.7509853   6.2838037  39.9044725  49.5534674   5.9753126  40.7888057
  50.3609559   7.0099676  40.0342655  57.7581187  16.8101985  43.0396666
  58.4884576  16.5487273  43.6004369  57.1488133  16.0730707  43.0798734
  55.8396485  14.9509848  43.6371117  55.1129648  14.8165813  43.0287609
  55.4243771  15.2586676  44.4427835  43.6626661  18.6699777  51.4018490
  44.5829670  18.8478376  51.5958537  43.6276244  17.7255823  51.2498190
  41.9630886  12.5432008  29.8772719  41.0562341  12.2465120  29.9535432
  42.2406867  12.2461826  29.0107005  32.8808826  13.8638371  40.3271765
  32.5611610  13.0103679  40.0346139  32.3342254  14.0786949  41.0829732
  36.6588734  16.5800812  44.0441272  36.8774743  17.5117920  44.0629305
  37.0714507  16.2208787  44.8296075  43.5792951   7.0868897  36.0316960
  42.7693680   6.7415982  36.4072206  44.2677368   6.7776441  36.6204571
  45.5083500   6.1646944  37.6541257  46.0614538   6.5842398  38.3131280
  45.7453586   5.2382692  37.6964213  41.5316599  12.1534018  53.4344020
  41.4313326  13.1028375  53.3656112  41.3138141  11.8252257  52.5620091
  40.7329670   9.4018943  30.0184698  41.5948834   9.7273841  30.2780515
  40.9180014   8.6150439  29.5057764  32.7497086  17.4841283  42.2964887
  32.0560557  17.0695235  41.7834841  33.4970077  17.5261819  41.6998306
  48.8862307   8.2747469  37.1619921  48.3060976   8.9332273  36.7797973
  48.6198239   7.4524814  36.7507338  47.3365873   7.6752527  39.3641241
  47.8365651   7.7869062  38.5555560  47.9801481   7.3713580  40.0042050
  41.3947869  15.5831157  52.2509082  40.9114951  16.3831517  52.4572971
  41.4808808  15.5939102  51.2976526  34.6633829  17.4159536  40.1730901
  34.6404517  17.5147224  39.2212785  34.9734465  18.2624687  40.4948068
  37.3221206  19.4735691  44.2877516  38.2764460  19.4419634  44.2207447
  37.1233730  19.0126315  45.1027742  37.9120589  18.0436807  46.8548314
  38.7313478  18.5380886  46.8783151  38.1857396  17.1268776  46.8265881
  47.6687185  10.4347560  36.2176269  46.7813040  10.7197210  35.9996464
  48.0841174  10.2741323  35.3703546  51.0201721  10.4594081  39.9330608
  51.7962111  10.9490533  40.2055225  50.2949855  10.8852135  40.3902478
  53.4574279  11.1721700  40.9904549  54.0518770  10.9317436  40.2797857
  53.5300863  10.4528831  41.6178085  35.6771435  25.0155311  41.3047714
  35.5425903  24.2555712  40.7385712  35.2603497  25.7396211  40.8376503
  46.8130398  20.1992234  30.3124289  47.5166248  20.4042237  30.9281945
  46.0893047  20.7668996  30.5773373  47.6428208  15.9502096  36.4326559
  47.5863410  16.4070647  35.5934192  48.1956551  15.1892780  36.2549402
  51.4533014  11.7391828  37.2576679  51.1969949  11.3388463  38.0884886
  50.8285882  12.4535622  37.1326818  55.7645352  14.4787901  39.7647970
  55.2044910  14.5481090  40.5379532  55.1588856  14.3028885  39.0447466
  38.8340561  25.9124628  41.5166156  38.7172945  26.8570060  41.4144847
  38.0133007  25.6098189  41.9051956  48.7217096  20.6374764  32.3622749
  49.5562700  20.2055962  32.1800224  48.5601439  20.4656777  33.2899644
  48.3762988  17.1406877  33.7279088  48.3211792  16.9751148  32.7867533
  47.7509043  17.8482910  33.8841278  33.1655503  12.3774941  47.5540511
  33.8114366  11.8673895  48.0427736  32.9572654  13.1143623  48.1283936
  45.6908895  19.4455789  53.0532651  46.5600055  19.6196441  52.6919286
  45.2115646  20.2650206  52.9308381  41.6859113   6.6414986  33.3064407
  41.6737783   7.5856826  33.4632678  42.5782535   6.4585131  33.0123868
  39.8595075  26.5652890  44.7322085  40.7622322  26.5976500  45.0488580
  39.6332445  25.6353341  44.7468421  41.6148677  25.3183876  41.3932163
  40.6644308  25.3185738  41.2796536  41.9181163  24.5716611  40.8768198
  45.5011233   3.2357763  37.5610344  44.7343629   2.6816249  37.7067026
  45.9121938   3.3079631  38.4224495  37.5052994   9.5242558  51.6515525
  38.3684455   9.1679363  51.8618849  36.9318404   9.1856453  52.3390929
  57.3501371  31.1544415  42.4577926  57.9879781  31.0351162  41.7541266
  57.2322214  32.1025259  42.5165878  54.1591077  31.1071843  42.3939451
  53.8209589  30.9912908  41.5059985  55.0280845  30.7063008  42.3740457
  50.0177893  32.9607319  38.3836342  49.4542758  32.8697256  37.6152629
  49.9030288  32.1407224  38.8638834  54.6410860  32.2606695  48.3525656
  54.6299501  31.8659493  47.4806160  54.8031499  31.5272767  48.9459428
  49.5233079  33.7167424  34.0937941  50.2963955  33.1696411  33.9550817
  49.8758477  34.5811673  34.3052402  52.2874328  32.4220655  43.8906200
  52.8837900  32.1976677  43.1763163  52.3449300  31.6805400  44.4931648
  51.8599356  29.8760090  31.7256391  52.1124877  29.3541612  30.9639854
  50.9223915  29.7126236  31.8283074  56.9042639  28.8795869  39.5331134
  57.6905728  28.4615292  39.1821551  57.1681344  29.7841961  39.7012782
  62.3051066  28.8171102  40.4364112  63.0376238  28.2470319  40.6701942
  61.5490422  28.4292702  40.8770618  51.5795645  31.7788196  33.9280766
  51.4631903  31.1033100  34.5961850  51.6897905  31.2920570  33.1112919
  53.9227186  31.2398343  37.6327455  53.5585393  30.7128964  38.3440376
  54.7794302  30.8496812  37.4593940  59.8276487  22.5292676  44.8958721
  59.4959811  23.3988087  44.6719936  59.2322100  22.2128960  45.5752751
  53.5632673  26.2688243  32.6288803  53.7307075  27.1368479  32.9959274
  53.3729842  26.4315525  31.7050093  49.7720488  31.1819019  40.3291338
  48.8470984  31.0495233  40.5369030  50.0204901  31.9613238  40.8261281
  59.7205150  27.2487762  41.9752071  58.8122027  27.1803171  41.6810832
  59.6692746  27.7259707  42.8033897  53.5421894  28.7245901  33.6135470
  53.4221519  29.1702951  34.4520950  52.8474482  29.0731218  33.0549008
  47.1329299  30.8252292  41.1635127  47.2621680  31.0786771  42.0774539
  46.4526750  31.4180000  40.8439782  53.7946016  28.6677408  49.9186968
  53.0179350  29.2271328  49.9089833  54.4336579  29.1534191  50.4401838
  61.5866796  25.4504201  43.7529945  60.9441177  25.7436734  43.1069740
  61.0821725  25.3357121  44.5583142  59.2406960  29.1967374  34.4415804
  60.1524816  29.4294760  34.2663502  58.7316607  29.7804418  33.8790883
  57.5247728  33.6192002  48.0777097  57.9331084  33.1774412  47.3331729
  56.8024989  33.0444629  48.3311290  53.8778798  28.5564608  45.4510654
  54.7239993  28.9804022  45.5945303  53.8177435  27.8998233  46.1449217
  57.0278243  26.2168977  47.1091827  56.7839175  26.9711037  46.5726103
  57.3038174  26.5954324  47.9439074  58.9816706  32.7607589  45.7869093
  59.1933601  33.4039349  45.1103474  58.9346454  31.9269906  45.3191023
  56.5842935  25.3725410  42.6905665  55.7227414  25.6706663  42.9822403
  56.6105369  25.5895809  41.7586698  52.3373390  30.0390753  35.9069036
  53.0397434  30.4911796  36.3742962  52.0054019  29.3974571  36.5348929
  50.7853752  28.6302509  50.2820245  50.1552412  29.3118790  50.5155642
  50.6789840  28.5185591  49.3373384  46.0798724  28.2974305  41.2086170
  45.2897778  28.5531834  40.7326280  46.5709972  29.1122643  41.3138210
  48.0313470  28.6618885  38.1669646  47.2344633  28.7737579  38.6853142
  47.8039062  29.0005537  37.3010537  53.8619137  35.1863588  46.1152161
  53.9263570  35.6483995  46.9510333  53.1530061  34.5560953  46.2434471
  44.3636427  28.5504796  43.6401160  44.6144466  29.4351806  43.9058736
  44.8995976  28.3709397  42.8676252  50.0634495  22.9323275  52.6445496
  49.6701440  22.3789474  53.3193141  50.8800635  23.2433854  53.0352014
  52.9802456  24.3481154  50.2365753  53.7212169  24.9488307  50.1570215
  53.2120378  23.6058792  49.6783796  48.1243794  29.5337521  48.5143983
  48.0097309  28.6322779  48.8151082  47.2688311  29.7801218  48.1628799
  53.7589924  35.2702191  48.9836393  54.2918260  34.5090479  48.7535701
  53.2304005  34.9775843  49.7260547  56.9259618  20.3762257  44.5130035
  56.5823888  21.2663899  44.4369145  57.2938581  20.1863915  43.6499620
  44.9945469  32.6995788  37.3318637  45.8320691  33.1092796  37.1152345
  45.1723737  31.7595230  37.3018831  56.8909901  30.3670868  33.0202470
  56.3756525  31.1375473  33.2590857  56.6187210  29.6936004  33.6435531
  54.4757012  25.2120569  38.0787708  53.6198609  24.8227419  37.8993347
  54.8883964  25.2912530  37.2187494  56.0056159  22.7466912  42.4779268
  55.5020954  22.7097047  41.6647073  56.2986766  23.6559655  42.5375925
  52.2499045  22.8305642  41.4845450  53.1152042  22.6348451  41.1251339
  52.3176554  22.6015994  42.4114806  56.6796204  28.2397960  34.8462251
  56.3746340  28.5544109  35.6972394  57.6326647  28.3179380  34.8889584
  49.8561364  25.0607850  38.8561816  50.4305116  24.8383031  38.1235009
  50.4432346  25.1296544  39.6090418  58.9140941  30.9481577  39.6626193
  59.4272823  31.5811569  40.1647903  59.5642165  30.3482772  39.2969553
  50.1830951  27.0912311  32.8757702  49.3468263  27.4286997  33.1966976
  50.0435721  26.9561291  31.9384839  52.1584032  21.9349099  37.5836886
  51.5048444  21.6198116  36.9593501  52.1164506  21.3124839  38.3096709
  53.2695236  32.2168394  29.4990178  52.3622298  31.9857647  29.6981327
  53.7666268  31.4206013  29.6864159  55.3921772  28.4231032  41.9084533
  54.4744333  28.6445979  41.7506222  55.8081916  28.4977343  41.0496241
  56.1756820  29.8222448  37.0387214  56.9228639  30.3343845  36.7294336
  56.4448409  29.5006501  37.8991607  54.4483470  32.3180989  34.0214168
  53.5394689  32.0340022  34.1186638  54.4778554  32.7380067  33.1617475
  58.6235657  26.8579564  39.0206003  57.8858414  26.3456950  39.3516246
  58.8762430  26.4179946  38.2089280  58.7247284  19.6355816  39.6147772
  59.0306161  18.7753180  39.3273687  59.4499889  20.2273436  39.4146766
  45.0171640  30.0386503  38.0029370  44.8196040  29.4455864  37.2780437
  44.4618304  29.7338713  38.7205309  52.9968364  29.9309609  40.1223963
  53.0516974  28.9783446  40.0466440  52.1859566  30.0869048  40.6065262
  54.1459558  33.8589732  31.3602247  53.7078988  33.1425591  30.9007884
  54.8869999  34.0865847  30.7987338  50.9360724  28.5486669  37.8814342
  50.1228589  28.8480840  38.2879534  51.4319718  28.1542358  38.5988824
  56.5334935  29.0128494  46.7129236  56.8884323  29.2399967  47.5723702
  57.1807067  29.3446870  46.0906491  62.2632672  32.1346929  37.4178565
  62.1250571  32.3248525  36.4899754  61.9068891  32.8966312  37.8746616
  50.4274799  26.1205025  43.4975577  51.0674178  25.9793784  42.7998541
  49.5952329  25.8339538  43.1214179  47.5117866  29.5650537  35.6870322
  46.5815454  29.5034992  35.9040284  47.6075338  29.0426490  34.8906964
  47.4303415  26.0905350  38.2748564  47.6910232  27.0050683  38.1657724
  48.2520587  25.6229792  38.4245177  48.9028340  27.5043107  45.4447389
  49.5751394  27.2960469  44.7960037  48.0758127  27.3065193  45.0052621
  54.8053912  24.1305048  47.4613049  54.1581827  24.8294997  47.3677526
  55.5754928  24.5641192  47.8289298  54.9818047  31.9685813  45.5209869
  55.9110107  32.1196972  45.3478836  54.5609077  32.0569833  44.6658516
  49.3055838  30.7785710  46.2049826  49.1675636  30.0465949  46.8061365
  50.2160761  30.6894610  45.9234013  58.2670785  32.7174114  30.9534304
  57.6499956  31.9920942  30.8567357  57.7987274  33.4783474  30.6101378
  51.9338138  30.4905669  45.6933505  52.6437757  29.8498861  45.6520124
  51.8907446  30.7418564  46.6159686  50.6467072  27.4770887  47.5129145
  50.1104429  27.0261625  48.1650741  50.0583781  27.6116796  46.7699609
  50.0569331  26.9359538  30.0755608  49.1798797  26.8148339  29.7117855
  50.5327084  26.1445617  29.8234497  41.5771471  31.7236698  40.1697116
  42.2642511  31.4098428  39.5818131  41.4219600  32.6278063  39.8964367
  46.3806193  26.6126895  44.5982139  46.2964382  26.0052564  43.8632549
  45.5588900  27.1035913  44.5991636  56.5529907  25.0980458  39.9652334
  57.0498607  24.3450421  39.6453405  55.7816889  25.1344775  39.3995544
  53.1364876  27.2397841  39.6924019  52.7662664  26.6868882  40.3804925
  53.6323969  26.6355975  39.1399019  61.0232239  29.6969465  38.0740792
  61.4892692  30.5297456  38.0001095  61.4739740  29.2314446  38.7786050
  58.9948902  22.0650052  42.1131693  58.0811982  22.2954279  42.2813900
  59.4242004  22.1488496  42.9645726  58.7655361  30.2539944  44.6131587
  58.1126811  30.5015851  43.9584040  59.1435741  29.4404082  44.2794065
  54.8142934  30.9959755  51.0997624  54.1383571  30.8953884  51.7700000
  55.6370568  30.8398968  51.5633622  41.1539447  29.8037291  42.4414583
  41.1923547  29.2700882  43.2351701  40.6479740  29.2772497  41.8225560
  48.5330210  24.6501832  45.9377125  48.5971536  25.5116663  45.5254523
  48.4697330  24.0375834  45.2049484  48.0082482  26.7224965  49.5850159
  48.6354521  26.3402042  50.1987684  47.1510401  26.5039166  49.9505852
  44.7848025  28.5301394  35.5168514  45.0801466  27.6212072  35.4635568
  43.8836061  28.5089133  35.1949516  48.3142272  26.6057390  41.4996063
  47.5928858  27.2193358  41.3603536  49.1035528  27.1415155  41.4212709
  51.1168586  23.9411817  47.7736714  51.6402987  24.1874113  48.5363024
  50.8980919  24.7731852  47.3539852  46.5135867  26.2115491  35.6407839
  46.1848573  25.3312870  35.4582945  46.8675237  26.1563160  36.5284229
  49.6277690  26.4988461  36.0083317  49.9673762  27.0274382  35.2861925
  50.0749810  26.8368867  36.7841884  52.3221131  24.8825512  45.4586385
  51.9817951  24.0833325  45.8607065  51.6160137  25.1827223  44.8863218
  52.9737602  21.9674824  43.9113708  53.7963672  21.4935302  43.7892598
  53.2175666  22.7465308  44.4112394  51.6145837  24.9963083  34.2076610
  52.3354199  25.3744335  33.7040327  50.9911141  25.7151959  34.3111588
  55.7576960  25.7008232  35.1434942  55.9740574  26.5832870  34.8423770
  55.2771027  25.3094445  34.4140584  50.4976181  28.6593945  41.7205687
  50.3520762  28.9734248  42.6129968  50.0201385  29.2778845  41.1676585
  52.3572564  25.6496493  41.7686576  52.3434133  24.7537586  41.4318874
  53.0744992  25.6567157  42.4024862  54.2098695  26.0833833  43.8139704
  53.9516473  27.0050904  43.8124034  53.6783735  25.6864268  44.5040168
  51.7609460  24.5310873  37.0374146  51.8825371  23.6027519  37.2365034
  51.4711502  24.5449559  36.1252462  54.6300650  22.2165784  40.1740866
  54.6522347  22.2805117  39.2192846  55.0468709  21.3770292  40.3681372
  51.2450540  26.0442870  51.2464079  51.2938695  26.9204993  50.8641849
  51.7873054  25.5020264  50.6735722  59.1407023  29.4207388  49.1557251
  60.0416885  29.2813853  48.8641249  59.2154997  29.5861843  50.0955429
  53.4749828  26.7974243  48.0010438  52.6053137  27.0907809  47.7293026
  53.7109308  27.3814688  48.7217701  48.4892152  32.1430183  36.1351102
  48.2438194  31.2392513  36.3331313  48.6588066  32.1447334  35.1930580
  56.1788862  23.0153860  45.5175858  56.6970806  23.7514887  45.1922347
  55.8243995  23.3217853  46.3522617  47.7587799  27.8758541  33.6337264
  47.0657044  27.9502896  32.9777300  47.5139551  27.1118885  34.1558781
  56.4301456  19.4354142  41.0376755  56.7103210  18.7677331  41.6637181
  57.2152063  19.6283238  40.5251418  58.3224694  24.9427360  44.9707731
  57.7274626  25.2232372  44.2754219  58.0374390  25.4321260  45.7424472
  54.6181723  29.9473949  29.9417833  55.5640828  29.8180157  30.0106251
  54.2395968  29.2088611  30.4187262  60.5903608  21.6129955  39.9044725
  60.3928429  21.3045043  40.7888057  61.2003313  22.3391594  40.0342655
  54.5020415  33.9991695  51.4018490  55.4223425  34.1770294  51.5958537
  54.4669999  33.0547740  51.2498190  52.8024640  27.8723925  29.8772719
  51.8956096  27.5757038  29.9535432  53.0800621  27.5753743  29.0107005
  43.7202580  29.1930289  40.3271765  43.4005365  28.3395597  40.0346139
  43.1736009  29.4078867  41.0829732  54.4186706  22.4160815  36.0316960
  53.6087434  22.0707900  36.4072206  55.1071123  22.1068359  36.6204571
  56.3477254  21.4938862  37.6541257  56.9008293  21.9134315  38.3131280
  56.5847340  20.5674610  37.6964213  52.3710353  27.4825936  53.4344020
  52.2707080  28.4320293  53.3656112  52.1531895  27.1544174  52.5620091
  51.5723425  24.7310861  30.0184698  52.4342589  25.0565759  30.2780515
  51.7573769  23.9442357  29.5057764  43.5890840  32.8133200  42.2964887
  42.8954312  32.3987153  41.7834841  44.3363831  32.8553737  41.6998306
  59.7256061  23.6039387  37.1619921  59.1454730  24.2624191  36.7797973
  59.4591994  22.7816732  36.7507338  58.1759628  23.0044445  39.3641241
  58.6759406  23.1160979  38.5555560  58.8195236  22.7005498  40.0042050
  45.5027583  32.7451454  40.1730901  45.4798271  32.8439141  39.2212785
  45.8128220  33.5916605  40.4948068  58.5080939  25.7639477  36.2176269
  57.6206794  26.0489128  35.9996464  58.9234928  25.6033241  35.3703546
  61.8595475  25.7885998  39.9330608  62.6355865  26.2782451  40.2055225
  61.1343610  26.2144053  40.3902478  64.2968034  26.5013618  40.9904549
  64.8912525  26.2609354  40.2797857  64.3694618  25.7820748  41.6178085
  58.4821963  31.2794013  36.4326559  58.4257164  31.7362565  35.5934192
  59.0350305  30.5184698  36.2549402  62.2926769  27.0683745  37.2576679
  62.0363703  26.6680381  38.0884886  61.6679637  27.7827539  37.1326818
  44.0049257  27.7066859  47.5540511  44.6508121  27.1965813  48.0427736
  43.7966408  28.4435541  48.1283936  52.5252868  21.9706904  33.3064407
  52.5131538  22.9148744  33.4632678  53.4176290  21.7877049  33.0123868
  56.3404987  18.5649680  37.5610344  55.5737383  18.0108167  37.7067026
  56.7515692  18.6371549  38.4224495  48.3446748  24.8534476  51.6515525
  49.2078210  24.4971281  51.8618849  47.7712159  24.5148371  52.3390929
  79.0288880  61.8128250  42.4577926  79.6667290  61.6934997  41.7541266
  78.9109723  62.7609094  42.5165878  77.2764960  67.2862122  33.6950806
  76.6252940  67.8716203  33.3084820  78.0709323  67.8168317  33.7545844
  78.5830148  59.5379704  39.5331134  79.3693237  59.1199127  39.1821551
  78.8468853  60.4425796  39.7012782  78.7540226  64.9752554  34.2319791
  78.1186059  65.0487181  34.9440695  78.4237632  65.5646153  33.5538870
  83.9838575  59.4754937  40.4364112  84.7163747  58.9054154  40.6701942
  83.2277931  59.0876538  40.8770618  77.9995515  65.3889057  44.2954634
  77.6996238  66.2914096  44.1870441  77.6546575  65.1221240  45.1475787
  72.9816295  72.1533378  37.2625601  72.9040325  73.1041203  37.3414082
  72.3777939  71.8079250  37.9200528  80.9194469  59.8551209  34.4415804
  81.8312325  60.0878596  34.2663502  80.4104116  60.4388253  33.8790883
  79.2035237  64.2775837  48.0777097  79.6118593  63.8358247  47.3331729
  78.4812498  63.7028464  48.3311290  79.5264051  64.8377027  41.8329386
  78.8972914  65.0022742  41.1305454  79.1389713  65.2518637  42.6040350
  83.4053283  65.7731465  39.1873749  82.7204321  66.1530367  38.6370783
  83.4897133  66.3826792  39.9205697  80.6604215  63.4191424  45.7869093
  80.8721110  64.0623184  45.1103474  80.6133963  62.5853741  45.3191023
  81.7750043  66.2963380  43.9591450  82.5967487  65.8943567  43.6774132
  81.7712446  66.1931614  44.9107566  75.5406646  65.8447423  46.1152161
  75.6051079  66.3067830  46.9510333  74.8317570  65.2144788  46.2434471
  89.8656036  62.6402128  40.3076422  89.1119744  62.0709526  40.1520426
  90.0003577  62.6064793  41.2547057  75.2554664  67.5115531  35.9831141
  75.1200339  68.3567066  36.4115989  75.7964476  67.7134808  35.2197075
  76.8823140  68.1339097  50.1131483  76.4386994  67.3475476  49.7952388
  77.5440354  68.3218248  49.4475374  71.6410261  69.6634899  44.6392162
  72.1917687  69.5351962  43.8669156  70.8021737  69.9629788  44.2887055
  78.9804378  68.4141897  48.1412885  78.9622854  69.2350778  47.6493154
  79.9024298  68.2895972  48.3663026  75.4377433  65.9286027  48.9836393
  75.9705769  65.1674315  48.7535701  74.9091514  65.6359678  49.7260547
  78.5697410  61.0254704  33.0202470  78.0544034  61.7959308  33.2590857
  78.2974719  60.3519840  33.6435531  83.5431684  63.7787058  34.9555643
  82.7661127  63.4398218  34.5110805  84.2223165  63.7839681  34.2810608
  78.3583713  58.8981796  34.8462251  78.0533849  59.2127945  35.6972394
  79.3114155  58.9763216  34.8889584  76.8030145  65.0572019  36.4955205
  76.2751507  64.3224779  36.1828442  76.3017648  65.8346695  36.2495173
  81.7822991  63.2521039  41.6122251  81.1246666  63.9420301  41.7002380
  82.5863390  63.6417471  41.9556238  80.5928450  61.6065412  39.6626193
  81.1060332  62.2395404  40.1647903  81.2429674  61.0066608  39.2969553
  74.9482745  62.8752229  29.4990178  74.0409807  62.6441483  29.6981327
  75.4453777  62.0789848  29.6864159  77.8550824  71.5849736  32.4186864
  77.1812523  71.8881433  33.0271822  78.2416646  72.3878817  32.0692321
  77.8544329  60.4806283  37.0387214  78.6016148  60.9927681  36.7294336
  78.1235918  60.1590336  37.8991607  76.1270979  62.9764824  34.0214168
  75.2182198  62.6923857  34.1186638  76.1566063  63.3963903  33.1617475
  81.3590246  66.5871414  37.7905336  80.9052573  65.7462323  37.8470526
  80.7284213  67.2232812  38.1280116  79.8023185  68.4247910  38.7255154
  80.0946160  68.9852967  38.0067519  80.3121806  68.7176471  39.4808313
  75.8247067  64.5173568  31.3602247  75.3866497  63.8009427  30.9007884
  76.5657507  64.7449683  30.7987338  74.7656811  69.2028261  39.8148607
  74.7232989  69.4289108  38.8857139  75.6819510  68.9691636  39.9634408
  83.9420181  62.7930765  37.4178565  83.8038080  62.9832361  36.4899754
  83.5856400  63.5550148  37.8746616  83.9689561  64.8607292  42.4289837
  84.4026068  64.7682581  43.2772891  84.6821142  64.8364792  41.7909853
  77.7017456  68.4609386  43.9622937  77.7554478  69.0300322  44.7300653
  76.8332237  68.6311271  43.5976974  84.8305111  64.9030992  44.9622722
  85.0241001  65.8076803  45.2081997  84.7305729  64.4438412  45.7961307
  79.8920219  65.0537735  50.5363603  79.7405726  64.8248287  49.6193686
  79.8824899  66.0108337  50.5494948  75.4593887  66.6520312  43.2908407
  75.3204973  66.2839097  44.1634345  74.6708484  67.1667952  43.1192365
  76.0542039  71.7529409  34.6333943  76.2293795  71.2817452  35.4479566
  75.3674827  72.3795175  34.8615204  77.0099103  66.0301915  40.6797245
  76.6748935  65.9902685  41.5754894  76.5103048  65.3646631  40.2067655
  79.9458294  63.3757949  30.9534304  79.3287465  62.6504778  30.8567357
  79.4774783  64.1367310  30.6101378  81.6012426  68.0856858  48.6140085
  81.5424972  67.4016078  47.9470668  82.0031944  68.8275848  48.1620711
  70.6203125  74.9018772  41.4073803  70.8599723  75.5337296  42.0852822
  69.7772321  74.5506812  41.6939163  81.6029833  66.0496442  46.8454064
  80.7156612  65.7122364  46.9680463  82.1728384  65.3179473  47.0822830
  75.1330987  70.7097894  43.8115307  75.0601158  71.5152866  44.3234612
  74.6908380  70.9089860  42.9863329  74.9220766  69.9469664  37.3218129
  74.1388288  70.4891344  37.4156353  75.6213511  70.4643644  37.7212370
  86.0847174  61.4604659  41.6070626  86.0737050  62.3429375  41.2364559
  85.2164553  61.1076210  41.4125163  77.5929670  70.6084728  45.9673466
  78.3057642  71.2432193  45.8949368  77.1019699  70.7048594  45.1513468
  79.3147197  64.5135981  37.5390758  78.3803476  64.6337443  37.3695462
  79.4923865  63.6108448  37.2750768  82.7019748  60.3553300  38.0740792
  83.1680201  61.1881292  38.0001095  83.1527249  59.8898282  38.7786050
  72.6441584  68.3579172  46.7879037  73.3451043  68.9915655  46.9408431
  72.1736699  68.6993903  46.0274676  80.7695979  66.6997121  35.0726944
  81.0455823  66.5853716  35.9820818  79.9000478  66.3014606  35.0339117
  77.4050043  70.9483472  38.7159758  77.5872438  70.1305128  39.1787510
  78.2283029  71.1651164  38.2784648  77.7392209  69.8751657  35.9774806
  78.2679975  69.3644112  35.3644968  78.0020429  69.5594188  36.8420339
  71.0947957  70.9266774  38.7372582  70.4258332  71.4112902  38.2536622
  70.9560827  71.1735994  39.6515961  75.2353225  72.9610518  45.3355240
  75.7871534  73.1242139  46.1004326  75.5759419  73.5514955  44.6635265
  80.0864100  67.7871775  51.1903895  80.6304004  68.4001733  50.6958850
  79.5050945  68.3451353  51.7070908  78.3721613  70.9092493  42.3218923
  78.2472752  70.1082233  41.8129868  79.0300704  71.4038686  41.8332892
  80.4356521  68.7101513  43.9498473  79.4886857  68.5906864  43.8776799
  80.7839294  67.8224011  44.0324734  77.4402954  68.5054229  40.1502825
  77.2927917  67.5770937  40.3310395  78.2656448  68.5274320  39.6659900
  81.0437076  69.3282788  41.2367698  81.9683624  69.1225649  41.0992149
  80.8752380  69.0799189  42.1457039  80.8332393  69.8468456  36.5929789
  81.0069270  69.2814878  35.8403641  81.3261284  70.6469350  36.4109279
  86.6871784  62.6104878  38.2120089  87.1302930  61.8612204  37.8139212
  85.8098294  62.6015015  37.8293821  81.8207565  69.1635220  33.6926687
  82.5158470  69.7841913  33.9114002  82.1630715  68.3130571  33.9679065
  83.7198988  66.6134925  35.2214018  84.2450312  66.9522198  34.4963338
  83.6321341  65.6781941  35.0377153  75.3819037  70.5268999  47.3503895
  75.6906163  70.2818146  48.2226594  76.1794519  70.7315638  46.8622765
  75.4039649  72.6806909  39.5809271  74.9644639  72.1883287  40.2742128
  76.1547766  72.1379876  39.3401346  72.8513521  68.2244918  41.6531573
  72.2293530  67.5615623  41.3533801  73.5218388  68.2506050  40.9705221
  83.4092894  67.2467829  50.5265216  82.6188438  67.2291968  49.9869715
  83.1726249  67.7856123  51.2814253  83.5290769  64.0960295  47.8397945
  83.5788774  63.9310303  48.7813467  83.4204693  63.2287554  47.4495825
  85.0308966  66.5157237  48.0839966  84.7393774  66.8787218  48.9203427
  84.4181097  65.8024245  47.9053298  86.2304648  64.0810117  40.6042536
  87.0651540  64.5199921  40.7680097  86.3663777  63.6048770  39.7850782
  83.2796154  61.6389852  46.5520024  83.7550276  61.8317498  45.7438875
  82.3561720  61.6949037  46.3063408  75.9122433  69.2696972  32.6001781
  75.3396401  69.8887159  32.1472253  76.4855227  69.8196333  33.1341703
  79.1319693  69.5534122  33.7310363  80.0650366  69.4879683  33.9343239
  79.0442906  70.3890389  33.2724896  81.7607710  68.8699992  30.6914311
  81.6821341  68.5359856  31.5850069  82.5817377  69.3621760  30.6905783
  84.4585901  61.7361731  43.8990629  84.4262221  60.7977732  44.0850313
  85.0686525  61.8145768  43.1656454  84.6080390  58.5272775  43.9448913
  84.0919438  57.7431231  43.7578841  85.4920338  58.1991491  44.1095432
  90.2762451  62.7977738  43.0396666  91.0065839  62.5363026  43.6004369
  89.6669396  62.0606460  43.0798734  88.3577748  60.9385601  43.6371117
  87.6310912  60.8041566  43.0287609  87.9425035  61.2462429  44.4427835
  85.9755543  57.1597453  40.9904549  86.5700034  56.9193189  40.2797857
  86.0482127  56.4404584  41.6178085  68.1952699  71.0031064  41.3047714
  68.0607167  70.2431465  40.7385712  67.7784761  71.7271964  40.8376503
  79.3311662  66.1867987  30.3124289  80.0347512  66.3917990  30.9281945
  78.6074310  66.7544749  30.5773373  80.1609472  61.9377849  36.4326559
  80.1044673  62.3946400  35.5934192  80.7137814  61.1768533  36.2549402
  88.2826616  60.4663654  39.7647970  87.7226174  60.5356843  40.5379532
  87.6770119  60.2904638  39.0447466  71.3521825  71.9000381  41.5166156
  71.2354209  72.8445813  41.4144847  70.5314271  71.5973943  41.9051956
  81.2398359  66.6250517  32.3622749  82.0743963  66.1931715  32.1800224
  81.0782702  66.4532530  33.2899644  80.8944251  63.1282630  33.7279088
  80.8393055  62.9626901  32.7867533  80.2690307  63.8358663  33.8841278
  78.2090158  65.4331542  53.0532651  79.0781318  65.6072194  52.6919286
  77.7296910  66.2525959  52.9308381  72.3776339  72.5528643  44.7322085
  73.2803585  72.5852253  45.0488580  72.1513709  71.6229094  44.7468421
  74.1329941  71.3059629  41.3932163  73.1825572  71.3061491  41.2796536
  74.4362427  70.5592364  40.8768198  89.8682634  77.1420168  42.4577926
  90.5061044  77.0226915  41.7541266  89.7503477  78.0901012  42.5165878
  86.6772340  77.0947596  42.3939451  86.3390852  76.9788661  41.5059985
  87.5462109  76.6938761  42.3740457  82.5359156  78.9483072  38.3836342
  81.9724021  78.8573009  37.6152629  82.4211551  78.1282977  38.8638834
  87.1592123  78.2482448  48.3525656  87.1480764  77.8535246  47.4806160
  87.3212763  77.5148520  48.9459428  80.0823588  80.4434264  41.2220562
  80.8744880  80.1025089  40.8066861  80.3220238  80.5529239  42.1422715
  88.1158715  82.6154040  33.6950806  87.4646695  83.2008120  33.3084820
  88.9103078  83.1460235  33.7545844  82.0414342  79.7043177  34.0937941
  82.8145218  79.1572164  33.9550817  82.3939741  80.5687426  34.3052402
  83.8799385  81.0319559  47.3004840  83.5889251  81.9365190  47.1851506
  84.5156369  81.0736087  48.0148910  84.8055591  78.4096408  43.8906200
  85.4019164  78.1852430  43.1763163  84.8630563  77.6681153  44.4931648
  84.3780620  75.8635843  31.7256391  84.6306141  75.3417365  30.9639854
  83.4405179  75.7001989  31.8283074  89.4223903  74.8671622  39.5331134
  90.2086992  74.4491045  39.1821551  89.6862607  75.7717714  39.7012782
  89.5933980  80.3044472  34.2319791  88.9579813  80.3779098  34.9440695
  89.2631386  80.8938071  33.5538870  94.8232330  74.8046855  40.4364112
  95.5557502  74.2346072  40.6701942  94.0671686  74.4168455  40.8770618
  84.0976909  77.7663949  33.9280766  83.9813167  77.0908853  34.5961850
  84.2079168  77.2796323  33.1112919  86.4408450  77.2274096  37.6327455
  86.0766657  76.7004717  38.3440376  87.2975565  76.8372565  37.4593940
  92.3457750  68.5168429  44.8958721  92.0141075  69.3863840  44.6719936
  91.7503364  68.2004713  45.5752751  86.0813937  72.2563996  32.6288803
  86.2488339  73.1244232  32.9959274  85.8911106  72.4191278  31.7050093
  88.8389270  80.7180975  44.2954634  88.5389993  81.6206014  44.1870441
  88.4940329  80.4513158  45.1475787  82.2901751  77.1694772  40.3291338
  81.3652248  77.0370986  40.5369030  82.5386164  77.9488991  40.8261281
  92.2386413  73.2363515  41.9752071  91.3303291  73.1678924  41.6810832
  92.1874009  73.7135460  42.8033897  86.0603157  74.7121654  33.6135470
  85.9402783  75.1578704  34.4520950  85.3655746  75.0606971  33.0549008
  79.6510562  76.8128045  41.1635127  79.7802943  77.0662524  42.0774539
  78.9708014  77.4055753  40.8439782  83.8210049  87.4825295  37.2625601
  83.7434079  88.4333120  37.3414082  83.2171693  87.1371168  37.9200528
  86.3127279  74.6553161  49.9186968  85.5360613  75.2147081  49.9089833
  86.9517842  75.1409944  50.4401838  94.1048060  71.4379954  43.7529945
  93.4622440  71.7312487  43.1069740  93.6002988  71.3232874  44.5583142
  91.7588224  75.1843127  34.4415804  92.6706080  75.4170513  34.2663502
  91.2497871  75.7680171  33.8790883  84.5673652  77.4638614  49.4804935
  85.3088336  78.0023658  49.2039759  83.8610637  78.0904903  49.6376487
  90.0428991  79.6067755  48.0777097  90.4512347  79.1650165  47.3331729
  89.3206253  79.0320382  48.3311290  86.3960061  74.5440361  45.4510654
  87.2421256  74.9679775  45.5945303  86.3358699  73.8873986  46.1449217
  90.3657806  80.1668945  41.8329386  89.7366668  80.3314659  41.1305454
  89.9783468  80.5810555  42.6040350  94.2447038  81.1023383  39.1873749
  93.5598076  81.4822284  38.6370783  94.3290887  81.7118710  39.9205697
  89.5459507  72.2044730  47.1091827  89.3020438  72.9586790  46.5726103
  89.8219437  72.5830077  47.9439074  91.4997969  78.7483342  45.7869093
  91.7114865  79.3915102  45.1103474  91.4527718  77.9145659  45.3191023
  89.1024198  71.3601163  42.6905665  88.2408677  71.6582416  42.9822403
  89.1286633  71.5771562  41.7586698  85.9185768  79.9043353  39.0979471
  86.3824113  80.1831056  38.3084093  85.6542566  79.0026798  38.9152561
  82.8109849  79.4514835  42.0359234  83.3811206  79.8802103  41.3976719
  83.4017961  79.1697420  42.7343420  84.8554654  76.0266506  35.9069036
  85.5578697  76.4787549  36.3742962  84.5235282  75.3850324  36.5348929
  83.3035015  74.6178262  50.2820245  82.6733676  75.2994543  50.5155642
  83.1971103  74.5061344  49.3373384  78.5979988  74.2850058  41.2086170
  77.8079042  74.5407587  40.7326280  79.0891235  75.0998396  41.3138210
  92.6143797  81.6255297  43.9591450  93.4361241  81.2235485  43.6774132
  92.6106200  81.5223532  44.9107566  80.5494733  74.6494638  38.1669646
  79.7525896  74.7613332  38.6853142  80.3220325  74.9881290  37.3010537
  86.3800401  81.1739341  46.1152161  86.4444833  81.6359748  46.9510333
  85.6711325  80.5436706  46.2434471  76.8817691  74.5380549  43.6401160
  77.1325729  75.4227559  43.9058736  77.4177239  74.3585150  42.8676252
 100.7049790  77.9694046  40.3076422  99.9513499  77.4001444  40.1520426
 100.8397332  77.9356710  41.2547057  86.0948418  82.8407448  35.9831141
  85.9594093  83.6858984  36.4115989  86.6358231  83.0426726  35.2197075
  82.5815758  68.9199028  52.6445496  82.1882704  68.3665227  53.3193141
  83.3981898  69.2309607  53.0352014  79.5477816  80.3582886  36.5559066
  80.0602336  81.1526137  36.7064631  80.2000529  79.6609177  36.4892668
  81.3572700  83.4748643  38.6381819  81.5339329  84.3966607  38.4502803
  82.1529534  83.1607062  39.0676199  85.4983719  70.3356907  50.2365753
  86.2393432  70.9364060  50.1570215  85.7301642  69.5934545  49.6783796
  80.6425057  75.5213274  48.5143983  80.5278572  74.6198532  48.8151082
  79.7869575  75.7676971  48.1628799  87.7216895  83.4631015  50.1131483
  87.2780749  82.6767393  49.7952388  88.3834108  83.6510165  49.4475374
  82.4804016  84.9926816  44.6392162  83.0311441  84.8643880  43.8669156
  81.6415492  85.2921705  44.2887055  89.8198133  83.7433815  48.1412885
  89.8016608  84.5642696  47.6493154  90.7418053  83.6187890  48.3663026
  86.2771187  81.2577944  48.9836393  86.8099524  80.4966232  48.7535701
  85.7485268  80.9651596  49.7260547  89.4440882  66.3638010  44.5130035
  89.1005151  67.2539652  44.4369145  89.8119845  66.1739668  43.6499620
  77.5126733  78.6871541  37.3318637  78.3501955  79.0968549  37.1152345
  77.6905000  77.7470983  37.3018831  89.4091165  76.3546621  33.0202470
  88.8937788  77.1251226  33.2590857  89.1368473  75.6811757  33.6435531
  86.9938276  71.1996322  38.0787708  86.1379872  70.8103172  37.8993347
  87.4065227  71.2788283  37.2187494  88.5237422  68.7342665  42.4779268
  88.0202218  68.6972800  41.6647073  88.8168029  69.6435408  42.5375925
  84.7680308  68.8181395  41.4845450  85.6333305  68.6224204  41.1251339
  84.8357817  68.5891747  42.4114806  94.3825439  79.1078976  34.9555643
  93.6054882  78.7690135  34.5110805  95.0616920  79.1131599  34.2810608
  89.1977468  74.2273713  34.8462251  88.8927603  74.5419863  35.6972394
  90.1507910  74.3055133  34.8889584  87.6423900  80.3863937  36.4955205
  87.1145261  79.6516696  36.1828442  87.1411402  81.1638613  36.2495173
  92.6216746  78.5812957  41.6122251  91.9640420  79.2712219  41.7002380
  93.4257145  78.9709389  41.9556238  82.3742627  71.0483603  38.8561816
  82.9486379  70.8258784  38.1235009  82.9613610  71.1172297  39.6090418
  91.4322205  76.9357330  39.6626193  91.9454086  77.5687322  40.1647903
  92.0823428  76.3358525  39.2969553  82.7012214  73.0788064  32.8757702
  81.8649527  73.4162751  33.1966976  82.5616984  72.9437044  31.9384839
  84.6765295  67.9224852  37.5836886  84.0229707  67.6073869  36.9593501
  84.6345769  67.3000592  38.3096709  85.7876500  78.2044147  29.4990178
  84.8803562  77.9733400  29.6981327  86.2847532  77.4081766  29.6864159
  88.6944579  86.9141654  32.4186864  88.0206278  87.2173351  33.0271822
  89.0810401  87.7170734  32.0692321  87.9103035  74.4106785  41.9084533
  86.9925597  74.6321732  41.7506222  88.3263179  74.4853096  41.0496241
  88.6938083  75.8098201  37.0387214  89.4409902  76.3219598  36.7294336
  88.9629673  75.4882254  37.8991607  86.9664733  78.3056742  34.0214168
  86.0575953  78.0215775  34.1186638  86.9959817  78.7255820  33.1617475
  92.1984001  81.9163331  37.7905336  91.7446328  81.0754241  37.8470526
  91.5677967  82.5524730  38.1280116  91.1416920  72.8455317  39.0206003
  90.4039677  72.3332704  39.3516246  91.3943694  72.4055699  38.2089280
  90.6416940  83.7539828  38.7255154  90.9339914  84.3144885  38.0067519
  91.1515561  84.0468389  39.4808313  91.2428548  65.6231569  39.6147772
  91.5487424  64.7628933  39.3273687  91.9681152  66.2149190  39.4146766
  77.5352904  76.0262256  38.0029370  77.3377304  75.4331617  37.2780437
  76.9799568  75.7214466  38.7205309  85.5149627  75.9185362  40.1223963
  85.5698237  74.9659199  40.0466440  84.7040829  76.0744801  40.6065262
  86.6640821  79.8465485  31.3602247  86.2260251  79.1301344  30.9007884
  87.4051262  80.0741600  30.7987338  83.4541987  74.5362422  37.8814342
  82.6409853  74.8356593  38.2879534  83.9500981  74.1418111  38.5988824
  85.6050565  84.5320179  39.8148607  85.5626744  84.7581025  38.8857139
  86.5213264  84.2983554  39.9634408  89.0516199  75.0004247  46.7129236
  89.4065587  75.2275720  47.5723702  89.6988330  75.3322623  46.0906491
  94.7813936  78.1222682  37.4178565  94.6431834  78.3124278  36.4899754
  94.4250155  78.8842065  37.8746616  82.9456062  72.1080778  43.4975577
  83.5855441  71.9669537  42.7998541  82.1133593  71.8215291  43.1214179
  94.8083316  80.1899209  42.4289837  95.2419822  80.0974499  43.2772891
  95.5214896  80.1656710  41.7909853  83.7216366  81.4083208  39.6110570
  84.5156964  80.9133528  39.4093145  83.0108058  80.8801071  39.2478275
  88.5411210  83.7901304  43.9622937  88.5948233  84.3592240  44.7300653
  87.6725992  83.9603189  43.5976974  80.0299129  75.5526290  35.6870322
  79.0996718  75.4910745  35.9040284  80.1256601  75.0302243  34.8906964
  79.9484678  72.0781103  38.2748564  80.2091496  72.9926436  38.1657724
  80.7701851  71.6105545  38.4245177  81.4209604  73.4918860  45.4447389
  82.0932657  73.2836222  44.7960037  80.5939390  73.2940946  45.0052621
  95.6698865  80.2322910  44.9622722  95.8634755  81.1368721  45.2081997
  95.5699483  79.7730329  45.7961307  87.3235176  70.1180801  47.4613049
  86.6763091  70.8170750  47.3677526  88.0936191  70.5516945  47.8289298
  90.7313974  80.3829653  50.5363603  90.5799480  80.1540205  49.6193686
  90.7218653  81.3400254  50.5494948  87.4999310  77.9561566  45.5209869
  88.4291370  78.1072725  45.3478836  87.0790340  78.0445586  44.6658516
  86.2987642  81.9812230  43.2908407  86.1598728  81.6131014  44.1634345
  85.5102238  82.4959869  43.1192365  86.8935794  87.0821327  34.6333943
  87.0687550  86.6109370  35.4479566  86.2068582  87.7087093  34.8615204
  87.8492857  81.3593833  40.6797245  87.5142690  81.3194603  41.5754894
  87.3496803  80.6938549  40.2067655  81.8237101  76.7661463  46.2049826
  81.6856899  76.0341702  46.8061365  82.7342025  76.6770363  45.9234013
  90.7852049  78.7049867  30.9534304  90.1681219  77.9796695  30.8567357
  90.3168537  79.4659227  30.6101378  84.4519402  76.4781422  45.6933505
  85.1619020  75.8374614  45.6520124  84.4088710  76.7294317  46.6159686
  92.4406180  83.4148775  48.6140085  92.3818727  82.7307996  47.9470668
  92.8425699  84.1567765  48.1620711  83.1648336  73.4646640  47.5129145
  82.6285693  73.0137378  48.1650741  82.5765044  73.5992549  46.7699609
  81.4596879  90.2310689  41.4073803  81.6993477  90.8629213  42.0852822
  80.6166076  89.8798729  41.6939163  82.5750595  72.9235291  30.0755608
  81.6980061  72.8024092  29.7117855  83.0508348  72.1321370  29.8234497
  92.4423588  81.3788359  46.8454064  91.5550366  81.0414281  46.9680463
  93.0122139  80.6471391  47.0822830  74.0952735  77.7112451  40.1697116
  74.7823775  77.3974181  39.5818131  73.9400863  78.6153816  39.8964367
  78.8987457  72.6002648  44.5982139  78.8145646  71.9928317  43.8632549
  78.0770163  73.0911666  44.5991636  85.9724741  86.0389812  43.8115307
  85.8994913  86.8444783  44.3234612  85.5302134  86.2381778  42.9863329
  85.7614521  85.2761582  37.3218129  84.9782043  85.8183262  37.4156353
  86.4607266  85.7935561  37.7212370  89.0711171  71.0856211  39.9652334
  89.5679870  70.3326174  39.6453405  88.2998152  71.1220528  39.3995544
  96.9240928  76.7896577  41.6070626  96.9130804  77.6721292  41.2364559
  96.0558308  76.4368128  41.4125163  88.4323425  85.9376646  45.9673466
  89.1451397  86.5724111  45.8949368  87.9413453  86.0340512  45.1513468
  90.1540951  79.8427898  37.5390758  89.2197230  79.9629361  37.3695462
  90.3317620  78.9400365  37.2750768  85.6546140  73.2273594  39.6924019
  85.2843927  72.6744635  40.3804925  86.1505232  72.6231728  39.1399019
  93.5413503  75.6845218  38.0740792  94.0073955  76.5173209  38.0001095
  93.9921003  75.2190199  38.7786050  83.4835338  83.6871089  46.7879037
  84.1844798  84.3207572  46.9408431  83.0130453  84.0285821  46.0274676
  91.6089734  82.0289039  35.0726944  91.8849578  81.9145634  35.9820818
  90.7394233  81.6306524  35.0339117  91.5130166  68.0525805  42.1131693
  90.5993245  68.2830032  42.2813900  91.9423267  68.1364249  42.9645726
  91.2836624  76.2415697  44.6131587  90.6308074  76.4891604  43.9584040
  91.6617004  75.4279835  44.2794065  88.2443798  86.2775390  38.7159758
  88.4266192  85.4597046  39.1787510  89.0676784  86.4943082  38.2784648
  88.5785963  85.2043575  35.9774806  89.1073730  84.6936030  35.3644968
  88.8414183  84.8886105  36.8420339  87.3324197  76.9835508  51.0997624
  86.6564834  76.8829637  51.7700000  88.1551831  76.8274721  51.5633622
  79.0803056  83.2207444  43.7210140  79.6656493  82.4751132  43.8538044
  78.8827895  83.5311401  44.6046803  81.9341711  86.2558692  38.7372582
  81.2652087  86.7404819  38.2536622  81.7954581  86.5027912  39.6515961
  73.6720711  75.7913044  42.4414583  73.7104810  75.2576635  43.2351701
  73.1661004  75.2648250  41.8225560  86.0746980  88.2902435  45.3355240
  86.6265288  88.4534057  46.1004326  86.4153173  88.8806873  44.6635265
  81.0511473  70.6377585  45.9377125  81.1152800  71.4992416  45.5254523
  80.9878593  70.0251587  45.2049484  80.5263746  72.7100718  49.5850159
  81.1535785  72.3277795  50.1987684  79.6691665  72.4914919  49.9505852
  90.9257854  83.1163693  51.1903895  91.4697758  83.7293651  50.6958850
  90.3444699  83.6743271  51.7070908  77.3029288  74.5177147  35.5168514
  77.5982730  73.6087825  35.4635568  76.4017324  74.4964886  35.1949516
  89.2115367  86.2384411  42.3218923  89.0866507  85.4374151  41.8129868
  89.8694458  86.7330604  41.8332892  80.8323535  72.5933143  41.4996063
  80.1110121  73.2069111  41.3603536  81.6216791  73.1290908  41.4212709
  91.2750276  84.0393431  43.9498473  90.3280611  83.9198782  43.8776799
  91.6233049  83.1515929  44.0324734  83.6349849  69.9287570  47.7736714
  84.1584251  70.1749866  48.5363024  83.4162182  70.7607605  47.3539852
  79.0317130  72.1991244  35.6407839  78.7029836  71.3188623  35.4582945
  79.3856501  72.1438913  36.5284229  88.2796709  83.8346147  40.1502825
  88.1321671  82.9062854  40.3310395  89.1050202  83.8566238  39.6659900
  82.1458953  72.4864214  36.0083317  82.4855026  73.0150135  35.2861925
  82.5931074  72.8244620  36.7841884  91.8830831  84.6574706  41.2367698
  92.8077378  84.4517567  41.0992149  91.7146134  84.4091107  42.1457039
  84.8402394  70.8701265  45.4586385  84.4999214  70.0709078  45.8607065
  84.1341400  71.1702976  44.8863218  85.4918866  67.9550577  43.9113708
  86.3144935  67.4811055  43.7892598  85.7356929  68.7341061  44.4112394
  84.1327100  70.9838836  34.2076610  84.8535463  71.3620088  33.7040327
  83.5092404  71.7027713  34.3111588  88.2758223  71.6883985  35.1434942
  88.4921838  72.5708623  34.8423770  87.7952290  71.2970198  34.4140584
  83.0157445  74.6469698  41.7205687  82.8702025  74.9610001  42.6129968
  82.5382648  75.2654598  41.1676585  84.8753828  71.6372246  41.7686576
  84.8615396  70.7413339  41.4318874  85.5926256  71.6442910  42.4024862
  86.7279958  72.0709586  43.8139704  86.4697736  72.9926657  43.8124034
  86.1964999  71.6740021  44.5040168  91.6726147  85.1760373  36.5929789
  91.8463025  84.6106796  35.8403641  92.1655038  85.9761268  36.4109279
  77.4903107  77.1875042  44.6593348  76.9456575  77.9634850  44.7913622
  78.3682457  77.5345847  44.5012469  84.2790723  70.5186626  37.0374146
  84.4006635  69.5903272  37.2365034  83.9892766  70.5325312  36.1252462
  87.1481914  68.2041537  40.1740866  87.1703611  68.2680870  39.2192846
  87.5649973  67.3646045  40.3681372  97.5265538  77.9396796  38.2120089
  97.9696684  77.1904121  37.8139212  96.6492048  77.9306933  37.8293821
  92.6601319  84.4927138  33.6926687  93.3552224  85.1133830  33.9114002
  93.0024470  83.6422489  33.9679065  78.2769129  76.3144939  47.5523505
  77.5350865  76.4627574  48.1388135  77.9561873  76.5753204  46.6890254
  94.5592743  81.9426843  35.2214018  95.0844067  82.2814116  34.4963338
  94.4715095  81.0073858  35.0377153  86.2212791  85.8560917  47.3503895
  86.5299918  85.6110064  48.2226594  87.0188273  86.0607555  46.8622765
  86.2433403  88.0098826  39.5809271  85.8038394  87.5175205  40.2742128
  86.9941520  87.4671794  39.3401346  78.7225742  84.2010367  39.5833899
  79.5483762  83.9014139  39.2032543  78.3719794  83.4317990  40.0323688
  83.6907276  83.5536836  41.6531573  83.0687285  82.8907541  41.3533801
  84.3612142  83.5797967  40.9705221  76.9234347  82.1196694  40.5422833
  76.0866256  81.6918868  40.3606834  76.8957993  82.3129137  41.4793624
  83.7631803  72.0318624  51.2464079  83.8119958  72.9080746  50.8641849
  84.3054317  71.4896017  50.6735722  94.2486649  82.5759747  50.5265216
  93.4582192  82.5583886  49.9869715  94.0120003  83.1148040  51.2814253
  94.3684524  79.4252213  47.8397945  94.4182529  79.2602221  48.7813467
  94.2598447  78.5579472  47.4495825  83.2520782  82.1040759  35.1290033
  83.4008903  82.7876223  34.4756706  84.0587226  82.0845849  35.6439489
  91.6588286  75.4083141  49.1557251  92.5598149  75.2689606  48.8641249
  91.7336261  75.5737596  50.0955429  85.9931091  72.7849996  48.0010438
  85.1234401  73.0783562  47.7293026  86.2290572  73.3690441  48.7217701
  95.8702721  81.8449155  48.0839966  95.5787529  82.2079135  48.9203427
  95.2574852  81.1316163  47.9053298  97.0698403  79.4102034  40.6042536
  97.9045294  79.8491839  40.7680097  97.2057532  78.9340688  39.7850782
  94.1189909  76.9681769  46.5520024  94.5944030  77.1609416  45.7438875
  93.1955474  77.0240955  46.3063408  81.0073415  78.1305936  36.1351102
  80.7619457  77.2268266  36.3331313  81.1769330  78.1323087  35.1930580
  88.6970125  69.0029613  45.5175858  89.2152069  69.7390640  45.1922347
  88.3425258  69.3093606  46.3522617  80.2769063  73.8634294  33.6337264
  79.5838308  73.9378649  32.9777300  80.0320815  73.0994638  34.1558781
  88.9482719  65.4229895  41.0376755  89.2284473  64.7553084  41.6637181
  89.7333326  65.6158991  40.5251418  86.7516188  84.5988889  32.6001781
  86.1790155  85.2179076  32.1472253  87.3248982  85.1488251  33.1341703
  92.8191578  73.8447529  44.7848330  93.7709001  73.9445627  44.8060554
  92.6495028  73.0525798  45.2946414  90.8405957  70.9303113  44.9707731
  90.2455889  71.2108125  44.2754219  90.5555654  71.4197014  45.7424472
  89.9713448  84.8826039  33.7310363  90.9044121  84.8171601  33.9343239
  89.8836661  85.7182306  33.2724896  92.6001464  84.1991910  30.6914311
  92.5215096  83.8651773  31.5850069  93.4211131  84.6913678  30.6905783
  95.2979656  77.0653649  43.8990629  95.2655976  76.1269650  44.0850313
  95.9080279  77.1437686  43.1656454  87.1362986  75.9349702  29.9417833
  88.0822091  75.8055910  30.0106251  86.7577231  75.1964364  30.4187262
  95.4474144  73.8564692  43.9448913  94.9313193  73.0723149  43.7578841
  96.3314093  73.5283409  44.1095432  93.1084871  67.6005708  39.9044725
  92.9109692  67.2920796  40.7888057  93.7184577  68.3267347  40.0342655
 101.1156205  78.1269656  43.0396666 101.8459594  77.8654944  43.6004369
 100.5063151  77.3898378  43.0798734  99.1971503  76.2677518  43.6371117
  98.4704666  76.1333483  43.0287609  98.7818789  76.5754347  44.4427835
  87.0201679  79.9867448  51.4018490  87.9404688  80.1646047  51.5958537
  86.9851262  79.0423494  51.2498190  85.3205904  73.8599678  29.8772719
  84.4137359  73.5632791  29.9535432  85.5981885  73.5629497  29.0107005
  76.2383844  75.1806042  40.3271765  75.9186628  74.3271350  40.0346139
  75.6917272  75.3954620  41.0829732  80.0163752  77.8968483  44.0441272
  80.2349761  78.8285591  44.0629305  80.4289525  77.5376457  44.8296075
  86.9367969  68.4036568  36.0316960  86.1268698  68.0583653  36.4072206
  87.6252386  68.0944112  36.6204571  88.8658518  67.4814615  37.6541257
  89.4189556  67.9010068  38.3131280  89.1028604  66.5550363  37.6964213
  84.8891617  73.4701689  53.4344020  84.7888344  74.4196046  53.3656112
  84.6713159  73.1419927  52.5620091  84.0904688  70.7186614  30.0184698
  84.9523852  71.0441512  30.2780515  84.2755032  69.9318110  29.5057764
  76.1072104  78.8008953  42.2964887  75.4135575  78.3862906  41.7834841
  76.8545095  78.8429490  41.6998306  92.2437325  69.5915140  37.1619921
  91.6635994  70.2499944  36.7797973  91.9773257  68.7692485  36.7507338
  90.6940891  68.9920198  39.3641241  91.1940669  69.1036732  38.5555560
  91.3376499  68.6881251  40.0042050  84.7522887  76.8998827  52.2509082
  84.2689969  77.6999188  52.4572971  84.8383826  76.9106772  51.2976526
  78.0208846  78.7327207  40.1730901  77.9979535  78.8314894  39.2212785
  78.3309483  79.5792358  40.4948068  80.6796224  80.7903362  44.2877516
  81.6339478  80.7587304  44.2207447  80.4808748  80.3293986  45.1027742
  81.2695607  79.3604478  46.8548314  82.0888495  79.8548557  46.8783151
  81.5432414  78.4436446  46.8265881  91.0262203  71.7515230  36.2176269
  90.1388058  72.0364881  35.9996464  91.4416192  71.5908994  35.3703546
  94.3776739  71.7761751  39.9330608  95.1537129  72.2658204  40.2055225
  93.6524873  72.2019806  40.3902478  96.8149297  72.4889371  40.9904549
  97.4093788  72.2485107  40.2797857  96.8875881  71.7696501  41.6178085
  79.0346453  86.3322982  41.3047714  78.9000921  85.5723383  40.7385712
  78.6178515  87.0563881  40.8376503  90.1705416  81.5159905  30.3124289
  90.8741266  81.7209908  30.9281945  89.4468065  82.0836667  30.5773373
  91.0003226  77.2669766  36.4326559  90.9438428  77.7238318  35.5934192
  91.5531569  76.5060451  36.2549402  94.8108032  73.0559498  37.2576679
  94.5544967  72.6556134  38.0884886  94.1860900  73.7703292  37.1326818
  99.1220370  75.7955572  39.7647970  98.5619928  75.8648761  40.5379532
  98.5163874  75.6196556  39.0447466  82.1915579  87.2292299  41.5166156
  82.0747963  88.1737731  41.4144847  81.3708025  86.9265860  41.9051956
  92.0792114  81.9542434  32.3622749  92.9137718  81.5223633  32.1800224
  91.9176456  81.7824448  33.2899644  91.7338006  78.4574548  33.7279088
  91.6786810  78.2918819  32.7867533  91.1084061  79.1650581  33.8841278
  76.5230521  73.6942612  47.5540511  77.1689384  73.1841566  48.0427736
  76.3147672  74.4311294  48.1283936  89.0483913  80.7623460  53.0532651
  89.9175073  80.9364112  52.6919286  88.5690664  81.5817876  52.9308381
  85.0434131  67.9582657  33.3064407  85.0312801  68.9024497  33.4632678
  85.9357553  67.7752802  33.0123868  83.2170093  87.8820561  44.7322085
  84.1197340  87.9144171  45.0488580  82.9907463  86.9521011  44.7468421
  84.9723695  86.6351547  41.3932163  84.0219326  86.6353409  41.2796536
  85.2756181  85.8884282  40.8768198  88.8586251  64.5525433  37.5610344
  88.0918646  63.9983920  37.7067026  89.2696956  64.6247302  38.4224495
  80.8628012  70.8410229  51.6515525  81.7259473  70.4847034  51.8618849
  80.2893422  70.5024124  52.3390929 100.7076389  92.4712085  42.4577926
 101.3454799  92.3518833  41.7541266 100.5897232  93.4192929  42.5165878
  97.5166095  92.4239514  42.3939451  97.1784606  92.3080578  41.5059985
  98.3855863  92.0230679  42.3740457  93.3752911  94.2774990  38.3836342
  92.8117776  94.1864927  37.6152629  93.2605306  93.4574894  38.8638834
  97.9985878  93.5774365  48.3525656  97.9874519  93.1827164  47.4806160
  98.1606517  92.8440438  48.9459428  90.9217343  95.7726182  41.2220562
  91.7138635  95.4317006  40.8066861  91.1613993  95.8821157  42.1422715
  98.9552469  97.9445958  33.6950806  98.3040449  98.5300038  33.3084820
  99.7496832  98.4752153  33.7545844  92.8808097  95.0335095  34.0937941
  93.6538973  94.4864082  33.9550817  93.2333495  95.8979344  34.3052402
  94.7193139  96.3611477  47.3004840  94.4283005  97.2657108  47.1851506
  95.3550123  96.4028005  48.0148910  95.6449346  93.7388326  43.8906200
  96.2412918  93.5144348  43.1763163  95.7024317  92.9973071  44.4931648
  95.2174374  91.1927761  31.7256391  95.4699895  90.6709282  30.9639854
  94.2798933  91.0293906  31.8283074 100.2617657  90.1963539  39.5331134
 101.0480746  89.7782962  39.1821551 100.5256361  91.1009632  39.7012782
 100.4327735  95.6336390  34.2319791  99.7973567  95.7071016  34.9440695
 100.1025141  96.2229988  33.5538870 105.6626084  90.1338773  40.4364112
 106.3951256  89.5637989  40.6701942 104.9065440  89.7460373  40.8770618
  94.9370663  93.0955867  33.9280766  94.8206921  92.4200770  34.5961850
  95.0472923  92.6088241  33.1112919  97.2802204  92.5566014  37.6327455
  96.9160411  92.0296635  38.3440376  98.1369320  92.1664483  37.4593940
 103.1851505  83.8460347  44.8958721 102.8534829  84.7155758  44.6719936
 102.5897118  83.5296631  45.5752751  96.9207691  87.5855914  32.6288803
  97.0882093  88.4536150  32.9959274  96.7304860  87.7483195  31.7050093
  99.6783024  96.0472893  44.2954634  99.3783747  96.9497931  44.1870441
  99.3334084  95.7805076  45.1475787  93.1295506  92.4986689  40.3291338
  92.2046002  92.3662904  40.5369030  93.3779919  93.2780909  40.8261281
 103.0780168  88.5655433  41.9752071 102.1697045  88.4970841  41.6810832
 103.0267764  89.0427378  42.8033897  96.8996912  90.0413571  33.6135470
  96.7796537  90.4870622  34.4520950  96.2049500  90.3898889  33.0549008
  90.4904317  92.1419963  41.1635127  90.6196698  92.3954442  42.0774539
  89.8101768  92.7347671  40.8439782  97.1521034  89.9845078  49.9186968
  96.3754368  90.5438999  49.9089833  97.7911597  90.4701861  50.4401838
 104.9441814  86.7671871  43.7529945 104.3016195  87.0604404  43.1069740
 104.4396743  86.6524792  44.5583142 102.5981978  90.5135044  34.4415804
 103.5099834  90.7462431  34.2663502 102.0891625  91.0972089  33.8790883
  95.4067406  92.7930532  49.4804935  96.1482090  93.3315576  49.2039759
  94.7004392  93.4196821  49.6376487 100.8822746  94.9359672  48.0777097
 101.2906102  94.4942083  47.3331729 100.1600007  94.3612300  48.3311290
  97.2353816  89.8732279  45.4510654  98.0815011  90.2971693  45.5945303
  97.1752453  89.2165903  46.1449217 101.2051560  95.4960863  41.8329386
 100.5760423  95.6606577  41.1305454 100.8177222  95.9102472  42.6040350
 100.3853261  87.5336647  47.1091827 100.1414193  88.2878708  46.5726103
 100.6613192  87.9121995  47.9439074 102.3391724  94.0775260  45.7869093
 102.5508619  94.7207020  45.1103474 102.2921472  93.2437576  45.3191023
  99.9417953  86.6893080  42.6905665  99.0802432  86.9874334  42.9822403
  99.9680387  86.9063479  41.7586698  96.7579522  95.2335271  39.0979471
  97.2217868  95.5122974  38.3084093  96.4936320  94.3318716  38.9152561
  93.6503603  94.7806752  42.0359234  94.2204960  95.2094021  41.3976719
  94.2411715  94.4989337  42.7343420  95.6948408  91.3558423  35.9069036
  96.3972452  91.8079467  36.3742962  95.3629037  90.7142242  36.5348929
  94.1428770  89.9470180  50.2820245  93.5127430  90.6286461  50.5155642
  94.0364858  89.8353262  49.3373384  89.4373742  89.6141976  41.2086170
  88.6472796  89.8699505  40.7326280  89.9284990  90.4290314  41.3138210
  91.3888488  89.9786555  38.1669646  90.5919651  90.0905249  38.6853142
  91.1614080  90.3173207  37.3010537  97.2194155  96.5031258  46.1152161
  97.2838588  96.9651666  46.9510333  96.5105079  95.8728623  46.2434471
  87.7211445  89.8672466  43.6401160  87.9719484  90.7519476  43.9058736
  88.2570994  89.6877068  42.8676252  96.9342173  98.1699366  35.9831141
  96.7987848  99.0150902  36.4115989  97.4751985  98.3718644  35.2197075
  93.4209513  84.2490946  52.6445496  93.0276458  83.6957144  53.3193141
  94.2375653  84.5601524  53.0352014  90.3871570  95.6874804  36.5559066
  90.8996091  96.4818054  36.7064631  91.0394283  94.9901094  36.4892668
  92.1966455  98.8040560  38.6381819  92.3733083  99.7258525  38.4502803
  92.9923289  98.4898979  39.0676199  96.3377474  85.6648825  50.2365753
  97.0787187  86.2655978  50.1570215  96.5695396  84.9226463  49.6783796
  91.4818812  90.8505192  48.5143983  91.3672327  89.9490449  48.8151082
  90.6263329  91.0968889  48.1628799  93.3197770 100.3218734  44.6392162
  93.8705196 100.1935797  43.8669156  92.4809246 100.6213623  44.2887055
  97.1164941  96.5869862  48.9836393  97.6493278  95.8258150  48.7535701
  96.5879023  96.2943514  49.7260547 100.2834636  81.6929928  44.5130035
  99.9398906  82.5831569  44.4369145 100.6513599  81.5031585  43.6499620
  88.3520487  94.0163458  37.3318637  89.1895709  94.4260467  37.1152345
  88.5298755  93.0762900  37.3018831 100.2484919  91.6838539  33.0202470
  99.7331543  92.4543144  33.2590857  99.9762228  91.0103675  33.6435531
  97.8332030  86.5288240  38.0787708  96.9773627  86.1395090  37.8993347
  98.2458982  86.6080200  37.2187494  99.3631177  84.0634583  42.4779268
  98.8595972  84.0264718  41.6647073  99.6561784  84.9727326  42.5375925
  95.6074063  84.1473313  41.4845450  96.4727059  83.9516121  41.1251339
  95.6751572  83.9183664  42.4114806 100.0371222  89.5565631  34.8462251
  99.7321358  89.8711780  35.6972394 100.9901664  89.6347051  34.8889584
  98.4817654  95.7155854  36.4955205  97.9539016  94.9808614  36.1828442
  97.9805157  96.4930531  36.2495173 103.4610500  93.9104875  41.6122251
 102.8034175  94.6004136  41.7002380 104.2650899  94.3001307  41.9556238
  93.2136382  86.3775521  38.8561816  93.7880134  86.1550702  38.1235009
  93.8007364  86.4464215  39.6090418 102.2715959  92.2649248  39.6626193
 102.7847841  92.8979239  40.1647903 102.9217183  91.6650443  39.2969553
  93.5405969  88.4079982  32.8757702  92.7043281  88.7454668  33.1966976
  93.4010739  88.2728961  31.9384839  95.5159050  83.2516770  37.5836886
  94.8623462  82.9365787  36.9593501  95.4739524  82.6292510  38.3096709
  96.6270254  93.5336065  29.4990178  95.7197316  93.3025318  29.6981327
  97.1241286  92.7373684  29.6864159  98.7496790  89.7398703  41.9084533
  97.8319351  89.9613650  41.7506222  99.1656934  89.8145014  41.0496241
  99.5331838  91.1390119  37.0387214 100.2803657  91.6511516  36.7294336
  99.8023427  90.8174171  37.8991607  97.8058488  93.6348659  34.0214168
  96.8969707  93.3507692  34.1186638  97.8353572  94.0547738  33.1617475
 101.9810675  88.1747235  39.0206003 101.2433432  87.6624621  39.3516246
 102.2337448  87.7347617  38.2089280 102.0822302  80.9523487  39.6147772
 102.3881179  80.0920850  39.3273687 102.8074907  81.5441107  39.4146766
  88.3746658  91.3554174  38.0029370  88.1771058  90.7623534  37.2780437
  87.8193322  91.0506384  38.7205309  96.3543382  91.2477280  40.1223963
  96.4091992  90.2951116  40.0466440  95.5434584  91.4036719  40.6065262
  97.5034576  95.1757403  31.3602247  97.0654006  94.4593262  30.9007884
  98.2445016  95.4033518  30.7987338  94.2935742  89.8654340  37.8814342
  93.4803607  90.1648510  38.2879534  94.7894736  89.4710029  38.5988824
  96.4444320  99.8612097  39.8148607  96.4020498 100.0872943  38.8857139
  97.3607019  99.6275471  39.9634408  99.8909953  90.3296164  46.7129236
 100.2459341  90.5567637  47.5723702 100.5382085  90.6614541  46.0906491
 105.6207690  93.4514600  37.4178565 105.4825589  93.6416196  36.4899754
 105.2643909  94.2133983  37.8746616  93.7849817  87.4372695  43.4975577
  94.4249196  87.2961454  42.7998541  92.9527347  87.1507209  43.1214179
  94.5610120  96.7375126  39.6110570  95.3550719  96.2425446  39.4093145
  93.8501813  96.2092989  39.2478275  90.8692884  90.8818207  35.6870322
  89.9390472  90.8202663  35.9040284  90.9650356  90.3594160  34.8906964
  90.7878433  87.4073020  38.2748564  91.0485250  88.3218354  38.1657724
  91.6095605  86.9397463  38.4245177  92.2603358  88.8210777  45.4447389
  92.9326412  88.6128140  44.7960037  91.4333145  88.6232863  45.0052621
  98.1628930  85.4472718  47.4613049  97.5156845  86.1462668  47.3677526
  98.9329946  85.8808862  47.8289298 101.5707728  95.7121571  50.5363603
 101.4193235  95.4832122  49.6193686 101.5612408  96.6692172  50.5494948
  98.3393065  93.2853483  45.5209869  99.2685125  93.4364643  45.3478836
  97.9184095  93.3737504  44.6658516  97.1381396  97.3104148  43.2908407
  96.9992482  96.9422932  44.1634345  96.3495993  97.8251787  43.1192365
  98.6886612  96.6885750  40.6797245  98.3536444  96.6486520  41.5754894
  98.1890557  96.0230466  40.2067655  92.6630856  92.0953380  46.2049826
  92.5250653  91.3633619  46.8061365  93.5735779  92.0062281  45.9234013
  95.2913156  91.8073340  45.6933505  96.0012775  91.1666532  45.6520124
  95.2482464  92.0586235  46.6159686  94.0042090  88.7938558  47.5129145
  93.4679447  88.3429296  48.1650741  93.4158799  88.9284467  46.7699609
  93.4144349  88.2527209  30.0755608  92.5373815  88.1316010  29.7117855
  93.8902102  87.4613287  29.8234497  84.9346489  93.0404369  40.1697116
  85.6217529  92.7266099  39.5818131  84.7794618  93.9445733  39.8964367
  89.7381211  87.9294565  44.5982139  89.6539400  87.3220235  43.8632549
  88.9163918  88.4203584  44.5991636  99.9104925  86.4148129  39.9652334
 100.4073625  85.6618091  39.6453405  99.1391907  86.4512446  39.3995544
 100.9934706  95.1719816  37.5390758 100.0590985  95.2921279  37.3695462
 101.1711374  94.2692283  37.2750768  96.4939894  88.5565512  39.6924019
  96.1237682  88.0036552  40.3804925  96.9898986  87.9523645  39.1399019
 104.3807257  91.0137135  38.0740792 104.8467710  91.8465127  38.0001095
 104.8314758  90.5482117  38.7786050  94.3229093  99.0163007  46.7879037
  95.0238552  99.6499490  46.9408431  93.8524208  99.3577738  46.0274676
 102.3523920  83.3817722  42.1131693 101.4387000  83.6121949  42.2813900
 102.7817022  83.4656166  42.9645726 102.1230379  91.5707614  44.6131587
 101.4701829  91.8183522  43.9584040 102.5010758  90.7571753  44.2794065
  98.1717952  92.3127425  51.0997624  97.4958589  92.2121555  51.7700000
  98.9945585  92.1566639  51.5633622  89.9196811  98.5499362  43.7210140
  90.5050247  97.8043050  43.8538044  89.7221649  98.8603319  44.6046803
  92.7735466 101.5850609  38.7372582  92.1045841 102.0696737  38.2536622
  92.6348336 101.8319830  39.6515961  84.5114465  91.1204962  42.4414583
  84.5498565  90.5868553  43.2351701  84.0054758  90.5940168  41.8225560
  91.8905228  85.9669503  45.9377125  91.9546554  86.8284334  45.5254523
  91.8272348  85.3543504  45.2049484  91.3657500  88.0392635  49.5850159
  91.9929539  87.6569713  50.1987684  90.5085419  87.8206837  49.9505852
  88.1423043  89.8469064  35.5168514  88.4376484  88.9379743  35.4635568
  87.2411079  89.8256804  35.1949516  91.6717290  87.9225061  41.4996063
  90.9503876  88.5361029  41.3603536  92.4610546  88.4582826  41.4212709
  94.4743604  85.2579487  47.7736714  94.9978005  85.5041784  48.5363024
  94.2555937  86.0899522  47.3539852  89.8710885  87.5283162  35.6407839
  89.5423591  86.6480541  35.4582945  90.2250255  87.4730831  36.5284229
  92.9852708  87.8156132  36.0083317  93.3248780  88.3442053  35.2861925
  93.4324828  88.1536538  36.7841884  95.6796149  86.1993183  45.4586385
  95.3392969  85.4000996  45.8607065  94.9735155  86.4994893  44.8863218
  96.3312620  83.2842495  43.9113708  97.1538690  82.8102973  43.7892598
  96.5750684  84.0632979  44.4112394  94.9720855  86.3130753  34.2076610
  95.6929217  86.6912006  33.7040327  94.3486159  87.0319630  34.3111588
  99.1151978  87.0175902  35.1434942  99.3315592  87.9000540  34.8423770
  98.6346045  86.6262116  34.4140584  93.8551199  89.9761616  41.7205687
  93.7095780  90.2901919  42.6129968  93.3776403  90.5946516  41.1676585
  95.7147582  86.9664164  41.7686576  95.7009151  86.0705257  41.4318874
  96.4320010  86.9734827  42.4024862  97.5673713  87.4001504  43.8139704
  97.3091491  88.3218574  43.8124034  97.0358753  87.0031938  44.5040168
  88.3296861  92.5166960  44.6593348  87.7850329  93.2926768  44.7913622
  89.2076211  92.8637764  44.5012469  95.1184478  85.8478544  37.0374146
  95.2400389  84.9195190  37.2365034  94.8286520  85.8617230  36.1252462
  97.9875668  83.5333454  40.1740866  98.0097365  83.5972787  39.2192846
  98.4043727  82.6937963  40.3681372  89.1162883  91.6436856  47.5523505
  88.3744619  91.7919492  48.1388135  88.7955627  91.9045122  46.6890254
  89.5619497  99.5302285  39.5833899  90.3877517  99.2306057  39.2032543
  89.2113549  98.7609907  40.0323688  94.5301030  98.8828753  41.6531573
  93.9081039  98.2199458  41.3533801  95.2005897  98.9089885  40.9705221
  87.7628102  97.4488611  40.5422833  86.9260010  97.0210786  40.3606834
  87.7351747  97.6421055  41.4793624  94.6025557  87.3610541  51.2464079
  94.6513713  88.2372664  50.8641849  95.1448072  86.8187934  50.6735722
  94.0914537  97.4332677  35.1290033  94.2402657  98.1168141  34.4756706
  94.8980980  97.4137767  35.6439489 102.4982041  90.7375059  49.1557251
 103.3991903  90.5981524  48.8641249 102.5730015  90.9029514  50.0955429
  96.8324846  88.1141914  48.0010438  95.9628155  88.4075480  47.7293026
  97.0684326  88.6982359  48.7217701 104.9583663  92.2973687  46.5520024
 105.4337785  92.4901333  45.7438875 104.0349229  92.3532873  46.3063408
  91.8467170  93.4597854  36.1351102  91.6013212  92.5560184  36.3331313
  92.0163084  93.4615005  35.1930580  99.5363880  84.3321531  45.5175858
 100.0545824  85.0682557  45.1922347  99.1819013  84.6385524  46.3522617
  91.1162817  89.1926212  33.6337264  90.4232062  89.2670567  32.9777300
  90.8714569  88.4286555  34.1558781  99.7876474  80.7521813  41.0376755
 100.0678228  80.0845002  41.6637181 100.5727081  80.9450909  40.5251418
 103.6585332  89.1739447  44.7848330 104.6102755  89.2737545  44.8060554
 103.4888783  88.3817716  45.2946414 101.6799712  86.2595030  44.9707731
 101.0849644  86.5400043  44.2754219 101.3949408  86.7488931  45.7424472
 106.1373410  92.3945567  43.8990629 106.1049730  91.4561567  44.0850313
 106.7474034  92.4729603  43.1656454  97.9756741  91.2641620  29.9417833
  98.9215846  91.1347828  30.0106251  97.5970986  90.5256282  30.4187262
 106.2867899  89.1856610  43.9448913 105.7706947  88.4015067  43.7578841
 107.1707847  88.8575327  44.1095432 103.9478625  82.9297626  39.9044725
 103.7503447  82.6212714  40.7888057 104.5578331  83.6559265  40.0342655
  97.8595433  95.3159366  51.4018490  98.7798443  95.4937965  51.5958537
  97.8245016  94.3715411  51.2498190  96.1599658  89.1891596  29.8772719
  95.2531113  88.8924709  29.9535432  96.4375639  88.8921414  29.0107005
  87.0777598  90.5097960  40.3271765  86.7580383  89.6563268  40.0346139
  86.5311027  90.7246538  41.0829732  90.8557506  93.2260401  44.0441272
  91.0743516  94.1577508  44.0629305  91.2683280  92.8668375  44.8296075
  97.7761724  83.7328486  36.0316960  96.9662452  83.3875571  36.4072206
  98.4646141  83.4236030  36.6204571  99.7052272  82.8106533  37.6541257
 100.2583311  83.2301986  38.3131280  99.9422358  81.8842281  37.6964213
  95.7285371  88.7993606  53.4344020  95.6282098  89.7487963  53.3656112
  95.5106913  88.4711845  52.5620091  94.9298443  86.0478531  30.0184698
  95.7917607  86.3733430  30.2780515  95.1148787  85.2610027  29.5057764
  86.9465858  94.1300871  42.2964887  86.2529330  93.7154824  41.7834841
  87.6938849  94.1721408  41.6998306 103.0831079  84.9207058  37.1619921
 102.5029748  85.5791862  36.7797973 102.8167012  84.0984402  36.7507338
 101.5334646  84.3212115  39.3641241 102.0334424  84.4328650  38.5555560
 102.1770253  84.0173168  40.0042050  95.5916641  92.2290745  52.2509082
  95.1083723  93.0291105  52.4572971  95.6777580  92.2398690  51.2976526
  88.8602601  94.0619125  40.1730901  88.8373289  94.1606812  39.2212785
  89.1703237  94.9084276  40.4948068  91.5189979  96.1195280  44.2877516
  92.4733232  96.0879222  44.2207447  91.3202502  95.6585904  45.1027742
  92.1089361  94.6896396  46.8548314  92.9282250  95.1840475  46.8783151
  92.3826169  93.7728364  46.8265881 101.8655957  87.0807148  36.2176269
 100.9781812  87.3656799  35.9996464 102.2809946  86.9200912  35.3703546
 105.2170493  87.1053669  39.9330608 105.9930883  87.5950122  40.2055225
 104.4918628  87.5311723  40.3902478 107.6543052  87.8181288  40.9904549
 108.2487543  87.5777024  40.2797857 107.7269636  87.0988419  41.6178085
  89.8740208 101.6614899  41.3047714  89.7394676 100.9015300  40.7385712
  89.4572270 102.3855799  40.8376503 101.8396981  92.5961684  36.4326559
 101.7832182  93.0530236  35.5934192 102.3925323  91.8352369  36.2549402
 105.6501787  88.3851416  37.2576679 105.3938721  87.9848052  38.0884886
 105.0254655  89.0995210  37.1326818 102.5731760  93.7866465  33.7279088
 102.5180564  93.6210737  32.7867533 101.9477816  94.4942498  33.8841278
  87.3624275  89.0234530  47.5540511  88.0083139  88.5133484  48.0427736
  87.1541426  89.7603211  48.1283936  99.8877667  96.0915377  53.0532651
 100.7568827  96.2656029  52.6919286  99.4084419  96.9109794  52.9308381
  95.8827886  83.2874574  33.3064407  95.8706556  84.2316414  33.4632678
  96.7751308  83.1044720  33.0123868  99.6980005  79.8817351  37.5610344
  98.9312401  79.3275838  37.7067026 100.1090710  79.9539220  38.4224495
  91.7021766  86.1702147  51.6515525  92.5653228  85.8138952  51.8618849
  91.1287177  85.8316042  52.3390929  40.5224368  -3.2785989  34.0250147
  40.2314234  -2.3740358  33.9096813  41.1581352  -3.2369461  34.7394216
  41.4480575  -5.9009140  30.6151506  42.0444147  -6.1253118  29.9008469
  41.5055546  -6.6424395  31.2176954  45.4814253  -3.5924573  31.0199940
  45.1814976  -2.6899534  30.9115748  45.1365312  -3.8592390  31.8721093
  40.4635033   3.1719747  23.9870908  40.3859062   4.1227572  24.0659389
  39.8596676   2.8265620  24.6445834  41.2098635  -6.8466934  36.2050242
  41.9513319  -6.3081890  35.9285066  40.5035620  -6.2200645  36.3621794
  46.6853974  -4.7037794  34.8022403  47.0937331  -5.1455383  34.0577036
  45.9631236  -5.2785166  35.0556596  47.0082789  -4.1436603  28.5574692
  46.3791652  -3.9790889  27.8550760  46.6208451  -3.7294993  29.3285656
  50.8872021  -3.2082165  25.9119056  50.2023059  -2.8283264  25.3616089
  50.9715870  -2.5986838  26.6451004  39.4534832  -4.8590713  28.7604541
  40.0236189  -4.4303445  28.1222025  40.0442944  -5.1408129  29.4588726
  49.2568781  -2.6850251  30.6836757  50.0786224  -3.0870063  30.4019439
  49.2531183  -2.7882016  31.6352873  43.0225384  -3.1366207  32.8397467
  43.0869817  -2.6745800  33.6755639  42.3136308  -3.7668842  32.9679777
  44.3641878  -0.8474533  36.8376790  43.9205732  -1.6338155  36.5197694
  45.0259092  -0.6595383  36.1720681  39.1228999   0.6821268  31.3637468
  39.6736424   0.5538332  30.5914462  38.2840475   0.9816157  31.0132361
  46.4623116  -0.5671733  34.8658191  46.4441591   0.2537148  34.3738460
  47.3843036  -0.6917658  35.0908332  42.9196170  -3.0527604  35.7081700
  43.4524507  -3.8139316  35.4781008  42.3910251  -3.3453952  36.4505854
  48.8408984  -2.3942217  24.5150642  48.3871311  -3.2351307  24.5715833
  48.2102951  -1.7580818  24.8525422  47.2841923  -0.5565720  25.4500460
  47.5764898   0.0039337  24.7312826  47.7940544  -0.2637159  26.2053619
  42.2475548   0.2214631  26.5393914  42.2051727   0.4475477  25.6102446
  43.1638247  -0.0121994  26.6879715  45.1836194  -0.5204245  30.6868244
  45.2373216   0.0486692  31.4545960  44.3150975  -0.3502359  30.3222281
  47.3738957  -3.9275895  37.2608909  47.2224463  -4.1565344  36.3438993
  47.3643637  -2.9705294  37.2740254  44.1424293  -6.3543982  32.2455176
  45.0716353  -6.2032823  32.0724143  43.7215323  -6.2659962  31.3903822
  42.9412625  -2.3293318  30.0153713  42.8023711  -2.6974534  30.8879652
  42.1527221  -1.8145679  29.8437671  44.4917840  -2.9511715  27.4042551
  44.1567673  -2.9910945  28.3000201  43.9921786  -3.6166999  26.9312961
  38.4662084  -7.5444085  32.9295132  38.3281882  -8.2763846  33.5306671
  39.3767008  -7.6335185  32.6479320  49.0831164  -0.8956773  35.3385391
  49.0243710  -1.5797553  34.6715974  49.4850682  -0.1537783  34.8866017
  38.1021862   5.9205141  28.1319110  38.3418461   6.5523665  28.8098129
  37.2591059   5.5693181  28.4184469  49.0848571  -2.9317189  33.5699371
  48.1975350  -3.2691267  33.6925770  49.6547122  -3.6634157  33.8068136
  42.6149724   1.7284264  30.5360614  42.5419896   2.5339235  31.0479919
  42.1727117   1.9276229  29.7108635  42.4039504   0.9656034  24.0463436
  41.6207026   1.5077714  24.1401660  43.1032249   1.4830013  24.4457677
  45.0748408   1.6271098  32.6918773  45.7876380   2.2618562  32.6194674
  44.5838437   1.7234964  31.8758775  40.1260321  -0.6234459  33.5124344
  40.8269781   0.0102024  33.6653738  39.6555436  -0.2819727  32.7519983
  44.8868781   1.9669842  25.4405064  45.0691176   1.1491498  25.9032817
  45.7101767   2.1837534  25.0029954  35.7228039  -1.0898104  30.4455446
  36.3081476  -1.8354416  30.5783350  35.5252878  -0.7794147  31.3292110
  38.5766695   1.9453144  25.4617889  37.9077070   2.4299271  24.9781929
  38.4379564   2.1922364  26.3761267  42.7171963   3.9796887  32.0600547
  43.2690271   4.1428509  32.8249632  43.0578157   4.5701325  31.3880572
  47.5682838  -1.1941855  37.9149201  48.1122742  -0.5811897  37.4204156
  46.9869682  -0.6362277  38.4316214  45.8540351   1.9278863  29.0464229
  45.7291490   1.1268602  28.5375175  46.5119442   2.4225056  28.5578199
  47.9175259  -0.2712117  30.6743779  46.9705594  -0.3906766  30.6022106
  48.2658032  -1.1589619  30.7570041  44.9221692  -0.4759401  26.8748131
  44.7746655  -1.4042694  27.0555701  45.7475186  -0.4539310  26.3905207
  48.5255814   0.3469158  27.9613004  49.4502362   0.1412019  27.8237455
  48.3571117   0.0985559  28.8702346  48.3151130   0.8654825  23.3175096
  48.4888008   0.3001248  22.5648948  48.8080022   1.6655720  23.1354586
  42.8637775   1.5455369  34.0749201  43.1724901   1.3004515  34.9471901
  43.6613257   1.7502007  33.5868072  42.8858387   3.6993278  26.3054578
  42.4463377   3.2069657  26.9987435  43.6366504   3.1566246  26.0646653
  40.3332259  -0.7568713  28.3776880  39.7112268  -1.4198008  28.0779107
  41.0037126  -0.7307581  27.6950527  50.8911632  -1.7345801  37.2510523
  50.1007176  -1.7521662  36.7115022  50.6544987  -1.1957508  38.0059559
  52.5127704  -2.4656393  34.8085273  52.2212512  -2.1026413  35.6448734
  51.8999835  -3.1789385  34.6298605  43.6626662  -4.3238100  38.1263797
  44.5829672  -4.1459501  38.3203844  43.6276245  -5.2682055  37.9743496
  36.6588735  -6.4137065  30.7686578  36.8774745  -5.4819957  30.7874612
  37.0714509  -6.7729091  31.5541382  41.3947870  -7.4106721  38.9754389
  40.9114952  -6.6106361  39.1818278  41.4808809  -7.3998776  38.0221833
  37.3221208  -3.5202186  31.0122823  38.2764461  -3.5518244  30.9452754
  37.1233731  -3.9811562  31.8273048  37.9120590  -4.9501070  33.5793620
  38.7313479  -4.4556991  33.6028457  38.1857398  -5.8669102  33.5511188
  35.6771436   2.0217434  28.0293020  35.5425904   1.2617834  27.4631018
  35.2603499   2.7458333  27.5621809  38.8340562   2.9186751  28.2411463
  38.7172946   3.8632183  28.1390153  38.0133009   2.6160312  28.6297262
  45.6908896  -3.5482089  39.7777958  46.5600056  -3.3741436  39.4164593
  45.2115648  -2.7287672  39.6553687  39.8595076   3.5715012  31.4567391
  40.7622323   3.6038623  31.7733886  39.6332447   2.6415463  31.4713727
  41.6148678   2.3245999  28.1177470  40.6644309   2.3247861  28.0041842
  41.9181165   1.5778734  27.6013505  57.3501372   8.1606537  29.1823232
  57.9879782   8.0413285  28.4786573  57.2322215   9.1087381  29.2411185
  54.1591078   8.1133965  29.1184757  53.8209590   7.9975030  28.2305292
  55.0280846   7.7125131  29.0985763  50.0177894   9.9669442  25.1081648
  49.4542759   9.8759379  24.3397936  49.9030289   9.1469346  25.5884141
  54.6410861   9.2668817  35.0770963  54.6299502   8.8721615  34.2051466
  54.8031501   8.5334890  35.6704734  47.5642326  11.4620633  27.9465869
  48.3563618  11.1211458  27.5312168  47.8038976  11.5715609  28.8668022
  55.5977453  13.6340410  20.4196113  54.9465432  14.2194490  20.0330127
  56.3921815  14.1646604  20.4791151  49.5233080  10.7229547  20.8183247
  50.2963956  10.1758534  20.6796123  49.8758479  11.5873796  21.0297709
  51.3618122  12.0505929  34.0250147  51.0707988  12.9551560  33.9096813
  51.9975107  12.0922457  34.7394216  52.2874329   9.4282778  30.6151506
  52.8837901   9.2038800  29.9008469  52.3449301   8.6867523  31.2176954
  51.8599358   6.8822213  18.4501697  52.1124878   6.3603734  17.6885160
  50.9223917   6.7188358  18.5528381  56.9042640   5.8857991  26.2576441
  57.6905730   5.4677414  25.9066858  57.1681345   6.7904083  26.4258089
  57.0752718  11.3230842  20.9565097  56.4398551  11.3965468  21.6686002
  56.7450124  11.9124440  20.2784177  62.3051068   5.8233224  27.1609419
  63.0376240   5.2532441  27.3947249  61.5490423   5.4354825  27.6015925
  51.5795646   8.7850319  20.6526072  51.4631904   8.1095222  21.3207157
  51.6897906   8.2982693  19.8358225  53.9227187   8.2460466  24.3572762
  53.5585395   7.7191087  25.0685683  54.7794303   7.8558935  24.1839247
  59.8276488  -0.4645201  31.6204028  59.4959813   0.4050209  31.3965243
  59.2322101  -0.7808917  32.2998058  53.5632674   3.2750366  19.3534110
  53.7307077   4.1430602  19.7204581  53.3729843   3.4377647  18.4295399
  56.3208007  11.7367345  31.0199940  56.0208731  12.6392383  30.9115748
  55.9759067  11.4699528  31.8721093  49.7720489   8.1881141  27.0536645
  48.8470985   8.0557355  27.2614337  50.0204902   8.9675361  27.5506587
  59.7205151   4.2549885  28.6997378  58.8122029   4.1865293  28.4056139
  59.6692747   4.7321830  29.5279203  53.5421895   5.7308023  20.3380777
  53.4221520   6.1765074  21.1766257  52.8474484   6.0793341  19.7794315
  47.1329300   7.8314415  27.8880434  47.2621681   8.0848894  28.8019846
  46.4526751   8.4242123  27.5685089  51.3028787  18.5011665  23.9870908
  51.2252817  19.4519490  24.0659389  50.6990431  18.1557537  24.6445834
  53.7946017   5.6739530  36.6432275  53.0179351   6.2333450  36.6335140
  54.4336580   6.1596313  37.1647145  61.5866798   2.4566323  30.4775252
  60.9441178   2.7498856  29.8315046  61.0821726   2.3419243  31.2828448
  59.2406961   6.2029496  21.1661111  60.1524817   6.4356883  20.9908808
  58.7316608   6.7866540  20.6036189  52.0492389   8.4824984  36.2050242
  52.7907074   9.0210028  35.9285066  51.3429375   9.1091272  36.3621794
  57.5247729  10.6254124  34.8022403  57.9331085  10.1836535  34.0577036
  56.8024990  10.0506752  35.0556596  53.8778799   5.5626731  32.1755960
  54.7239994   5.9866144  32.3190609  53.8177437   4.9060355  32.8694524
  57.8476544  11.1855315  28.5574692  57.2185406  11.3501029  27.8550760
  57.4602206  11.5996924  29.3285656  61.7265776  12.1209753  25.9119056
  61.0416814  12.5008654  25.3616089  61.8109625  12.7305079  26.6451004
  57.0278244   3.2231099  33.8337134  56.7839176   3.9773160  33.2971410
  57.3038175   3.6016447  34.6684381  58.9816707   9.7669712  32.5114400
  59.1933602  10.4101472  31.8348781  58.9346455   8.9332028  32.0436330
  56.5842936   2.3787532  29.4150972  55.7227415   2.6768786  29.7067709
  56.6105371   2.5957931  28.4832004  53.4004506  10.9229723  25.8224777
  53.8642851  11.2017426  25.0329400  53.1361304  10.0213167  25.6397868
  50.2928587  10.4701204  28.7604541  50.8629944  10.8988473  28.1222025
  50.8836698  10.1883789  29.4588726  52.3373392   7.0452875  22.6314343
  53.0397435   7.4973919  23.0988269  52.0054020   6.4036694  23.2594236
  50.7853753   5.6364632  37.0065552  50.1552414   6.3180913  37.2400949
  50.6789841   5.5247713  36.0618690  46.0798726   5.3036428  27.9331476
  45.2897780   5.5593956  27.4571587  46.5709973   6.1184766  28.0383517
  60.0962535  12.6441667  30.6836757  60.9179979  12.2421854  30.4019439
  60.0924938  12.5409901  31.6352873  48.0313471   5.6681007  24.8914953
  47.2344634   5.7799701  25.4098449  47.8039063   6.0067659  24.0255843
  53.8619139  12.1925710  32.8397467  53.9263571  12.6546118  33.6755639
  53.1530062  11.5623075  32.9679777  44.3636429   5.5566918  30.3646467
  44.6144467   6.4413928  30.6304043  44.8995977   5.3771520  29.5921559
  68.1868528   8.9880416  27.0321728  67.4332237   8.4187814  26.8765733
  68.3216069   8.9543080  27.9792363  53.5767156  13.8593818  22.7076448
  53.4412831  14.7045354  23.1361296  54.1176969  14.0613095  21.9442382
  50.0634496  -0.0614602  39.3690803  49.6701441  -0.6148404  40.0438447
  50.8800636   0.2495976  39.7597321  47.0296554  11.3769256  23.2804373
  47.5421074  12.1712506  23.4309938  47.6819266  10.6795546  23.2137974
  48.8391438  14.4935012  25.3627126  49.0158067  15.4152977  25.1748110
  49.6348272  14.1793431  25.7921506  52.9802457   1.3543277  36.9611060
  53.7212170   1.9550430  36.8815522  53.2120380   0.6120915  36.4029102
  48.1243795   6.5399644  35.2389289  48.0097310   5.6384901  35.5396388
  47.2688313   6.7863341  34.8874106  55.2035633  14.4817384  36.8376790
  54.7599487  13.6953763  36.5197694  55.8652846  14.6696535  36.1720681
  49.9622754  16.0113186  31.3637468  50.5130179  15.8830249  30.5914462
  49.1234230  16.3108075  31.0132361  57.3016871  14.7620184  34.8658191
  57.2835346  15.5829065  34.3738460  58.2236791  14.6374259  35.0908332
  53.7589925  12.2764314  35.7081700  54.2918262  11.5152602  35.4781008
  53.2304006  11.9837966  36.4505854  44.9945470   9.7057910  24.0563943
  45.8320692  10.1154919  23.8397651  45.1723738   8.7657352  24.0264137
  56.8909902   7.3732991  19.7447776  56.3756526   8.1437595  19.9836164
  56.6187211   6.6998127  20.3680838  54.4757014   2.2182692  24.8033015
  53.6198610   1.8289542  24.6238653  54.8883965   2.2974652  23.9432800
  56.0056160  -0.2470965  29.2024575  55.5020956  -0.2840830  28.3892380
  56.2986767   0.6621778  29.2621231  52.2499046  -0.1632235  28.2090756
  53.1152043  -0.3589427  27.8496646  52.3176555  -0.3921884  29.1360113
  61.8644177  10.1265345  21.6800950  61.0873619   9.7876505  21.2356112
  62.5435658  10.1317969  21.0055915  56.6796206   5.2460083  21.5707558
  56.3746341   5.5606232  22.4217701  57.6326648   5.3241503  21.6134891
  55.1242637  11.4050306  23.2200512  54.5963999  10.6703066  22.9073749
  54.6230140  12.1824983  22.9740480  60.1035484   9.5999327  28.3367558
  59.4459158  10.2898588  28.4247686  60.9075883   9.9895759  28.6801544
  49.8561365   2.0669973  25.5807123  50.4305117   1.8445154  24.8480316
  50.4432348   2.1358667  26.3335724  58.9140942   7.9543699  26.3871500
  59.4272824   8.5873691  26.8893209  59.5642166   7.3544895  26.0214860
  52.1584033  -1.0588779  24.3082192  51.5048445  -1.3739761  23.6838807
  52.1164507  -1.6813038  25.0342015  53.2695238   9.2230516  16.2235485
  52.3622299   8.9919770  16.4226634  53.7666270   8.4268136  16.4109466
  56.1763317  17.9328024  19.1432171  55.5025015  18.2359720  19.7517129
  56.5629139  18.7357104  18.7937628  55.3921773   5.4293155  28.6329840
  54.4744335   5.6508102  28.4751528  55.8081917   5.5039465  27.7741547
  56.1756821   6.8284571  23.7632520  56.9228640   7.3405968  23.4539642
  56.4448410   6.5068623  24.6236914  54.4483471   9.3243111  20.7459475
  53.5394690   9.0402144  20.8431944  54.4778555   9.7442190  19.8862782
  59.6802739  12.9349701  24.5150642  59.2265066  12.0940611  24.5715833
  59.0496705  13.5711099  24.8525422  58.6235658   3.8641687  25.7451310
  57.8858415   3.3519073  26.0761552  58.8762432   3.4242068  24.9334587
  58.1235678  14.7726198  25.4500460  58.4158652  15.3331255  24.7312826
  58.6334298  15.0654759  26.2053619  45.0171641   7.0448625  24.7274677
  44.8196041   6.4517986  24.0025743  44.4618305   6.7400836  25.4450616
  52.9968365   6.9371732  26.8469270  53.0516975   5.9845568  26.7711747
  52.1859567   7.0931171  27.3310568  54.1459559  10.8651855  18.0847553
  53.7078989  10.1487714  17.6253191  54.8870000  11.0927970  17.5232645
  50.9360725   5.5548792  24.6059649  50.1228591   5.8542962  25.0124841
  51.4319719   5.1604480  25.3234131  53.0869303  15.5506549  26.5393914
  53.0445482  15.7767395  25.6102446  54.0032002  15.3169923  26.6879715
  56.5334937   6.0190616  33.4374543  56.8884324   6.2462089  34.2969009
  57.1807068   6.3508993  32.8151798  62.2632674   9.1409052  24.1423872
  62.1250572   9.3310648  23.2145061  61.9068893   9.9028435  24.5991923
  50.4274800   3.1267147  30.2220884  51.0674179   2.9855906  29.5243847
  49.5952330   2.8401661  29.8459486  62.2902053  11.2085579  29.1535143
  62.7238560  11.1160868  30.0018197  63.0033634  11.1843080  28.5155159
  51.2035104  12.4269578  26.3355876  51.9975702  11.9319898  26.1338451
  50.4926796  11.8987441  25.9723582  56.0229948  14.8087673  30.6868244
  56.0766970  15.3778609  31.4545960  55.1544730  14.9789558  30.3222281
  47.5117867   6.5712659  22.4115629  46.5815455   6.5097115  22.6285591
  47.6075339   6.0488612  21.6152270  47.4303416   3.0967472  24.9993871
  47.6910234   4.0112805  24.8903031  48.2520589   2.6291915  25.1490483
  48.9028342   4.5105229  32.1692695  49.5751395   4.3022592  31.5205344
  48.0758128   4.3127315  31.7297927  63.1517603  11.2509280  31.6868029
  63.3453493  12.1555090  31.9327304  63.0518221  10.7916699  32.5206614
  54.8053914   1.1367170  34.1858356  54.1581829   1.8357120  34.0922832
  55.5754929   1.5703314  34.5534604  58.2132712  11.4016022  37.2608909
  58.0618218  11.1726574  36.3438993  58.2037391  12.3586624  37.2740254
  54.9818048   8.9747935  32.2455176  55.9110108   9.1259095  32.0724143
  54.5609078   9.0631956  31.3903822  53.7806380  12.9998600  30.0153713
  53.6417465  12.6317384  30.8879652  52.9920976  13.5146239  29.8437671
  54.3754532  18.1007696  21.3579250  54.5506287  17.6295739  22.1724873
  53.6887320  18.7273462  21.5860511  55.3311595  12.3780202  27.4042551
  54.9961427  12.3380972  28.3000201  54.8315541  11.7124918  26.9312961
  49.3055839   7.7847832  32.9295132  49.1675637   7.0528071  33.5306671
  50.2160762   7.6956732  32.6479320  58.2670787   9.7236237  17.6779611
  57.6499957   8.9983065  17.5812664  57.7987275  10.4845597  17.3346685
  51.9338139   7.4967792  32.4178812  52.6437758   6.8560984  32.3765430
  51.8907448   7.7480687  33.3404993  59.9224918  14.4335145  35.3385391
  59.8637464  13.7494365  34.6715974  60.3244437  15.1754135  34.8866017
  50.6467073   4.4833010  34.2374451  50.1104430   4.0323748  34.8896048
  50.0583782   4.6178918  33.4944916  48.9415617  21.2497059  28.1319110
  49.1812215  21.8815583  28.8098129  48.0984813  20.8985099  28.4184469
  59.9242325  12.3974729  33.5699371  59.0369104  12.0600651  33.6925770
  60.4940877  11.6657760  33.8068136  41.5771473   8.7298821  26.8942422
  42.2642512   8.4160551  26.3063438  41.4219601   9.6340185  26.6209674
  46.3806195   3.6189017  31.3227446  46.2964383   3.0114687  30.5877856
  45.5588901   4.1098036  31.3236942  53.4543479  17.0576181  30.5360614
  53.3813650  17.8631153  31.0479919  53.0120872  17.2568147  29.7108635
  53.2433258  16.2947951  24.0463436  52.4600780  16.8369632  24.1401660
  53.9426004  16.8121931  24.4457677  56.5529909   2.1042581  26.6897641
  57.0498608   1.3512543  26.3698711  55.7816890   2.1406897  26.1240850
  64.4059666   7.8082946  28.3315933  64.3949542   8.6907662  27.9609866
  63.5377045   7.4554497  28.1370470  55.9142162  16.9563015  32.6918773
  56.6270135  17.5910480  32.6194674  55.4232191  17.0526881  31.8758775
  57.6359689  10.8614268  24.2636064  56.7015968  10.9815730  24.0940769
  57.8136358   9.9586735  23.9996074  53.1364877   4.2459964  26.4169326
  52.7662665   3.6931004  27.1050231  53.6323970   3.6418097  25.8644326
  61.0232241   6.7031587  24.7986099  61.4892693   7.5359579  24.7246401
  61.4739741   6.2376569  25.5031357  50.9654076  14.7057459  33.5124344
  51.6663535  15.3393942  33.6653738  50.4949191  15.0472190  32.7519983
  59.0908472  13.0475409  21.7972251  59.3668316  12.9332003  22.7066125
  58.2212970  12.6492893  21.7584424  58.9948903  -0.9287826  28.8377000
  58.0811983  -0.6983599  29.0059207  59.4242005  -0.8449382  29.6891032
  58.7655362   7.2602066  31.3376894  58.1126812   7.5077974  30.6829347
  59.1435742   6.4466204  31.0039371  55.7262536  17.2961759  25.4405064
  55.9084930  16.4783415  25.9032817  56.5495522  17.5129452  25.0029954
  56.0604701  16.2229945  22.7020113  56.5892468  15.7122399  22.0890275
  56.3232921  15.9072475  23.5665646  54.8142935   8.0021877  37.8242931
  54.1383572   7.9016007  38.4945306  55.6370569   7.8461091  38.2878928
  46.5621794  14.2393814  30.4455446  47.1475231  13.4937502  30.5783350
  46.3646632  14.5497771  31.3292110  49.4160449  17.2745061  25.4617889
  48.7470824  17.7591189  24.9781929  49.2773319  17.5214282  26.3761267
  41.1539449   6.8099414  29.1659889  41.1923548   6.2763005  29.9597007
  40.6479742   6.2834620  28.5470867  53.5565718  19.3088805  32.0600547
  54.1084026  19.4720426  32.8249632  53.8971911  19.8993243  31.3880572
  48.5330211   1.6563955  32.6622432  48.5971537   2.5178785  32.2499829
  48.4697331   1.0437956  31.9294790  48.0082484   3.7287087  36.3095466
  48.6354522   3.3464164  36.9232990  47.1510402   3.5101289  36.6751158
  58.4076592  14.1350062  37.9149201  58.9516496  14.7480021  37.4204156
  57.8263437  14.6929641  38.4316214  44.7848026   5.5363516  22.2413821
  45.0801467   4.6274195  22.1880874  43.8836062   5.5151256  21.9194823
  56.6934105  17.2570780  29.0464229  56.5685244  16.4560520  28.5375175
  57.3513196  17.7516974  28.5578199  48.3142273   3.6119513  28.2241369
  47.5928859   4.2255480  28.0848843  49.1035529   4.1477278  28.1458015
  58.7569013  15.0579800  30.6743779  57.8099349  14.9385152  30.6022106
  59.1051787  14.1702298  30.7570041  51.1168587   0.9473939  34.4982021
  51.6402989   1.1936236  35.2608330  50.8980920   1.7793974  34.0785158
  46.5135868   3.2177614  22.3653146  46.1848574   2.3374993  22.1828252
  46.8675239   3.1625283  23.2529535  55.7615447  14.8532517  26.8748131
  55.6140409  13.9249224  27.0555701  56.5868940  14.8752607  26.3905207
  49.6277691   3.5050584  22.7328624  49.9673764   4.0336505  22.0107232
  50.0749811   3.8430990  23.5087190  59.3649569  15.6761075  27.9613004
  60.2896116  15.4703937  27.8237455  59.1964872  15.4277476  28.8702346
  52.3221132   1.8887634  32.1831692  51.9817952   1.0895447  32.5852372
  51.6160138   2.1889345  31.6108525  52.9737604  -1.0263053  30.6359015
  53.7963673  -1.5002575  30.5137905  53.2175667  -0.2472569  31.1357701
  51.6145838   2.0025205  20.9321916  52.3354201   2.3806458  20.4285633
  50.9911142   2.7214082  21.0356894  55.7576961   2.7070354  21.8680249
  55.9740575   3.5894992  21.5669077  55.2771028   2.3156568  21.1385891
  50.4976182   5.6656067  28.4450993  50.3520763   5.9796371  29.3375275
  50.0201386   6.2840968  27.8921892  52.3572565   2.6558615  28.4931883
  52.3434134   1.7599709  28.1564181  53.0744993   2.6629279  29.1270169
  54.2098696   3.0895956  30.5385010  53.9516474   4.0113026  30.5369341
  53.6783736   2.6926390  31.2285474  59.1544885  16.1946743  23.3175096
  59.3281762  15.6293165  22.5648948  59.6473776  16.9947638  23.1354586
  44.9721845   8.2061412  31.3838654  44.4275313   8.9821220  31.5158929
  45.8501194   8.5532216  31.2257776  51.7609461   1.5372996  23.7619453
  51.8825372   0.6089642  23.9610340  51.4711504   1.5511682  22.8497768
  54.6300652  -0.7772094  26.8986173  54.6522348  -0.7132761  25.9438152
  55.0468711  -1.6167585  27.0926679  65.0084276   8.9583166  24.9365395
  65.4515422   8.2090491  24.5384519  64.1310786   8.9493302  24.5539127
  60.1420057  15.5113507  20.4171994  60.8370962  16.1320200  20.6359309
  60.4843207  14.6608858  20.6924372  45.7587866   7.3331308  34.2768811
  45.0169602   7.4813943  34.8633442  45.4380611   7.5939574  33.4135561
  62.0411480  12.9613213  21.9459325  62.5662804  13.3000485  21.2208645
  61.9533833  12.0260228  21.7622459  53.7031529  16.8747286  34.0749201
  54.0118656  16.6296433  34.9471901  54.5007011  17.0793925  33.5868072
  53.7252141  19.0285196  26.3054578  53.2857131  18.5361575  26.9987435
  54.4760258  18.4858164  26.0646653  46.2044480  15.2196737  26.3079206
  47.0302500  14.9200509  25.9277850  45.8538532  14.4504359  26.7568995
  51.1726013  14.5723205  28.3776880  50.5506023  13.9093910  28.0779107
  51.8430880  14.5984337  27.6950527  44.4053085  13.1383063  27.2668140
  43.5684993  12.7105238  27.0852141  44.3776731  13.3315507  28.2038931
  51.2450541   3.0504993  37.9709386  51.2938696   3.9267116  37.5887155
  51.7873055   2.5082386  37.3981029  61.7305386  13.5946116  37.2510523
  60.9400930  13.5770255  36.7115022  61.4938741  14.1334410  38.0059559
  61.8503262  10.4438583  34.5643251  61.9001266  10.2788590  35.5058774
  61.7417185   9.5765842  34.1741132  50.7339520  13.1227128  21.8535340
  50.8827641  13.8062593  21.2002013  51.5405964  13.1032218  22.3684796
  59.1407024   6.4269511  35.8802558  60.0416887   6.2875976  35.5886556
  59.2154998   6.5923966  36.8200735  53.4749829   3.8036365  34.7255744
  52.6053139   4.0969932  34.4538333  53.7109310   4.3876810  35.4463008
  63.3521458  12.8635524  34.8085273  63.0606267  13.2265505  35.6448734
  62.7393590  12.1502533  34.6298605  64.5517141  10.4288404  27.3287843
  65.3864032  10.8678208  27.4925403  64.6876269   9.9527057  26.5096089
  61.6008647   7.9868139  33.2765331  62.0762768   8.1795785  32.4684182
  60.6774212   8.0427325  33.0308714  48.4892153   9.1492306  22.8596409
  48.2438195   8.2454636  23.0576619  48.6588068   9.1509456  21.9175887
  56.1788863   0.0215982  32.2421165  56.6970807   0.7577009  31.9167653
  55.8243996   0.3279976  33.0767924  54.2334926  15.6175259  19.3247088
  53.6608893  16.2365446  18.8717559  54.8067719  16.1674621  19.8587009
  60.3010316   4.8633899  31.5093636  61.2527738   4.9631997  31.5305860
  60.1313766   4.0712167  32.0191721  58.3224695   1.9489482  31.6953037
  57.7274627   2.2294495  30.9999526  58.0374392   2.4383383  32.4669778
  57.4532186  15.9012409  20.4555670  58.3862859  15.8357971  20.6588545
  57.3655398  16.7368676  19.9970202  60.0820202  15.2178279  17.4159617
  60.0033834  14.8838143  18.3095375  60.9029869  15.7100047  17.4151090
  62.7798393   8.0840019  30.6235936  62.7474713   7.1456019  30.8095620
  63.3899017   8.1624055  29.8901761  54.6181724   6.9536072  16.6663140
  55.5640829   6.8242280  16.7351558  54.2395969   6.2150734  17.1432568
  62.9292882   4.8751062  30.6694219  62.4131930   4.0909519  30.4824148
  63.8132830   4.5469779  30.8340739  68.5974943   9.1456025  29.7641973
  69.3278332   8.8841314  30.3249676  67.9881889   8.4084747  29.8044041
  66.6790240   7.2863888  30.3616424  65.9523404   7.1519853  29.7532916
  66.2637527   7.5940717  31.1673142  54.5020417  11.0053818  38.1263797
  55.4223426  11.1832417  38.3203844  54.4670000  10.0609863  37.9743496
  43.7202582   6.1992411  27.0517072  43.4005366   5.3457720  26.7591446
  43.1736010   6.4140990  27.8075039  47.4982489   8.9154852  30.7686578
  47.7168499   9.8471960  30.7874612  47.9108263   8.5562827  31.5541382
  54.4186707  -0.5777062  22.7562267  53.6087435  -0.9229977  23.1317513
  55.1071124  -0.8869519  23.3449878  52.3710355   4.4888058  40.1589327
  52.2707082   5.4382415  40.0901418  52.1531897   4.1606297  39.2865397
  43.5890842   9.8195323  29.0210193  42.8954313   9.4049276  28.5080148
  44.3363833   9.8615859  28.4243612  59.7256062   0.6101510  23.8865227
  59.1454732   1.2686314  23.5043280  59.4591995  -0.2121146  23.4752645
  58.1759629   0.0106567  26.0886548  58.6759407   0.1223102  25.2800867
  58.8195237  -0.2932380  26.7287356  52.2341625   7.9185197  38.9754389
  51.7508706   8.7185557  39.1818278  52.3202564   7.9293142  38.0221833
  45.5027584   9.7513577  26.8976208  45.4798272   9.8501264  25.9458091
  45.8128221  10.5978727  27.2193374  48.1614962  11.8089732  31.0122823
  49.1158216  11.7773674  30.9452754  47.9627486  11.3480355  31.8273048
  48.7514344  10.3790848  33.5793620  49.5707233  10.8734926  33.6028457
  49.0251152   9.4622816  33.5511188  58.5080940   2.7701600  22.9421576
  57.6206796   3.0551251  22.7241770  58.9234930   2.6095363  22.0948853
  61.8595477   2.7948121  26.6575915  62.6355867   3.2844573  26.9300532
  61.1343611   3.2206175  27.1147784  64.2968035   3.5075740  27.7149856
  64.8912526   3.2671476  27.0043164  64.3694619   2.7882871  28.3423392
  46.5165191  17.3509351  28.0293020  46.3819659  16.5909752  27.4631018
  46.0997253  18.0750251  27.5621809  57.6524154  12.5346275  17.0369596
  58.3560004  12.7396277  17.6527251  56.9286803  13.1023037  17.3018679
  58.4821964   8.2856136  23.1571866  58.4257166   8.7424687  22.3179498
  59.0350307   7.5246821  22.9794709  62.2926770   4.0745868  23.9821985
  62.0363704   3.6742504  24.8130193  61.6679638   4.7889662  23.8572125
  66.6039108   6.8141941  26.4893277  66.0438666   6.8835130  27.2624839
  65.9982611   6.6382926  25.7692773  49.6734317  18.2478668  28.2411463
  49.5566701  19.1924101  28.1390153  48.8526763  17.9452230  28.6297262
  59.5610851  12.9728804  19.0868056  60.3956455  12.5410002  18.9045531
  59.3995194  12.8010818  20.0144950  59.2156744   9.4760917  20.4524395
  59.1605547   9.3105189  19.5112839  58.5902799  10.1836950  20.6086585
  44.0049259   4.7128982  34.2785817  44.6508122   4.2027936  34.7673042
  43.7966410   5.4497663  34.8529243  56.5302651  11.7809829  39.7777958
  57.3993810  11.9550481  39.4164593  56.0509402  12.6004246  39.6553687
  50.6988831  18.9006930  31.4567391  51.6016078  18.9330540  31.7733886
  50.4726201  17.9707381  31.4713727  52.4542433  17.6537917  28.1177470
  51.5038064  17.6539778  28.0041842  52.7574919  16.9070651  27.6013505
  48.3446750   1.8596599  38.3760831  49.2078211   1.5033404  38.5864156
  47.7712160   1.5210494  39.0636236  68.1895126  23.4898455  29.1823232
  68.8273536  23.3705202  28.4786573  68.0715969  24.4379299  29.2411185
  64.9984833  23.4425883  29.1184757  64.6603344  23.3266948  28.2305292
  65.8674601  23.0417048  29.0985763  60.8571648  25.2961360  25.1081648
  60.2936514  25.2051297  24.3397936  60.7424043  24.4761264  25.5884141
  65.4804616  24.5960735  35.0770963  65.4693256  24.2013533  34.2051466
  65.6425255  23.8626807  35.6704734  58.4036080  26.7912551  27.9465869
  59.1957372  26.4503376  27.5312168  58.6432731  26.9007526  28.8668022
  66.4371207  28.9632327  20.4196113  65.7859187  29.5486408  20.0330127
  67.2315570  29.4938522  20.4791151  60.3626834  26.0521464  20.8183247
  61.1357710  25.5050451  20.6796123  60.7152233  26.9165714  21.0297709
  62.2011877  27.3797847  34.0250147  61.9101743  28.2843478  33.9096813
  62.8368861  27.4214374  34.7394216  63.1268084  24.7574695  30.6151506
  63.7231656  24.5330718  29.9008469  63.1843055  24.0159441  31.2176954
  62.6993112  22.2114131  18.4501697  62.9518633  21.6895652  17.6885160
  61.7617671  22.0480276  18.5528381  67.7436395  21.2149909  26.2576441
  68.5299484  20.7969332  25.9066858  68.0075099  22.1196001  26.4258089
  67.9146472  26.6522759  20.9565097  67.2792305  26.7257386  21.6686002
  67.5843879  27.2416358  20.2784177  73.1444822  21.1525142  27.1609419
  73.8769994  20.5824359  27.3947249  72.3884178  20.7646743  27.6015925
  62.4189401  24.1142236  20.6526072  62.3025659  23.4387140  21.3207157
  62.5291661  23.6274610  19.8358225  64.7620942  23.5752384  24.3572762
  64.3979149  23.0483005  25.0685683  65.6188058  23.1850853  24.1839247
  70.6670242  14.8646716  31.6204028  70.3353567  15.7342127  31.3965243
  70.0715856  14.5483000  32.2998058  64.4026429  18.6042283  19.3534110
  64.5700831  19.4722520  19.7204581  64.2123598  18.7669565  18.4295399
  67.1601762  27.0659262  31.0199940  66.8602485  27.9684301  30.9115748
  66.8152821  26.7991445  31.8721093  60.6114243  23.5173059  27.0536645
  59.6864740  23.3849273  27.2614337  60.8598657  24.2967278  27.5506587
  70.5598906  19.5841802  28.6997378  69.6515783  19.5157211  28.4056139
  70.5086502  20.0613747  29.5279203  64.3815650  21.0599941  20.3380777
  64.2615275  21.5056992  21.1766257  63.6868238  21.4085258  19.7794315
  57.9723054  23.1606333  27.8880434  58.1015436  23.4140812  28.8019846
  57.2920506  23.7534041  27.5685089  64.6339772  21.0031448  36.6432275
  63.8573106  21.5625368  36.6335140  65.2730335  21.4888231  37.1647145
  72.4260552  17.7858241  30.4775252  71.7834932  18.0790774  29.8315046
  71.9215481  17.6711161  31.2828448  70.0800716  21.5321414  21.1661111
  70.9918572  21.7648801  20.9908808  69.5710363  22.1158458  20.6036189
  62.8886144  23.8116901  36.2050242  63.6300828  24.3501945  35.9285066
  62.1823129  24.4383190  36.3621794  68.3641483  25.9546042  34.8022403
  68.7724840  25.5128452  34.0577036  67.6418745  25.3798669  35.0556596
  64.7172554  20.8918649  32.1755960  65.5633749  21.3158062  32.3190609
  64.6571191  20.2352273  32.8694524  68.6870298  26.5147232  28.5574692
  68.0579161  26.6792947  27.8550760  68.2995960  26.9288842  29.3285656
  72.5659530  27.4501670  25.9119056  71.8810568  27.8300572  25.3616089
  72.6503379  28.0596997  26.6451004  67.8671999  18.5523017  33.8337134
  67.6232931  19.3065077  33.2971410  68.1431929  18.9308365  34.6684381
  69.8210462  25.0961629  32.5114400  70.0327357  25.7393389  31.8348781
  69.7740210  24.2623946  32.0436330  67.4236691  17.7079450  29.4150972
  66.5621170  18.0060704  29.7067709  67.4499125  17.9249849  28.4832004
  64.2398260  26.2521641  25.8224777  64.7036606  26.5309343  25.0329400
  63.9755058  25.3505085  25.6397868  61.1322341  25.7993122  28.7604541
  61.7023698  26.2280390  28.1222025  61.7230453  25.5175707  29.4588726
  63.1767146  22.3744793  22.6314343  63.8791189  22.8265837  23.0988269
  62.8447775  21.7328612  23.2594236  61.6247508  20.9656550  37.0065552
  60.9946168  21.6472830  37.2400949  61.5183595  20.8539631  36.0618690
  56.9192480  20.6328346  27.9331476  56.1291534  20.8885874  27.4571587
  57.4103727  21.4476683  28.0383517  70.9356290  27.9733585  30.6836757
  71.7573733  27.5713772  30.4019439  70.9318692  27.8701819  31.6352873
  58.8707225  20.9972925  24.8914953  58.0738389  21.1091619  25.4098449
  58.6432818  21.3359577  24.0255843  64.7012893  27.5217628  32.8397467
  64.7657326  27.9838035  33.6755639  63.9923817  26.8914993  32.9679777
  55.2030183  20.8858836  30.3646467  55.4538221  21.7705846  30.6304043
  55.7389731  20.7063438  29.5921559  79.0262283  24.3172333  27.0321728
  78.2725991  23.7479731  26.8765733  79.1609824  24.2834998  27.9792363
  64.4160911  29.1885735  22.7076448  64.2806585  30.0337271  23.1361296
  64.9570723  29.3905013  21.9442382  60.9028250  15.2677315  39.3690803
  60.5095196  14.7143514  40.0438447  61.7194391  15.5787894  39.7597321
  57.8690308  26.7061174  23.2804373  58.3814829  27.5004424  23.4309938
  58.5213021  26.0087464  23.2137974  59.6785193  29.8226930  25.3627126
  59.8551821  30.7444895  25.1748110  60.4742026  29.5085349  25.7921506
  63.8196211  16.6835194  36.9611060  64.5605925  17.2842348  36.8815522
  64.0514134  15.9412832  36.4029102  58.9637549  21.8691562  35.2389289
  58.8491064  20.9676819  35.5396388  58.1082067  22.1155258  34.8874106
  66.0429387  29.8109302  36.8376790  65.5993241  29.0245681  36.5197694
  66.7046601  29.9988453  36.1720681  60.8016508  31.3405104  31.3637468
  61.3523933  31.2122167  30.5914462  59.9627984  31.6399993  31.0132361
  68.1410625  30.0912102  34.8658191  68.1229100  30.9120983  34.3738460
  69.0630545  29.9666177  35.0908332  64.5983679  27.6056231  35.7081700
  65.1312016  26.8444520  35.4781008  64.0697760  27.3129883  36.4505854
  67.7653374  12.7116297  31.2375341  67.4217644  13.6017939  31.1614452
  68.1332337  12.5217955  30.3744926  55.8339225  25.0349828  24.0563943
  56.6714447  25.4446836  23.8397651  56.0117493  24.0949270  24.0264137
  67.7303657  22.7024908  19.7447776  67.2150280  23.4729513  19.9836164
  67.4580965  22.0290045  20.3680838  65.3150768  17.5474609  24.8033015
  64.4592364  17.1581460  24.6238653  65.7277720  17.6266570  23.9432800
  66.8449915  15.0820953  29.2024575  66.3414710  15.0451088  28.3892380
  67.1380521  15.9913695  29.2621231  63.0892801  15.1659682  28.2090756
  63.9545797  14.9702491  27.8496646  63.1570309  14.9370034  29.1360113
  72.7037931  25.4557263  21.6800950  71.9267374  25.1168423  21.2356112
  73.3829412  25.4609886  21.0055915  67.5189960  20.5752001  21.5707558
  67.2140096  20.8898150  22.4217701  68.4720402  20.6533420  21.6134891
  65.9636392  26.7342224  23.2200512  65.4357754  25.9994983  22.9073749
  65.4623895  27.5116900  22.9740480  70.9429238  24.9291244  28.3367558
  70.2852912  25.6190506  28.4247686  71.7469637  25.3187676  28.6801544
  60.6955120  17.3961890  25.5807123  61.2698871  17.1737072  24.8480316
  61.2826102  17.4650585  26.3335724  69.7534697  23.2835617  26.3871500
  70.2666579  23.9165609  26.8893209  70.4035921  22.6836813  26.0214860
  61.0224707  19.4266351  19.6003008  60.1862019  19.7641038  19.9212283
  60.8829476  19.2915331  18.6630145  62.9977787  14.2703139  24.3082192
  62.3442200  13.9552156  23.6838807  62.9558261  13.6478880  25.0342015
  64.1088992  24.5522434  16.2235485  63.2016054  24.3211688  16.4226634
  64.6060024  23.7560053  16.4109466  67.0157071  33.2619941  19.1432171
  66.3418770  33.5651638  19.7517129  67.4022893  34.0649022  18.7937628
  66.2315528  20.7585073  28.6329840  65.3138089  20.9800020  28.4751528
  66.6475671  20.8331383  27.7741547  67.0150575  22.1576488  23.7632520
  67.7622394  22.6697886  23.4539642  67.2842165  21.8360541  24.6236914
  65.2877226  24.6535029  20.7459475  64.3788445  24.3694062  20.8431944
  65.3172309  25.0734108  19.8862782  70.5196493  28.2641619  24.5150642
  70.0658820  27.4232528  24.5715833  69.8890460  28.9003017  24.8525422
  69.4629413  19.1933605  25.7451310  68.7252169  18.6810991  26.0761552
  69.7156186  18.7533986  24.9334587  68.9629432  30.1018115  25.4500460
  69.2552407  30.6623172  24.7312826  69.4728053  30.3946676  26.2053619
  69.5641040  11.9709857  26.3393079  69.8699917  11.1107220  26.0518994
  70.2893645  12.5627477  26.1392073  55.8565396  22.3740543  24.7274677
  55.6589796  21.7809904  24.0025743  55.3012060  22.0692753  25.4450616
  63.8362120  22.2663650  26.8469270  63.8910729  21.3137486  26.7711747
  63.0253322  22.4223089  27.3310568  64.9853313  26.1943773  18.0847553
  64.5472743  25.4779632  17.6253191  65.7263754  26.4219888  17.5232645
  61.7754480  20.8840709  24.6059649  60.9622345  21.1834880  25.0124841
  62.2713474  20.4896398  25.3234131  63.9263057  30.8798466  26.5393914
  63.8839236  31.1059313  25.6102446  64.8425756  30.6461841  26.6879715
  67.3728691  21.3482534  33.4374543  67.7278079  21.5754007  34.2969009
  68.0200822  21.6800911  32.8151798  73.1026428  24.4700970  24.1423872
  72.9644327  24.6602566  23.2145061  72.7462647  25.2320353  24.5991923
  61.2668554  18.4559065  30.2220884  61.9067934  18.3147824  29.5243847
  60.4346085  18.1693578  29.8459486  73.1295808  26.5377497  29.1535143
  73.5632314  26.4452786  30.0018197  73.8427388  26.5134997  28.5155159
  62.0428858  27.7561495  26.3355876  62.8369457  27.2611815  26.1338451
  61.3320551  27.2279358  25.9723582  66.8623703  30.1379591  30.6868244
  66.9160725  30.7070527  31.4545960  65.9938484  30.3081476  30.3222281
  58.3511622  21.9004577  22.4115629  57.4209210  21.8389033  22.6285591
  58.4469094  21.3780530  21.6152270  58.2697171  18.4259390  24.9993871
  58.5303988  19.3404723  24.8903031  59.0914343  17.9583832  25.1490483
  59.7422096  19.8397147  32.1692695  60.4145149  19.6314509  31.5205344
  58.9151883  19.6419233  31.7297927  73.9911357  26.5801197  31.6868029
  74.1847247  27.4847008  31.9327304  73.8911976  26.1208616  32.5206614
  65.6447668  16.4659088  34.1858356  64.9975583  17.1649038  34.0922832
  66.4148683  16.8995232  34.5534604  69.0526466  26.7307940  37.2608909
  68.9011972  26.5018492  36.3438993  69.0431145  27.6878542  37.2740254
  65.8211802  24.3039853  32.2455176  66.7503862  24.4551012  32.0724143
  65.4002832  24.3923874  31.3903822  64.6200134  28.3290517  30.0153713
  64.4811220  27.9609302  30.8879652  63.8314730  28.8438157  29.8437671
  66.1705349  27.7072120  27.4042551  65.8355182  27.6672890  28.3000201
  65.6709295  27.0416836  26.9312961  60.1449593  23.1139750  32.9295132
  60.0069391  22.3819989  33.5306671  61.0554517  23.0248650  32.6479320
  69.1064541  25.0528154  17.6779611  68.4893712  24.3274983  17.5812664
  68.6381029  25.8137515  17.3346685  62.7731894  22.8259709  32.4178812
  63.4831513  22.1852902  32.3765430  62.7301202  23.0772604  33.3404993
  70.7618673  29.7627063  35.3385391  70.7031219  29.0786283  34.6715974
  71.1638191  30.5046053  34.8866017  61.4860828  19.8124927  34.2374451
  60.9498185  19.3615666  34.8896048  60.8977536  19.9470836  33.4944916
  60.8963087  19.2713579  16.8000915  60.0192553  19.1502379  16.4363162
  61.3720840  18.4799657  16.5479804  70.7636080  27.7266647  33.5699371
  69.8762859  27.3892568  33.6925770  71.3334631  26.9949678  33.8068136
  52.4165227  24.0590738  26.8942422  53.1036267  23.7452468  26.3063438
  52.2613356  24.9632103  26.6209674  57.2199949  18.9480935  31.3227446
  57.1358138  18.3406604  30.5877856  56.3982656  19.4389953  31.3236942
  64.0827013  31.6239869  24.0463436  63.2994535  32.1661549  24.1401660
  64.7819758  32.1413849  24.4457677  67.3923663  17.4334498  26.6897641
  67.8892363  16.6804461  26.3698711  66.6210645  17.4698815  26.1240850
  75.2453420  23.1374864  28.3315933  75.2343297  24.0199579  27.9609866
  74.3770800  22.7846415  28.1370470  68.4753444  26.1906186  24.2636064
  67.5409722  26.3107648  24.0940769  68.6530112  25.2878652  23.9996074
  63.9758632  19.5751881  26.4169326  63.6056419  19.0222922  27.1050231
  64.4717724  18.9710015  25.8644326  71.8625995  22.0323505  24.7986099
  72.3286447  22.8651497  24.7246401  72.3133496  21.5668487  25.5031357
  61.8047830  30.0349376  33.5124344  62.5057290  30.6685859  33.6653738
  61.3342945  30.3764108  32.7519983  69.9302226  28.3767326  21.7972251
  70.2062070  28.2623921  22.7066125  69.0606725  27.9784811  21.7584424
  69.8342658  14.4004092  28.8377000  68.9205738  14.6308319  29.0059207
  70.2635759  14.4842536  29.6891032  69.6049116  22.5893984  31.3376894
  68.9520567  22.8369891  30.6829347  69.9829496  21.7758122  31.0039371
  66.8998456  31.5521862  22.7020113  67.4286222  31.0414317  22.0890275
  67.1626675  31.2364392  23.5665646  65.6536689  23.3313795  37.8242931
  64.9777326  23.2307924  38.4945306  66.4764323  23.1753009  38.2878928
  57.4015548  29.5685732  30.4455446  57.9868985  28.8229419  30.5783350
  57.2040387  29.8789688  31.3292110  60.2554204  32.6036979  25.4617889
  59.5864579  33.0883107  24.9781929  60.1167073  32.8506199  26.3761267
  51.9933203  22.1391332  29.1659889  52.0317303  21.6054922  29.9597007
  51.4873496  21.6126537  28.5470867  59.3723965  16.9855872  32.6622432
  59.4365292  17.8470703  32.2499829  59.3091086  16.3729874  31.9294790
  58.8476238  19.0579005  36.3095466  59.4748277  18.6756082  36.9232990
  57.9904157  18.8393207  36.6751158  55.6241781  20.8655434  22.2413821
  55.9195222  19.9566112  22.1880874  54.7229817  20.8443173  21.9194823
  59.1536028  18.9411430  28.2241369  58.4322614  19.5547398  28.0848843
  59.9429284  19.4769195  28.1458015  69.5962768  30.3871718  30.6743779
  68.6493103  30.2677069  30.6022106  69.9445541  29.4994216  30.7570041
  61.9562341  16.2765857  34.4982021  62.4796743  16.5228154  35.2608330
  61.7374675  17.1085892  34.0785158  57.3529622  18.5469532  22.3653146
  57.0242329  17.6666910  22.1828252  57.7068993  18.4917200  23.2529535
  66.6009201  30.1824434  26.8748131  66.4534164  29.2541142  27.0555701
  67.4262695  30.2044525  26.3905207  60.4671446  18.8342501  22.7328624
  60.8067518  19.3628423  22.0107232  60.9143566  19.1722907  23.5087190
  63.1614886  17.2179552  32.1831692  62.8211707  16.4187365  32.5852372
  62.4553893  17.5181263  31.6108525  63.8131358  14.3028864  30.6359015
  64.6357427  13.8289343  30.5137905  64.0569422  15.0819348  31.1357701
  62.4539593  17.3317123  20.9321916  63.1747955  17.7098376  20.4285633
  61.8304897  18.0506000  21.0356894  66.5970716  18.0362272  21.8680249
  66.8134330  18.9186910  21.5669077  66.1164783  17.6448485  21.1385891
  61.3369937  20.9947985  28.4450993  61.1914518  21.3088288  29.3375275
  60.8595141  21.6132885  27.8921892  63.1966320  17.9850533  28.4931883
  63.1827889  17.0891626  28.1564181  63.9138748  17.9921197  29.1270169
  65.0492451  18.4187873  30.5385010  64.7910228  19.3404944  30.5369341
  64.5177491  18.0218308  31.2285474  55.8115599  23.5353330  31.3838654
  55.2669067  24.3113137  31.5158929  56.6894949  23.8824134  31.2257776
  62.6003216  16.8664913  23.7619453  62.7219127  15.9381560  23.9610340
  62.3105258  16.8803599  22.8497768  65.4694406  14.5519824  26.8986173
  65.4916103  14.6159157  25.9438152  65.8862465  13.7124332  27.0926679
  75.8478030  24.2875083  24.9365395  76.2909176  23.5382409  24.5384519
  74.9704541  24.2785220  24.5539127  70.9813812  30.8405425  20.4171994
  71.6764716  31.4612118  20.6359309  71.3236962  29.9900776  20.6924372
  56.5981621  22.6623226  34.2768811  55.8563357  22.8105861  34.8633442
  56.2774365  22.9231491  33.4135561  72.8805235  28.2905130  21.9459325
  73.4056559  28.6292403  21.2208645  72.7927587  27.3552146  21.7622459
  57.0438235  30.5488655  26.3079206  57.8696255  30.2492426  25.9277850
  56.6932287  29.7796277  26.7568995  62.0119768  29.9015123  28.3776880
  61.3899777  29.2385828  28.0779107  62.6824635  29.9276255  27.6950527
  55.2446840  28.4674981  27.2668140  54.4078748  28.0397155  27.0852141
  55.2170485  28.6607424  28.2038931  62.0844295  18.3796911  37.9709386
  62.1332451  19.2559034  37.5887155  62.6266809  17.8374304  37.3981029
  72.5699141  28.9238034  37.2510523  71.7794685  28.9062173  36.7115022
  72.3332496  29.4626328  38.0059559  72.6897016  25.7730500  34.5643251
  72.7395021  25.6080508  35.5058774  72.5810939  24.9057759  34.1741132
  61.5733275  28.4519046  21.8535340  61.7221395  29.1354510  21.2002013
  62.3799718  28.4324136  22.3684796  69.9800778  21.7561428  35.8802558
  70.8810641  21.6167893  35.5886556  70.0548753  21.9215883  36.8200735
  64.3143584  19.1328283  34.7255744  63.4446893  19.4261849  34.4538333
  64.5503064  19.7168728  35.4463008  74.1915213  28.1927442  34.8085273
  73.9000021  28.5557422  35.6448734  73.5787344  27.4794450  34.6298605
  75.3910895  25.7580322  27.3287843  76.2257787  26.1970126  27.4925403
  75.5270024  25.2818975  26.5096089  72.4402401  23.3160057  33.2765331
  72.9156523  23.5087703  32.4684182  71.5167966  23.3719242  33.0308714
  59.3285908  24.4784224  22.8596409  59.0831950  23.5746554  23.0576619
  59.4981822  24.4801374  21.9175887  67.0182618  15.3507900  32.2421165
  67.5364561  16.0868927  31.9167653  66.6637750  15.6571893  33.0767924
  58.5981555  20.2112581  20.3582570  57.9050800  20.2856936  19.7022606
  58.3533307  19.4472925  20.8804087  67.2695212  11.7708183  27.7622061
  67.5496965  11.1031372  28.3882488  68.0545819  11.9637278  27.2496725
  65.0728680  30.9467177  19.3247088  64.5002647  31.5657364  18.8717559
  65.6461474  31.4966538  19.8587009  71.1404070  20.1925817  31.5093636
  72.0921493  20.2923914  31.5305860  70.9707520  19.4004085  32.0191721
  69.1618450  17.2781400  31.6953037  68.5668382  17.5586413  30.9999526
  68.8768146  17.7675301  32.4669778  68.2925940  31.2304327  20.4555670
  69.2256613  31.1649888  20.6588545  68.2049153  32.0660594  19.9970202
  70.9213957  30.5470197  17.4159617  70.8427588  30.2130061  18.3095375
  71.7423623  31.0391965  17.4151090  73.6192148  23.4131936  30.6235936
  73.5868468  22.4747937  30.8095620  74.2292772  23.4915973  29.8901761
  65.4575479  22.2827989  16.6663140  66.4034583  22.1534197  16.7351558
  65.0789724  21.5442651  17.1432568  73.7686636  20.2042980  30.6694219
  73.2525685  19.4201436  30.4824148  74.6526585  19.8761696  30.8340739
  71.4297363  13.9483995  26.6290032  71.2322184  13.6399083  27.5133364
  72.0397069  14.6745634  26.7587962  79.4368698  24.4747943  29.7641973
  80.1672086  24.2133231  30.3249676  78.8275643  23.7376665  29.8044041
  77.5183995  22.6155806  30.3616424  76.7917158  22.4811771  29.7532916
  77.1031282  22.9232634  31.1673142  65.3414171  26.3345735  38.1263797
  66.2617181  26.5124334  38.3203844  65.3063754  25.3901781  37.9743496
  63.6418396  20.2077966  16.6018025  62.7349851  19.9111078  16.6780739
  63.9194377  19.9107784  15.7352311  54.5596336  21.5284329  27.0517072
  54.2399121  20.6749637  26.7591446  54.0129764  21.7432907  27.8075039
  58.3376244  24.2446770  30.7686578  58.5562254  25.1763878  30.7874612
  58.7502018  23.8854744  31.5541382  65.2580462  14.7514855  22.7562267
  64.4481190  14.4061940  23.1317513  65.9464879  14.4422399  23.3449878
  67.1871010  13.8292902  24.3786563  67.7402048  14.2488356  25.0376586
  67.4241096  12.9028650  24.4209519  63.2104109  19.8179976  40.1589327
  63.1100836  20.7674333  40.0901418  62.9925651  19.4898215  39.2865397
  62.4117180  17.0664901  16.7430004  63.2736344  17.3919799  17.0025822
  62.5967525  16.2796397  16.2303070  54.4284596  25.1487241  29.0210193
  53.7348068  24.7341193  28.5080148  55.1757587  25.1907777  28.4243612
  70.5649817  15.9393427  23.8865227  69.9848486  16.5978231  23.5043280
  70.2985750  15.1170772  23.4752645  69.0153383  15.3398485  26.0886548
  69.5153162  15.4515020  25.2800867  69.6588991  15.0359538  26.7287356
  63.0735379  23.2477115  38.9754389  62.5902461  24.0477475  39.1818278
  63.1596318  23.2585060  38.0221833  56.3421339  25.0805494  26.8976208
  56.3192027  25.1793182  25.9458091  56.6521975  25.9270645  27.2193374
  59.0008717  27.1381649  31.0122823  59.9551970  27.1065592  30.9452754
  58.8021240  26.6772273  31.8273048  59.5908099  25.7082765  33.5793620
  60.4100988  26.2026844  33.6028457  59.8644906  24.7914734  33.5511188
  69.3474695  18.0993518  22.9421576  68.4600550  18.3843168  22.7241770
  69.7628684  17.9387281  22.0948853  72.6989231  18.1240039  26.6575915
  73.4749621  18.6136491  26.9300532  71.9737365  18.5498093  27.1147784
  75.1361790  18.8367658  27.7149856  75.7306281  18.5963394  27.0043164
  75.2088373  18.1174789  28.3423392  57.3558945  32.6801269  28.0293020
  57.2213413  31.9201670  27.4631018  56.9391008  33.4042169  27.5621809
  68.4917908  27.8638192  17.0369596  69.1953759  28.0688195  17.6527251
  67.7680557  28.4314954  17.3018679  69.3215719  23.6148054  23.1571866
  69.2650920  24.0716605  22.3179498  69.8744061  22.8538738  22.9794709
  73.1320525  19.4037786  23.9821985  72.8757459  19.0034421  24.8130193
  72.5073393  20.1181579  23.8572125  77.4432862  22.1433859  26.4893277
  76.8832420  22.2127048  27.2624839  76.8376366  21.9674843  25.7692773
  70.4004606  28.3020722  19.0868056  71.2350210  27.8701920  18.9045531
  70.2388949  28.1302735  20.0144950  70.0550498  24.8052835  20.4524395
  69.9999302  24.6397106  19.5112839  69.4296553  25.5128868  20.6086585
  54.8443013  20.0420899  34.2785817  55.4901877  19.5319853  34.7673042
  54.6360164  20.7789581  34.8529243  67.3696405  27.1101747  39.7777958
  68.2387565  27.2842399  39.4164593  66.8903157  27.9296164  39.6553687
  63.3646624  14.3060944  20.0309713  63.3525293  15.2502784  20.1877984
  64.2570045  14.1231089  19.7369175  67.1798743  10.9003721  24.2855650
  66.4131139  10.3462207  24.4312333  67.5909448  10.9725589  25.1469802
  59.1840504  17.1888516  38.3760831  60.0471966  16.8325321  38.5864156
  58.6105915  16.8502411  39.0636236  79.0288881  38.8190373  29.1823232
  79.6667291  38.6997120  28.4786573  78.9109724  39.7671217  29.2411185
  77.2764962  44.2924245  20.4196113  76.6252941  44.8778325  20.0330127
  78.0709324  44.8230440  20.4791151  73.5386867  37.5406048  18.4501697
  73.7912387  37.0187569  17.6885160  72.6011426  37.3772194  18.5528381
  78.5830149  36.5441827  26.2576441  79.3693239  36.1261250  25.9066858
  78.8468854  37.4487919  26.4258089  78.7540227  41.9814677  20.9565097
  78.1186060  42.0549303  21.6686002  78.4237633  42.5708276  20.2784177
  83.9838577  36.4817060  27.1609419  84.7163749  35.9116277  27.3947249
  83.2277932  36.0938660  27.6015925  73.2583155  39.4434154  20.6526072
  73.1419413  38.7679058  21.3207157  73.3685415  38.9566528  19.8358225
  81.5063997  30.1938634  31.6204028  81.1747322  31.0634045  31.3965243
  80.9109610  29.8774918  32.2998058  75.2420183  33.9334201  19.3534110
  75.4094586  34.8014437  19.7204581  75.0517352  34.0961483  18.4295399
  81.3992660  34.9133720  28.6997378  80.4909538  34.8449128  28.4056139
  81.3480256  35.3905665  29.5279203  75.2209404  36.3891858  20.3380777
  75.1009029  36.8348909  21.1766257  74.5261993  36.7377176  19.7794315
  83.2654307  33.1150158  30.4775252  82.6228687  33.4082692  29.8315046
  82.7609235  33.0003079  31.2828448  80.9194470  36.8613332  21.1661111
  81.8312326  37.0940718  20.9908808  80.4104117  37.4450376  20.6036189
  83.4053285  42.7793588  25.9119056  82.7204323  43.1592489  25.3616089
  83.4897134  43.3888915  26.6451004  80.6604216  40.4253547  32.5114400
  80.8721111  41.0685307  31.8348781  80.6133964  39.5915864  32.0436330
  78.2630445  33.0371368  29.4150972  77.4014924  33.3352621  29.7067709
  78.2892880  33.2541767  28.4832004  74.0160901  37.7036711  22.6314343
  74.7184944  38.1557754  23.0988269  73.6841529  37.0620529  23.2594236
  89.8656037  39.6464251  27.0321728  89.1119745  39.0771649  26.8765733
  90.0003578  39.6126915  27.9792363  75.2554665  44.5177653  22.7076448
  75.1200340  45.3629189  23.1361296  75.7964478  44.7196931  21.9442382
  74.6589966  32.0127112  36.9611060  75.3999679  32.6134265  36.8815522
  74.8907889  31.2704750  36.4029102  78.6047129  28.0408215  31.2375341
  78.2611398  28.9309857  31.1614452  78.9726091  27.8509873  30.3744926
  78.5697411  38.0316826  19.7447776  78.0544035  38.8021431  19.9836164
  78.2974720  37.3581962  20.3680838  77.6843669  30.4112870  29.2024575
  77.1808465  30.3743005  28.3892380  77.9774276  31.3205613  29.2621231
  83.5431686  40.7849181  21.6800950  82.7661128  40.4460340  21.2356112
  84.2223167  40.7901804  21.0055915  78.3583715  35.9043918  21.5707558
  78.0533850  36.2190067  22.4217701  79.3114157  35.9825338  21.6134891
  81.7822992  40.2583162  28.3367558  81.1246667  40.9482423  28.4247686
  82.5863392  40.6479594  28.6801544  80.5928451  38.6127535  26.3871500
  81.1060333  39.2457527  26.8893209  81.2429675  38.0128730  26.0214860
  71.8618461  34.7558269  19.6003008  71.0255773  35.0932955  19.9212283
  71.7223231  34.6207249  18.6630145  73.8371542  29.5995057  24.3082192
  73.1835954  29.2844074  23.6838807  73.7952016  28.9770797  25.0342015
  74.9482747  39.8814352  16.2235485  74.0409808  39.6503605  16.4226634
  75.4453779  39.0851971  16.4109466  77.8550826  48.5911859  19.1432171
  77.1812524  48.8943556  19.7517129  78.2416647  49.3940939  18.7937628
  77.0709282  36.0876990  28.6329840  76.1531844  36.3091937  28.4751528
  77.4869426  36.1623301  27.7741547  77.8544330  37.4868406  23.7632520
  78.6016149  37.9989803  23.4539642  78.1235919  37.1652459  24.6236914
  76.1270980  39.9826947  20.7459475  75.2182199  39.6985980  20.8431944
  76.1566064  40.4026025  19.8862782  81.3590248  43.5933536  24.5150642
  80.9052575  42.7524446  24.5715833  80.7284214  44.2294935  24.8525422
  80.3023167  34.5225522  25.7451310  79.5645924  34.0102908  26.0761552
  80.5549941  34.0825904  24.9334587  80.4034794  27.3001774  26.3393079
  80.7093671  26.4399138  26.0518994  81.1287399  27.8919394  26.1392073
  75.8247068  41.5235690  18.0847553  75.3866498  40.8071549  17.6253191
  76.5657509  41.7511805  17.5232645  83.9420183  39.7992887  24.1423872
  83.8038081  39.9894483  23.2145061  83.5856401  40.5612270  24.5991923
  83.9689562  41.8669414  29.1535143  84.4026069  41.7744704  30.0018197
  84.6821143  41.8426915  28.5155159  84.8305112  41.9093115  31.6868029
  85.0241002  42.8138926  31.9327304  84.7305730  41.4500534  32.5206614
  76.4841423  31.7951006  34.1858356  75.8369338  32.4940955  34.0922832
  77.2542438  32.2287150  34.5534604  79.9458295  40.3820072  17.6779611
  79.3287466  39.6566900  17.5812664  79.4774784  41.1429432  17.3346685
  71.7356841  34.6005496  16.8000915  70.8586308  34.4794297  16.4363162
  72.2114594  33.8091575  16.5479804  78.2317418  32.7626416  26.6897641
  78.7286117  32.0096378  26.3698711  77.4604399  32.7990733  26.1240850
  86.0847175  38.4666782  28.3315933  86.0737051  39.3491497  27.9609866
  85.2164554  38.1138333  28.1370470  82.7019750  37.3615423  24.7986099
  83.1680202  38.1943414  24.7246401  83.1527250  36.8960404  25.5031357
  80.7695981  43.7059244  21.7972251  81.0455825  43.5915839  22.7066125
  79.9000479  43.3076729  21.7584424  80.6736412  29.7296010  28.8377000
  79.7599492  29.9600236  29.0059207  81.1029514  29.8134454  29.6891032
  80.4442871  37.9185902  31.3376894  79.7914321  38.1661809  30.6829347
  80.8223251  37.1050040  31.0039371  70.2117720  32.3147790  32.6622432
  70.2759046  33.1762621  32.2499829  70.1484840  31.7021792  31.9294790
  72.7956096  31.6057775  34.4982021  73.3190498  31.8520071  35.2608330
  72.5768429  32.4377809  34.0785158  74.0008641  32.5471470  32.1831692
  73.6605461  31.7479283  32.5852372  73.2947647  32.8473181  31.6108525
  74.6525113  29.6320782  30.6359015  75.4751182  29.1581260  30.5137905
  74.8963176  30.4111266  31.1357701  73.2933347  32.6609041  20.9321916
  74.0141710  33.0390293  20.4285633  72.6698651  33.3797917  21.0356894
  77.4364470  33.3654190  21.8680249  77.6528084  34.2478827  21.5669077
  76.9558537  32.9740403  21.1385891  75.8886205  33.7479791  30.5385010
  75.6303983  34.6696862  30.5369341  75.3571245  33.3510226  31.2285474
  80.8332394  46.8530578  23.3175096  81.0069271  46.2877001  22.5648948
  81.3261285  47.6531473  23.1354586  76.3088161  29.8811742  26.8986173
  76.3309857  29.9451075  25.9438152  76.7256220  29.0416250  27.0926679
  86.6871785  39.6167001  24.9365395  87.1302931  38.8674326  24.5384519
  85.8098295  39.6077137  24.5539127  81.8207566  46.1697343  20.4171994
  82.5158471  46.7904035  20.6359309  82.1630716  45.3192694  20.6924372
  83.7198989  43.6197048  21.9459325  84.2450313  43.9584321  21.2208645
  83.6321342  42.6844063  21.7622459  80.8194533  37.0853346  35.8802558
  81.7204396  36.9459811  35.5886556  80.8942507  37.2507801  36.8200735
  85.0308967  43.5219360  34.8085273  84.7393776  43.8849340  35.6448734
  84.4181099  42.8086368  34.6298605  86.2304650  41.0872239  27.3287843
  87.0651541  41.5262043  27.4925403  86.3663778  40.6110893  26.5096089
  83.2796156  38.6451974  33.2765331  83.7550277  38.8379621  32.4684182
  82.3561721  38.7011160  33.0308714  77.8576372  30.6799818  32.2421165
  78.3758316  31.4160845  31.9167653  77.5031505  30.9863811  33.0767924
  78.1088966  27.1000100  27.7622061  78.3890720  26.4323289  28.3882488
  78.8939573  27.2929196  27.2496725  75.9122435  46.2759094  19.3247088
  75.3396402  46.8949281  18.8717559  76.4855228  46.8258456  19.8587009
  81.9797825  35.5217734  31.5093636  82.9315247  35.6215832  31.5305860
  81.8101275  34.7296003  32.0191721  80.0012204  32.6073318  31.6953037
  79.4062136  32.8878330  30.9999526  79.7161901  33.0967218  32.4669778
  79.1319694  46.5596244  20.4555670  80.0650368  46.4941806  20.6588545
  79.0442907  47.3952511  19.9970202  81.7607711  45.8762115  17.4159617
  81.6821343  45.5421978  18.3095375  82.5817378  46.3683883  17.4151090
  84.4585902  38.7423854  30.6235936  84.4262222  37.8039855  30.8095620
  85.0686526  38.8207891  29.8901761  76.2969233  37.6119907  16.6663140
  77.2428338  37.4826115  16.7351558  75.9183478  36.8734569  17.1432568
  84.6080391  35.5334897  30.6694219  84.0919439  34.7493354  30.4824148
  85.4920339  35.2053614  30.8340739  82.2691118  29.2775913  26.6290032
  82.0715939  28.9691001  27.5133364  82.8790823  30.0037552  26.7587962
  90.2762452  39.8039861  29.7641973  91.0065841  39.5425149  30.3249676
  89.6669398  39.0668583  29.8044041  88.3577749  37.9447723  30.3616424
  87.6310913  37.8103688  29.7532916  87.9425036  38.2524552  31.1673142
  74.4812150  35.5369883  16.6018025  73.5743606  35.2402996  16.6780739
  74.7588131  35.2399701  15.7352311  76.0974216  30.0806773  22.7562267
  75.2874944  29.7353858  23.1317513  76.7858633  29.7714317  23.3449878
  78.0264764  29.1584820  24.3786563  78.5795803  29.5780273  25.0376586
  78.2634851  28.2320568  24.4209519  73.2510935  32.3956819  16.7430004
  74.1130099  32.7211717  17.0025822  73.4361279  31.6088314  16.2303070
  81.4043571  31.2685345  23.8865227  80.8242241  31.9270149  23.5043280
  81.1379504  30.4462690  23.4752645  79.8547138  30.6690403  26.0886548
  80.3546916  30.7806937  25.2800867  80.4982746  30.3651456  26.7287356
  80.1868449  33.4285435  22.9421576  79.2994305  33.7135086  22.7241770
  80.6022439  33.2679199  22.0948853  83.5382986  33.4531956  26.6575915
  84.3143376  33.9428409  26.9300532  82.8131120  33.8790011  27.1147784
  85.9755544  34.1659576  27.7149856  86.5700035  33.9255312  27.0043164
  86.0482128  33.4466706  28.3423392  79.3311663  43.1930110  17.0369596
  80.0347513  43.3980113  17.6527251  78.6074312  43.7606872  17.3018679
  80.1609473  38.9439971  23.1571866  80.1044675  39.4008523  22.3179498
  80.7137816  38.1830656  22.9794709  83.9714279  34.7329703  23.9821985
  83.7151213  34.3326339  24.8130193  83.3467147  35.4473497  23.8572125
  88.2826617  37.4725776  26.4893277  87.7226175  37.5418966  27.2624839
  87.6770120  37.2966761  25.7692773  81.2398360  43.6312639  19.0868056
  82.0743964  43.1993838  18.9045531  81.0782703  43.4594653  20.0144950
  80.8944253  40.1344753  20.4524395  80.8393056  39.9689024  19.5112839
  80.2690308  40.8420786  20.6086585  74.2040378  29.6352862  20.0309713
  74.1919048  30.5794702  20.1877984  75.0963800  29.4523007  19.7369175
  78.0192497  26.2295638  24.2855650  77.2524893  25.6754125  24.4312333
  78.4303202  26.3017507  25.1469802  89.8682635  54.1482290  29.1823232
  90.5061045  54.0289038  28.4786573  89.7503478  55.0963134  29.2411185
  86.6772342  54.1009719  29.1184757  86.3390853  53.9850783  28.2305292
  87.5462110  53.7000884  29.0985763  82.5359157  55.9545195  25.1081648
  81.9724023  55.8635132  24.3397936  82.4211552  55.1345099  25.5884141
  87.1592125  55.2544570  35.0770963  87.1480765  54.8597368  34.2051466
  87.3212764  54.5210643  35.6704734  80.0823589  57.4496387  27.9465869
  80.8744881  57.1087211  27.5312168  80.3220240  57.5591362  28.8668022
  88.1158716  59.6216163  20.4196113  87.4646696  60.2070243  20.0330127
  88.9103079  60.1522358  20.4791151  82.0414343  56.7105300  20.8183247
  82.8145219  56.1634287  20.6796123  82.3939742  57.5749549  21.0297709
  83.8799386  58.0381682  34.0250147  83.5889252  58.9427313  33.9096813
  84.5156370  58.0798210  34.7394216  84.8055593  55.4158531  30.6151506
  85.4019165  55.1914553  29.9008469  84.8630564  54.6743276  31.2176954
  84.3780621  52.8697966  18.4501697  84.6306142  52.3479487  17.6885160
  83.4405180  52.7064111  18.5528381  89.4223904  51.8733744  26.2576441
  90.2086993  51.4553167  25.9066858  89.6862608  52.7779836  26.4258089
  89.5933981  57.3106595  20.9565097  88.9579814  57.3841221  21.6686002
  89.2631388  57.9000193  20.2784177  94.8232331  51.8108977  27.1609419
  95.5557503  51.2408194  27.3947249  94.0671687  51.4230578  27.6015925
  84.0976910  54.7726072  20.6526072  83.9813168  54.0970975  21.3207157
  84.2079170  54.2858446  19.8358225  86.4408451  54.2336219  24.3572762
  86.0766658  53.7066840  25.0685683  87.2975567  53.8434688  24.1839247
  92.3457751  45.5230552  31.6204028  92.0141076  46.3925963  31.3965243
  91.7503365  45.2066836  32.2998058  86.0813938  49.2626119  19.3534110
  86.2488340  50.1306355  19.7204581  85.8911107  49.4253400  18.4295399
  88.8389271  57.7243098  31.0199940  88.5389994  58.6268136  30.9115748
  88.4940330  57.4575281  31.8721093  82.2901752  54.1756894  27.0536645
  81.3652249  54.0433108  27.2614337  82.5386166  54.9551114  27.5506587
  92.2386415  50.2425638  28.6997378  91.3303292  50.1741046  28.4056139
  92.1874011  50.7197583  29.5279203  86.0603159  51.7183776  20.3380777
  85.9402784  52.1640827  21.1766257  85.3655747  52.0669094  19.7794315
  79.6510563  53.8190168  27.8880434  79.7802945  54.0724647  28.8019846
  78.9708015  54.4117876  27.5685089  83.8210051  64.4887418  23.9870908
  83.7434080  65.4395243  24.0659389  83.2171694  64.1433290  24.6445834
  86.3127280  51.6615283  36.6432275  85.5360615  52.2209203  36.6335140
  86.9517844  52.1472066  37.1647145  94.1048061  48.4442076  30.4775252
  93.4622441  48.7374609  29.8315046  93.6002990  48.3294996  31.2828448
  91.7588225  52.1905249  21.1661111  92.6706081  52.4232636  20.9908808
  91.2497872  52.7742294  20.6036189  90.0428992  56.6129877  34.8022403
  90.4512348  56.1712288  34.0577036  89.3206254  56.0382505  35.0556596
  86.3960062  51.5502484  32.1755960  87.2421258  51.9741897  32.3190609
  86.3358700  50.8936108  32.8694524  90.3657807  57.1731068  28.5574692
  89.7366670  57.3376782  27.8550760  89.9783469  57.5872677  29.3285656
  94.2447039  58.1085506  25.9119056  93.5598077  58.4884407  25.3616089
  94.3290888  58.7180832  26.6451004  89.5459508  49.2106852  33.8337134
  89.3020440  49.9648913  33.2971410  89.8219438  49.5892200  34.6684381
  91.4997971  55.7545465  32.5114400  91.7114866  56.3977225  31.8348781
  91.4527719  54.9207781  32.0436330  89.1024200  48.3663285  29.4150972
  88.2408679  48.6644539  29.7067709  89.1286634  48.5833684  28.4832004
  85.9185769  56.9105476  25.8224777  86.3824115  57.1893179  25.0329400
  85.6542567  56.0088920  25.6397868  82.8109850  56.4576957  28.7604541
  83.3811207  56.8864226  28.1222025  83.4017962  56.1759542  29.4588726
  84.8554655  53.0328628  22.6314343  85.5578698  53.4849672  23.0988269
  84.5235284  52.3912447  23.2594236  92.6143799  58.6317420  30.6836757
  93.4361242  58.2297607  30.4019439  92.6106201  58.5285654  31.6352873
  80.5494734  51.6556760  24.8914953  79.7525898  51.7675454  25.4098449
  80.3220327  51.9943412  24.0255843  86.3800402  58.1801463  32.8397467
  86.4444835  58.6421871  33.6755639  85.6711326  57.5498828  32.9679777
 100.7049792  54.9756169  27.0321728  99.9513500  54.4063567  26.8765733
 100.8397333  54.9418833  27.9792363  86.0948420  59.8469571  22.7076448
  85.9594094  60.6921107  23.1361296  86.6358232  60.0488848  21.9442382
  79.5477817  57.3645009  23.2804373  80.0602338  58.1588259  23.4309938
  80.2000530  56.6671299  23.2137974  81.3572702  60.4810765  25.3627126
  81.5339330  61.4028730  25.1748110  82.1529535  60.1669184  25.7921506
  85.4983720  47.3419030  36.9611060  86.2393434  47.9426183  36.8815522
  85.7301643  46.5996668  36.4029102  87.7216896  60.4693137  36.8376790
  87.2780750  59.6829516  36.5197694  88.3834110  60.6572288  36.1720681
  82.4804017  61.9988939  31.3637468  83.0311442  61.8706002  30.5914462
  81.6415493  62.2983828  31.0132361  89.8198134  60.7495937  34.8658191
  89.8016609  61.5704818  34.3738460  90.7418054  60.6250013  35.0908332
  86.2771188  58.2640067  35.7081700  86.8099525  57.5028355  35.4781008
  85.7485269  57.9713719  36.4505854  89.4440883  43.3700133  31.2375341
  89.1005153  44.2601774  31.1614452  89.8119846  43.1801790  30.3744926
  77.5126734  55.6933663  24.0563943  78.3501956  56.1030672  23.8397651
  77.6905002  54.7533105  24.0264137  89.4091166  53.3608744  19.7447776
  88.8937789  54.1313348  19.9836164  89.1368474  52.6873880  20.3680838
  86.9938277  48.2058445  24.8033015  86.1379873  47.8165295  24.6238653
  87.4065229  48.2850405  23.9432800  88.5237424  45.7404788  29.2024575
  88.0202219  45.7034923  28.3892380  88.8168030  46.6497531  29.2621231
  84.7680309  45.8243518  28.2090756  85.6333306  45.6286326  27.8496646
  84.8357818  45.5953869  29.1360113  94.3825440  56.1141098  21.6800950
  93.6054883  55.7752258  21.2356112  95.0616921  56.1193722  21.0055915
  89.1977469  51.2335836  21.5707558  88.8927605  51.5481985  22.4217701
  90.1507911  51.3117256  21.6134891  87.6423901  57.3926059  23.2200512
  87.1145263  56.6578819  22.9073749  87.1411404  58.1700736  22.9740480
  92.6216747  55.5875080  28.3367558  91.9640421  56.2774341  28.4247686
  93.4257146  55.9771512  28.6801544  82.3742629  48.0545726  25.5807123
  82.9486380  47.8320907  24.8480316  82.9613611  48.1234420  26.3335724
  91.4322206  53.9419452  26.3871500  91.9454088  54.5749444  26.8893209
  92.0823430  53.3420648  26.0214860  82.7012216  50.0850187  19.6003008
  81.8649528  50.4224873  19.9212283  82.5616985  49.9499166  18.6630145
  84.6765296  44.9286974  24.3082192  84.0229709  44.6135992  23.6838807
  84.6345770  44.3062715  25.0342015  85.7876501  55.2106270  16.2235485
  84.8803563  54.9795523  16.4226634  86.2847533  54.4143889  16.4109466
  88.6944580  63.9203777  19.1432171  88.0206279  64.2235473  19.7517129
  89.0810402  64.7232857  18.7937628  87.9103037  51.4168908  28.6329840
  86.9925598  51.6383855  28.4751528  88.3263180  51.4915218  27.7741547
  88.6938084  52.8160324  23.7632520  89.4409903  53.3281721  23.4539642
  88.9629674  52.4944376  24.6236914  86.9664735  55.3118864  20.7459475
  86.0575954  55.0277897  20.8431944  86.9959818  55.7317943  19.8862782
  92.1984002  58.9225454  24.5150642  91.7446329  58.0816364  24.5715833
  91.5677969  59.5586852  24.8525422  91.1416922  49.8517440  25.7451310
  90.4039678  49.3394826  26.0761552  91.3943695  49.4117822  24.9334587
  90.6416941  60.7601951  25.4500460  90.9339916  61.3207008  24.7312826
  91.1515562  61.0530512  26.2053619  91.2428549  42.6293692  26.3393079
  91.5487426  41.7691055  26.0518994  91.9681154  43.2211312  26.1392073
  77.5352905  53.0324379  24.7274677  77.3377305  52.4393739  24.0025743
  76.9799569  52.7276589  25.4450616  85.5149629  52.9247485  26.8469270
  85.5698238  51.9721321  26.7711747  84.7040831  53.0806924  27.3310568
  86.6640822  56.8527608  18.0847553  86.2260252  56.1363467  17.6253191
  87.4051263  57.0803723  17.5232645  83.4541989  51.5424545  24.6059649
  82.6409854  51.8418715  25.0124841  83.9500983  51.1480234  25.3234131
  85.6050566  61.5382302  26.5393914  85.5626745  61.7643148  25.6102446
  86.5213265  61.3045676  26.6879715  89.0516200  52.0066369  33.4374543
  89.4065588  52.2337842  34.2969009  89.6988331  52.3384746  32.8151798
  94.7813937  55.1284805  24.1423872  94.6431836  55.3186401  23.2145061
  94.4250156  55.8904188  24.5991923  82.9456063  49.1142900  30.2220884
  83.5855443  48.9731659  29.5243847  82.1133594  48.8277414  29.8459486
  94.8083317  57.1961332  29.1535143  95.2419823  57.1036621  30.0018197
  95.5214897  57.1718833  28.5155159  83.7216367  58.4145331  26.3355876
  84.5156966  57.9195651  26.1338451  83.0108060  57.8863194  25.9723582
  88.5411212  60.7963426  30.6868244  88.5948234  61.3654363  31.4545960
  87.6725993  60.9665311  30.3222281  80.0299131  52.5588412  22.4115629
  79.0996719  52.4972868  22.6285591  80.1256603  52.0364365  21.6152270
  81.4209605  50.4980982  32.1692695  82.0932658  50.2898345  31.5205344
  80.5939392  50.3003068  31.7297927  95.6698866  57.2385033  31.6868029
  95.8634756  58.1430843  31.9327304  95.5699484  56.7792452  32.5206614
  87.3235177  47.1242923  34.1858356  86.6763092  47.8232873  34.0922832
  88.0936192  47.5579067  34.5534604  90.7313975  57.3891776  37.2608909
  90.5799481  57.1602327  36.3438993  90.7218654  58.3462377  37.2740254
  87.4999311  54.9623688  32.2455176  88.4291371  55.1134848  32.0724143
  87.0790341  55.0507709  31.3903822  86.2987643  58.9874353  30.0153713
  86.1598729  58.6193137  30.8879652  85.5102239  59.5021992  29.8437671
  86.8935795  64.0883449  21.3579250  87.0687551  63.6171492  22.1724873
  86.2068583  64.7149215  21.5860511  87.8492858  58.3655955  27.4042551
  87.5142691  58.3256725  28.3000201  87.3496804  57.7000671  26.9312961
  90.7852050  55.7111990  17.6779611  90.1681221  54.9858818  17.5812664
  90.3168538  56.4721350  17.3346685  84.4519403  53.4843545  32.4178812
  85.1619021  52.8436737  32.3765430  84.4088711  53.7356440  33.3404993
  92.4406182  60.4210898  35.3385391  92.3818728  59.7370118  34.6715974
  92.8425700  61.1629888  34.8866017  83.1648337  50.4708763  34.2374451
  82.6285694  50.0199501  34.8896048  82.5765045  50.6054671  33.4944916
  81.4596880  67.2372812  28.1319110  81.6993479  67.8691336  28.8098129
  80.6166077  66.8860852  28.4184469  82.5750596  49.9297414  16.8000915
  81.6980062  49.8086215  16.4363162  83.0508349  49.1383492  16.5479804
  92.4423589  58.3850482  33.5699371  91.5550368  58.0476404  33.6925770
  93.0122140  57.6533513  33.8068136  85.9724742  63.0451934  30.5360614
  85.8994914  63.8506906  31.0479919  85.5302135  63.2443900  29.7108635
  85.7614522  62.2823704  24.0463436  84.9782044  62.8245385  24.1401660
  86.4607267  62.7997684  24.4457677  89.0711172  48.0918334  26.6897641
  89.5679872  47.3388296  26.3698711  88.2998154  48.1282650  26.1240850
  96.9240929  53.7958699  28.3315933  96.9130806  54.6783415  27.9609866
  96.0558309  53.4430250  28.1370470  88.4323426  62.9438768  32.6918773
  89.1451398  63.5786233  32.6194674  87.9413454  63.0402634  31.8758775
  90.1540953  56.8490021  24.2636064  89.2197231  56.9691484  24.0940769
  90.3317621  55.9462488  23.9996074  85.6546141  50.2335717  26.4169326
  85.2843928  49.6806757  27.1050231  86.1505233  49.6293850  25.8644326
  93.5413504  52.6907340  24.7986099  94.0073956  53.5235332  24.7246401
  93.9921005  52.2252322  25.5031357  83.4835339  60.6933212  33.5124344
  84.1844799  61.3269695  33.6653738  83.0130454  61.0347943  32.7519983
  91.6089735  59.0351162  21.7972251  91.8849579  58.9207756  22.7066125
  90.7394234  58.6368646  21.7584424  91.5130167  45.0587927  28.8377000
  90.5993247  45.2892154  29.0059207  91.9423268  45.1426371  29.6891032
  91.2836625  53.2477819  31.3376894  90.6308076  53.4953727  30.6829347
  91.6617005  52.4341957  31.0039371  88.2443799  63.2837512  25.4405064
  88.4266194  62.4659168  25.9032817  89.0676785  63.5005205  25.0029954
  88.5785965  62.2105698  22.7020113  89.1073731  61.6998152  22.0890275
  88.8414184  61.8948228  23.5665646  87.3324198  53.9897630  37.8242931
  86.6564835  53.8891760  38.4945306  88.1551832  53.8336844  38.2878928
  79.0803057  60.2269567  30.4455446  79.6656494  59.4813255  30.5783350
  78.8827896  60.5373524  31.3292110  81.9341713  63.2620814  25.4617889
  81.2652088  63.7466942  24.9781929  81.7954582  63.5090035  26.3761267
  86.0746981  65.2964558  32.0600547  86.6265289  65.4596179  32.8249632
  86.4153175  65.8868996  31.3880572  81.0511474  47.6439708  32.6622432
  81.1152801  48.5054538  32.2499829  80.9878595  47.0313709  31.9294790
  90.9257856  60.1225815  37.9149201  91.4697760  60.7355774  37.4204156
  90.3444700  60.6805394  38.4316214  77.3029290  51.5239269  22.2413821
  77.5982731  50.6149948  22.1880874  76.4017326  51.5027009  21.9194823
  89.2115369  63.2446533  29.0464229  89.0866508  62.4436273  28.5375175
  89.8694460  63.7392727  28.5578199  80.8323537  49.5995266  28.2241369
  80.1110123  50.2131234  28.0848843  81.6216793  50.1353031  28.1458015
  91.2750277  61.0455553  30.6743779  90.3280612  60.9260905  30.6022106
  91.6233050  60.1578051  30.7570041  83.6349850  46.9349692  34.4982021
  84.1584252  47.1811989  35.2608330  83.4162184  47.7669727  34.0785158
  79.0317131  49.2053367  22.3653146  78.7029837  48.3250746  22.1828252
  79.3856502  49.1501036  23.2529535  88.2796710  60.8408270  26.8748131
  88.1321673  59.9124977  27.0555701  89.1050204  60.8628360  26.3905207
  82.1458954  49.4926337  22.7328624  82.4855027  50.0212258  22.0107232
  82.5931075  49.8306743  23.5087190  91.8830832  61.6636828  27.9613004
  92.8077380  61.4579690  27.8237455  91.7146135  61.4153230  28.8702346
  84.8402395  47.8763387  32.1831692  84.4999216  47.0771200  32.5852372
  84.1341402  48.1765098  31.6108525  85.4918867  44.9612700  30.6359015
  86.3144936  44.4873178  30.5137905  85.7356931  45.7403184  31.1357701
  84.1327102  47.9900958  20.9321916  84.8535464  48.3682211  20.4285633
  83.5092406  48.7089835  21.0356894  88.2758225  48.6946107  21.8680249
  88.4921839  49.5770745  21.5669077  87.7952292  48.3032321  21.1385891
  83.0157446  51.6531820  28.4450993  82.8702027  51.9672124  29.3375275
  82.5382650  52.2716721  27.8921892  84.8753829  48.6434368  28.4931883
  84.8615398  47.7475462  28.1564181  85.5926257  48.6505032  29.1270169
  86.7279959  49.0771709  30.5385010  86.4697737  49.9988779  30.5369341
  86.1965000  48.6802143  31.2285474  91.6726148  62.1822496  23.3175096
  91.8463026  61.6168918  22.5648948  92.1655039  62.9823391  23.1354586
  84.2790725  47.5248749  23.7619453  84.4006636  46.5965395  23.9610340
  83.9892767  47.5387435  22.8497768  87.1481915  45.2103659  26.8986173
  87.1703612  45.2742992  25.9438152  87.5649974  44.3708168  27.0926679
  97.5265539  54.9458919  24.9365395  97.9696685  54.1966244  24.5384519
  96.6492050  54.9369055  24.5539127  92.6601321  61.4989260  20.4171994
  93.3552225  62.1195953  20.6359309  93.0024471  60.6484611  20.6924372
  94.5592744  58.9488966  21.9459325  95.0844068  59.2876238  21.2208645
  94.4715096  58.0135981  21.7622459  86.2212793  62.8623039  34.0749201
  86.5299919  62.6172186  34.9471901  87.0188275  63.0669678  33.5868072
  86.2433405  65.0160949  26.3054578  85.8038395  64.5237328  26.9987435
  86.9941522  64.4733917  26.0646653  78.7225744  61.2072490  26.3079206
  79.5483764  60.9076262  25.9277850  78.3719796  60.4380112  26.7568995
  83.6907277  60.5598958  28.3776880  83.0687286  59.8969663  28.0779107
  84.3612144  60.5860090  27.6950527  76.9234349  59.1258816  27.2668140
  76.0866257  58.6980991  27.0852141  76.8957994  59.3191260  28.2038931
  94.2486650  59.5821869  37.2510523  93.4582194  59.5646008  36.7115022
  94.0120004  60.1210163  38.0059559  94.3684525  56.4314336  34.5643251
  94.4182530  56.2664343  35.5058774  94.2598448  55.5641595  34.1741132
  83.2520784  59.1102881  21.8535340  83.4008904  59.7938346  21.2002013
  84.0587227  59.0907971  22.3684796  91.6588287  52.4145264  35.8802558
  92.5598150  52.2751729  35.5886556  91.7336262  52.5799719  36.8200735
  85.9931093  49.7912119  34.7255744  85.1234402  50.0845685  34.4538333
  86.2290573  50.3752564  35.4463008  95.8702722  58.8511277  34.8085273
  95.5787530  59.2141258  35.6448734  95.2574853  58.1378286  34.6298605
  97.0698404  56.4164157  27.3287843  97.9045296  56.8553961  27.4925403
  97.2057533  55.9402810  26.5096089  94.1189910  53.9743892  33.2765331
  94.5944032  54.1671538  32.4684182  93.1955475  54.0303078  33.0308714
  81.0073417  55.1368059  22.8596409  80.7619459  54.2330389  23.0576619
  81.1769331  55.1385210  21.9175887  88.6970127  46.0091735  32.2421165
  89.2152070  46.7452762  31.9167653  88.3425259  46.3155729  33.0767924
  80.2769064  50.8696417  20.3582570  79.5838309  50.9440772  19.7022606
  80.0320816  50.1056760  20.8804087  88.9482721  42.4292018  27.7622061
  89.2284474  41.7615207  28.3882488  89.7333328  42.6221114  27.2496725
  86.7516189  61.6051012  19.3247088  86.1790156  62.2241199  18.8717559
  87.3248983  62.1550374  19.8587009  92.8191579  50.8509652  31.5093636
  93.7709002  50.9507750  31.5305860  92.6495029  50.0587921  32.0191721
  90.8405959  47.9365235  31.6953037  90.2455891  48.2170248  30.9999526
  90.5555655  48.4259136  32.4669778  89.9713449  61.8888162  20.4555670
  90.9044122  61.8233724  20.6588545  89.8836662  62.7244429  19.9970202
  92.6001466  61.2054032  17.4159617  92.5215097  60.8713896  18.3095375
  93.4211132  61.6975800  17.4151090  95.2979657  54.0715772  30.6235936
  95.2655977  53.1331772  30.8095620  95.9080280  54.1499808  29.8901761
  87.1362988  52.9411825  16.6663140  88.0822092  52.8118033  16.7351558
  86.7577233  52.2026487  17.1432568  95.4474145  50.8626815  30.6694219
  94.9313194  50.0785272  30.4824148  96.3314094  50.5345532  30.8340739
  93.1084872  44.6067831  26.6290032  92.9109693  44.2982919  27.5133364
  93.7184578  45.3329470  26.7587962 101.1156207  55.1331779  29.7641973
 101.8459595  54.8717067  30.3249676 100.5063152  54.3960500  29.8044041
  99.1971504  53.2739641  30.3616424  98.4704667  53.1395606  29.7532916
  98.7818791  53.5816470  31.1673142  87.0201680  56.9929571  38.1263797
  87.9404690  57.1708170  38.3203844  86.9851263  56.0485616  37.9743496
  85.3205905  50.8661801  16.6018025  84.4137360  50.5694914  16.6780739
  85.5981886  50.5691619  15.7352311  76.2383845  52.1868164  27.0517072
  75.9186630  51.3333473  26.7591446  75.6917273  52.4016743  27.8075039
  80.0163753  54.9030605  30.7686578  80.2349763  55.8347713  30.7874612
  80.4289527  54.5438580  31.5541382  86.9367971  45.4098691  22.7562267
  86.1268699  45.0645776  23.1317513  87.6252388  45.1006234  23.3449878
  88.8658519  44.4876738  24.3786563  89.4189557  44.9072191  25.0376586
  89.1028605  43.5612486  24.4209519  84.0904689  47.7248736  16.7430004
  84.9523853  48.0503635  17.0025822  84.2755034  46.9380232  16.2303070
  92.2437326  46.5977263  23.8865227  91.6635995  47.2562067  23.5043280
  91.9773259  45.7754607  23.4752645  90.6940892  45.9982320  26.0886548
  91.1940671  46.1098855  25.2800867  91.3376500  45.6943373  26.7287356
  78.0208848  55.7389330  26.8976208  77.9979536  55.8377017  25.9458091
  78.3309484  56.5854481  27.2193374  80.6796226  57.7965485  31.0122823
  81.6339479  57.7649427  30.9452754  80.4808749  57.3356108  31.8273048
  91.0262204  48.7577353  22.9421576  90.1388059  49.0427004  22.7241770
  91.4416193  48.5971116  22.0948853  94.3776740  48.7823874  26.6575915
  95.1537130  49.2720327  26.9300532  93.6524874  49.2081928  27.1147784
  96.8149299  49.4951493  27.7149856  97.4093790  49.2547229  27.0043164
  96.8875882  48.7758624  28.3423392  79.0346454  63.3385104  28.0293020
  78.9000922  62.5785505  27.4631018  78.6178517  64.0626004  27.5621809
  90.1705417  58.5222028  17.0369596  90.8741268  58.7272030  17.6527251
  89.4468066  59.0898790  17.3018679  91.0003228  54.2731889  23.1571866
  90.9438429  54.7300440  22.3179498  91.5531570  53.5122574  22.9794709
  94.8108034  50.0621621  23.9821985  94.5544968  49.6618257  24.8130193
  94.1860902  50.7765415  23.8572125  99.1220371  52.8017694  26.4893277
  98.5619929  52.8710883  27.2624839  98.5163875  52.6258679  25.7692773
  82.1915580  64.2354421  28.2411463  82.0747964  65.1799854  28.1390153
  81.3708027  63.9327983  28.6297262  92.0792115  58.9604557  19.0868056
  92.9137719  58.5285755  18.9045531  91.9176458  58.7886571  20.0144950
  91.7338007  55.4636670  20.4524395  91.6786811  55.2980942  19.5112839
  91.1084062  56.1712703  20.6086585  89.0483914  57.7685582  39.7777958
  89.9175074  57.9426234  39.4164593  88.5690666  58.5879999  39.6553687
  85.0434132  44.9644779  20.0309713  85.0312802  45.9086619  20.1877984
  85.9357554  44.7814925  19.7369175  83.2170094  64.8882683  31.4567391
  84.1197341  64.9206293  31.7733886  82.9907464  63.9583134  31.4713727
  84.9723696  63.6413670  28.1177470  84.0219327  63.6415531  28.0041842
  85.2756183  62.8946404  27.6013505  88.8586252  41.5587556  24.2855650
  88.0918648  41.0046043  24.4312333  89.2696957  41.6309425  25.1469802
 100.7076390  69.4774208  29.1823232 101.3454800  69.3580955  28.4786573
 100.5897233  70.4255052  29.2411185  97.5166096  69.4301636  29.1184757
  97.1784608  69.3142701  28.2305292  98.3855864  69.0292801  29.0985763
  93.3752912  71.2837113  25.1081648  92.8117777  71.1927050  24.3397936
  93.2605307  70.4637017  25.5884141  97.9985879  70.5836488  35.0770963
  97.9874520  70.1889286  34.2051466  98.1606519  69.8502561  35.6704734
  90.9217344  72.7788304  27.9465869  91.7138636  72.4379129  27.5312168
  91.1613994  72.8883279  28.8668022  98.9552471  74.9508080  20.4196113
  98.3040450  75.5362161  20.0330127  99.7496833  75.4814275  20.4791151
  92.8808098  72.0397217  20.8183247  93.6538974  71.4926205  20.6796123
  93.2333497  72.9041467  21.0297709  94.7193140  73.3673600  34.0250147
  94.4283006  74.2719231  33.9096813  95.3550125  73.4090127  34.7394216
  95.6449347  70.7450448  30.6151506  96.2412919  70.5206471  29.9008469
  95.7024319  70.0035194  31.2176954  95.2174376  68.1989884  18.4501697
  95.4699896  67.6771405  17.6885160  94.2798935  68.0356029  18.5528381
 100.2617658  67.2025662  26.2576441 101.0480748  66.7845085  25.9066858
 100.5256363  68.1071754  26.4258089 100.4327736  72.6398512  20.9565097
  99.7973569  72.7133139  21.6686002 100.1025142  73.2292111  20.2784177
 105.6626086  67.1400895  27.1609419 106.3951257  66.5700112  27.3947249
 104.9065441  66.7522496  27.6015925  94.9370664  70.1017990  20.6526072
  94.8206922  69.4262893  21.3207157  95.0472924  69.6150363  19.8358225
  97.2802205  69.5628137  24.3572762  96.9160412  69.0358758  25.0685683
  98.1369321  69.1726606  24.1839247 103.1851506  60.8522469  31.6204028
 102.8534831  61.7217880  31.3965243 102.5897119  60.5358753  32.2998058
  96.9207692  64.5918036  19.3534110  97.0882095  65.4598273  19.7204581
  96.7304861  64.7545318  18.4295399  99.6783025  73.0535015  31.0199940
  99.3783749  73.9560054  30.9115748  99.3334085  72.7867198  31.8721093
  93.1295507  69.5048812  27.0536645  92.2046003  69.3725026  27.2614337
  93.3779920  70.2843031  27.5506587 103.0780169  65.5717555  28.6997378
 102.1697047  65.5032964  28.4056139 103.0267765  66.0489500  29.5279203
  96.8996913  67.0475694  20.3380777  96.7796538  67.4932745  21.1766257
  96.2049501  67.3961011  19.7794315  90.4904318  69.1482086  27.8880434
  90.6196699  69.4016565  28.8019846  89.8101769  69.7409794  27.5685089
  94.6603805  79.8179336  23.9870908  94.5827835  80.7687161  24.0659389
  94.0565449  79.4725208  24.6445834  97.1521035  66.9907201  36.6432275
  96.3754369  67.5501121  36.6335140  97.7911598  67.4763984  37.1647145
 104.9441816  63.7733994  30.4775252 104.3016196  64.0666527  29.8315046
 104.4396744  63.6586914  31.2828448 102.5981979  67.5197167  21.1661111
 103.5099835  67.7524554  20.9908808 102.0891626  68.1034211  20.6036189
  95.4067407  69.7992654  36.2050242  96.1482092  70.3377698  35.9285066
  94.7004393  70.4258943  36.3621794 100.8822747  71.9421795  34.8022403
 101.2906103  71.5004205  34.0577036 100.1600008  71.3674422  35.0556596
  97.2353817  66.8794402  32.1755960  98.0815012  67.3033815  32.3190609
  97.1752455  66.2228026  32.8694524 101.2051562  72.5022985  28.5574692
 100.5760424  72.6668700  27.8550760 100.8177224  72.9164595  29.3285656
 105.0840793  73.4377423  25.9119056 104.3991832  73.8176325  25.3616089
 105.1684643  74.0472750  26.6451004 100.3853262  64.5398770  33.8337134
 100.1414194  65.2940830  33.2971410 100.6613193  64.9184118  34.6684381
 102.3391725  71.0837382  32.5114400 102.5508620  71.7269142  31.8348781
 102.2921473  70.2499699  32.0436330  99.9417954  63.6955203  29.4150972
  99.0802433  63.9936457  29.7067709  99.9680389  63.9125602  28.4832004
  96.7579523  72.2397394  25.8224777  97.2217869  72.5185097  25.0329400
  96.4936322  71.3380838  25.6397868  93.6503605  71.7868875  28.7604541
  94.2204962  72.2156143  28.1222025  94.2411716  71.5051460  29.4588726
  95.6948410  68.3620546  22.6314343  96.3972453  68.8141590  23.0988269
  95.3629038  67.7204365  23.2594236  94.1428771  66.9532303  37.0065552
  93.5127432  67.6348583  37.2400949  94.0364859  66.8415384  36.0618690
  89.4373743  66.6204099  27.9331476  88.6472797  66.8761627  27.4571587
  89.9284991  67.4352436  28.0383517 103.4537553  73.9609338  30.6836757
 104.2754997  73.5589525  30.4019439 103.4499956  73.8577572  31.6352873
  91.3888489  66.9848678  24.8914953  90.5919652  67.0967372  25.4098449
  91.1614081  67.3235330  24.0255843  97.2194156  73.5093381  32.8397467
  97.2838589  73.9713788  33.6755639  96.5105080  72.8790746  32.9679777
  87.7211446  66.8734589  30.3646467  87.9719485  67.7581599  30.6304043
  88.2570995  66.6939191  29.5921559  96.9342174  75.1761489  22.7076448
  96.7987849  76.0213024  23.1361296  97.4751987  75.3780766  21.9442382
  93.4209514  61.2553068  39.3690803  93.0276459  60.7019267  40.0438447
  94.2375654  61.5663647  39.7597321  90.3871572  72.6936927  23.2804373
  90.8996092  73.4880177  23.4309938  91.0394284  71.9963217  23.2137974
  92.1966456  75.8102683  25.3627126  92.3733085  76.7320648  25.1748110
  92.9923290  75.4961102  25.7921506  96.3377475  62.6710947  36.9611060
  97.0787188  63.2718101  36.8815522  96.5695398  61.9288585  36.4029102
  91.4818813  67.8567315  35.2389289  91.3672328  66.9552572  35.5396388
  90.6263331  68.1031011  34.8874106  98.5610651  75.7985055  36.8376790
  98.1174505  75.0121434  36.5197694  99.2227864  75.9864206  36.1720681
  93.3197772  77.3280857  31.3637468  93.8705197  77.1997920  30.5914462
  92.4809248  77.6275746  31.0132361 100.6591889  76.0787855  34.8658191
 100.6410364  76.8996736  34.3738460 101.5811809  75.9541930  35.0908332
  97.1164943  73.5931984  35.7081700  97.6493280  72.8320273  35.4781008
  96.5879024  73.3005636  36.4505854 100.2834638  58.6992050  31.2375341
  99.9398907  59.5893692  31.1614452 100.6513600  58.5093708  30.3744926
  88.3520488  71.0225581  24.0563943  89.1895710  71.4322589  23.8397651
  88.5298756  70.0825023  24.0264137 100.2484920  68.6900662  19.7447776
  99.7331544  69.4605266  19.9836164  99.9762229  68.0165798  20.3680838
  97.8332031  63.5350362  24.8033015  96.9773628  63.1457213  24.6238653
  98.2458983  63.6142323  23.9432800  99.3631178  61.0696706  29.2024575
  98.8595974  61.0326841  28.3892380  99.6561785  61.9789448  29.2621231
  95.6074064  61.1535435  28.2090756  96.4727061  60.9578244  27.8496646
  95.6751573  60.9245787  29.1360113 105.2219195  71.4433016  21.6800950
 104.4448637  71.1044176  21.2356112 105.9010676  71.4485639  21.0055915
 100.0371224  66.5627754  21.5707558  99.7321359  66.8773903  22.4217701
 100.9901666  66.6409174  21.6134891  98.4817655  72.7217977  23.2200512
  97.9539017  71.9870737  22.9073749  97.9805158  73.4992653  22.9740480
 103.4610501  70.9166997  28.3367558 102.8034176  71.6066259  28.4247686
 104.2650901  71.3063429  28.6801544  93.2136383  63.3837643  25.5807123
  93.7880135  63.1612825  24.8480316  93.8007365  63.4526338  26.3335724
 102.2715960  69.2711370  26.3871500 102.7847842  69.9041362  26.8893209
 102.9217184  68.6712566  26.0214860  93.5405970  65.4142104  19.6003008
  92.7043282  65.7516791  19.9212283  93.4010740  65.2791084  18.6630145
  95.5159051  60.2578892  24.3082192  94.8623463  59.9427909  23.6838807
  95.4739525  59.6354633  25.0342015  96.6270256  70.5398187  16.2235485
  95.7197317  70.3087441  16.4226634  97.1241288  69.7435806  16.4109466
  98.7496791  66.7460826  28.6329840  97.8319353  66.9675773  28.4751528
  99.1656935  66.8207136  27.7741547  99.5331839  68.1452241  23.7632520
 100.2803658  68.6573639  23.4539642  99.8023428  67.8236294  24.6236914
  97.8058489  70.6410782  20.7459475  96.8969708  70.3569815  20.8431944
  97.8353573  71.0609861  19.8862782 103.0377756  74.2517372  24.5150642
 102.5840084  73.4108281  24.5715833 102.4071723  74.8878770  24.8525422
 101.9810676  65.1809358  25.7451310 101.2433433  64.6686744  26.0761552
 102.2337450  64.7409739  24.9334587 101.4810696  76.0893868  25.4500460
 101.7733670  76.6498925  24.7312826 101.9909316  76.3822429  26.2053619
 102.0822303  57.9585610  26.3393079 102.3881180  57.0982973  26.0518994
 102.8074908  58.5503230  26.1392073  88.3746659  68.3616296  24.7274677
  88.1771059  67.7685657  24.0025743  87.8193323  68.0568506  25.4450616
  96.3543383  68.2539403  26.8469270  96.4091993  67.3013239  26.7711747
  95.5434585  68.4098842  27.3310568  97.5034577  72.1819526  18.0847553
  97.0654007  71.4655385  17.6253191  98.2445018  72.4095641  17.5232645
  94.2935743  66.8716462  24.6059649  93.4803609  67.1710633  25.0124841
  94.7894737  66.4772151  25.3234131  96.4444321  76.8674219  26.5393914
  96.4020500  77.0935066  25.6102446  97.3607020  76.6337594  26.6879715
  99.8909955  67.3358287  33.4374543 100.2459342  67.5629760  34.2969009
 100.5382086  67.6676664  32.8151798 105.6207692  70.4576723  24.1423872
 105.4825590  70.6478319  23.2145061 105.2643910  71.2196106  24.5991923
  93.7849818  64.4434818  30.2220884  94.4249197  64.3023577  29.5243847
  92.9527348  64.1569331  29.8459486 105.6477071  72.5253250  29.1535143
 106.0813578  72.4328539  30.0018197 106.3608652  72.5010750  28.5155159
  94.5610122  73.7437248  26.3355876  95.3550720  73.2487568  26.1338451
  93.8501814  73.2155111  25.9723582  99.3804966  76.1255344  30.6868244
  99.4341988  76.6946280  31.4545960  98.5119748  76.2957229  30.3222281
  90.8692885  67.8880330  22.4115629  89.9390473  67.8264786  22.6285591
  90.9650357  67.3656283  21.6152270  90.7878434  64.4135143  24.9993871
  91.0485252  65.3280476  24.8903031  91.6095607  63.9459585  25.1490483
  92.2603360  65.8272900  32.1692695  92.9326413  65.6190262  31.5205344
  91.4333146  65.6294986  31.7297927 106.5092621  72.5676950  31.6868029
 106.7028511  73.4722761  31.9327304 106.4093239  72.1084370  32.5206614
  98.1628932  62.4534841  34.1858356  97.5156847  63.1524791  34.0922832
  98.9329947  62.8870985  34.5534604 101.5707729  72.7183693  37.2608909
 101.4193236  72.4894245  36.3438993 101.5612409  73.6754295  37.2740254
  98.3393066  70.2915606  32.2455176  99.2685126  70.4426766  32.0724143
  97.9184096  70.3799627  31.3903822  97.1381398  74.3166270  30.0153713
  96.9992483  73.9485055  30.8879652  96.3495994  74.8313910  29.8437671
  97.7329550  79.4175367  21.3579250  97.9081305  78.9463410  22.1724873
  97.0462338  80.0441133  21.5860511  98.6886613  73.6947873  27.4042551
  98.3536445  73.6548643  28.3000201  98.1890559  73.0292589  26.9312961
  92.6630857  69.1015503  32.9295132  92.5250655  68.3695742  33.5306671
  93.5735780  69.0124403  32.6479320  95.2913157  68.8135462  32.4178812
  96.0012776  68.1728655  32.3765430  95.2482466  69.0648357  33.3404993
 103.2799936  75.7502816  35.3385391 103.2212482  75.0662036  34.6715974
 103.6819455  76.4921806  34.8866017  94.0042091  65.8000680  34.2374451
  93.4679448  65.3491419  34.8896048  93.4158800  65.9346589  33.4944916
  92.2990635  82.5664730  28.1319110  92.5387233  83.1983254  28.8098129
  91.4559831  82.2152770  28.4184469  93.4144350  65.2589332  16.8000915
  92.5373817  65.1378132  16.4363162  93.8902103  64.4675410  16.5479804
 103.2817343  73.7142400  33.5699371 102.3944122  73.3768321  33.6925770
 103.8515894  72.9825431  33.8068136  84.9346491  70.0466491  26.8942422
  85.6217530  69.7328221  26.3063438  84.7794619  70.9507856  26.6209674
  89.7381213  64.9356688  31.3227446  89.6539401  64.3282358  30.5877856
  88.9163919  65.4265706  31.3236942  96.8118497  78.3743852  30.5360614
  96.7388668  79.1798824  31.0479919  96.3695890  78.5735818  29.7108635
  96.6008276  77.6115622  24.0463436  95.8175798  78.1537302  24.1401660
  97.3001022  78.1289602  24.4457677  99.9104927  63.4210252  26.6897641
 100.4073626  62.6680214  26.3698711  99.1391908  63.4574568  26.1240850
 107.7634684  69.1250617  28.3315933 107.7524560  70.0075332  27.9609866
 106.8952063  68.7722168  28.1370470  99.2717180  78.2730686  32.6918773
  99.9845153  78.9078151  32.6194674  98.7807209  78.3694552  31.8758775
 100.9934707  72.1781939  24.2636064 100.0590986  72.2983401  24.0940769
 101.1711376  71.2754405  23.9996074  96.4939895  65.5627634  26.4169326
  96.1237683  65.0098675  27.1050231  96.9898988  64.9585768  25.8644326
 104.3807259  68.0199258  24.7986099 104.8467711  68.8527250  24.7246401
 104.8314759  67.5544240  25.5031357  94.3229094  76.0225130  33.5124344
  95.0238553  76.6561612  33.6653738  93.8524209  76.3639861  32.7519983
 102.4483490  74.3643079  21.7972251 102.7243334  74.2499674  22.7066125
 101.5787988  73.9660564  21.7584424 102.3523921  60.3879845  28.8377000
 101.4387001  60.6184072  29.0059207 102.7817023  60.4718289  29.6891032
 102.1230380  68.5769737  31.3376894 101.4701830  68.8245644  30.6829347
 102.5010760  67.7633875  31.0039371  99.0837554  78.6129430  25.4405064
  99.2659948  77.7951086  25.9032817  99.9070540  78.8297122  25.0029954
  99.4179719  77.5397615  22.7020113  99.9467486  77.0290070  22.0890275
  99.6807939  77.2240145  23.5665646  98.1717953  69.3189548  37.8242931
  97.4958590  69.2183677  38.4945306  98.9945587  69.1628762  38.2878928
  89.9196812  75.5561485  30.4455446  90.5050249  74.8105172  30.5783350
  89.7221650  75.8665441  31.3292110  92.7735467  78.5912732  25.4617889
  92.1045842  79.0758860  24.9781929  92.6348337  78.8381952  26.3761267
  84.5114467  68.1267085  29.1659889  84.5498566  67.5930675  29.9597007
  84.0054759  67.6002290  28.5470867  96.9140736  80.6256475  32.0600547
  97.4659044  80.7888097  32.8249632  97.2546929  81.2160913  31.3880572
  91.8905229  62.9731625  32.6622432  91.9546555  63.8346456  32.2499829
  91.8272349  62.3605627  31.9294790  91.3657501  65.0454758  36.3095466
  91.9929540  64.6631835  36.9232990  90.5085420  64.8268960  36.6751158
 101.7651610  75.4517733  37.9149201 102.3091514  76.0647691  37.4204156
 101.1838455  76.0097311  38.4316214  88.1423044  66.8531187  22.2413821
  88.4376485  65.9441865  22.1880874  87.2411080  66.8318926  21.9194823
 100.0509123  78.5738451  29.0464229  99.9260262  77.7728191  28.5375175
 100.7088214  79.0684644  28.5578199  91.6717291  64.9287183  28.2241369
  90.9503877  65.5423151  28.0848843  92.4610547  65.4644948  28.1458015
 102.1144031  76.3747471  30.6743779 101.1674367  76.2552822  30.6022106
 102.4626804  75.4869969  30.7570041  94.4743605  62.2641610  34.4982021
  94.9978007  62.5103907  35.2608330  94.2555938  63.0961645  34.0785158
  89.8710886  64.5345285  22.3653146  89.5423592  63.6542663  22.1828252
  90.2250257  64.4792953  23.2529535  99.1190465  76.1700187  26.8748131
  98.9715427  75.2416895  27.0555701  99.9443958  76.1920278  26.3905207
  92.9852709  64.8218254  22.7328624  93.3248781  65.3504176  22.0107232
  93.4324829  65.1598660  23.5087190 102.7224587  76.9928746  27.9613004
 103.6471134  76.7871607  27.8237455 102.5539890  76.7445147  28.8702346
  95.6796150  63.2055305  32.1831692  95.3392970  62.4063118  32.5852372
  94.9735156  63.5057016  31.6108525  96.3312622  60.2904618  30.6359015
  97.1538691  59.8165096  30.5137905  96.5750685  61.0695101  31.1357701
  94.9720856  63.3192876  20.9321916  95.6929219  63.6974129  20.4285633
  94.3486160  64.0381753  21.0356894  99.1151979  64.0238025  21.8680249
  99.3315593  64.9062663  21.5669077  98.6346046  63.6324238  21.1385891
  93.8551200  66.9823738  28.4450993  93.7095781  67.2964041  29.3375275
  93.3776404  67.6008638  27.8921892  95.7147583  63.9726286  28.4931883
  95.7009152  63.0767379  28.1564181  96.4320011  63.9796950  29.1270169
  97.5673714  64.4063626  30.5385010  97.3091492  65.3280697  30.5369341
  97.0358754  64.0094061  31.2285474 102.5119903  77.5114413  23.3175096
 102.6856780  76.9460836  22.5648948 103.0048794  78.3115308  23.1354586
  88.3296863  69.5229083  31.3838654  87.7850331  70.2988891  31.5158929
  89.2076212  69.8699887  31.2257776  95.1184479  62.8540666  23.7619453
  95.2400390  61.9257313  23.9610340  94.8286522  62.8679352  22.8497768
  97.9875670  60.5395577  26.8986173  98.0097366  60.6034910  25.9438152
  98.4043729  59.7000086  27.0926679  89.1162884  68.6498979  34.2768811
  88.3744620  68.7981614  34.8633442  88.7955629  68.9107244  33.4135561
 105.3986498  74.2780883  21.9459325 105.9237822  74.6168156  21.2208645
 105.3108851  73.3427899  21.7622459  97.0606547  78.1914957  34.0749201
  97.3693673  77.9464104  34.9471901  97.8582029  78.3961596  33.5868072
  97.0827159  80.3452867  26.3054578  96.6432149  79.8529245  26.9987435
  97.8335276  79.8025834  26.0646653  89.5619498  76.5364408  26.3079206
  90.3877518  76.2368179  25.9277850  89.2113550  75.7672030  26.7568995
  94.5301031  75.8890876  28.3776880  93.9081041  75.2261581  28.0779107
  95.2005898  75.9152008  27.6950527  87.7628103  74.4550734  27.2668140
  86.9260011  74.0272908  27.0852141  87.7351749  74.6483177  28.2038931
  94.6025559  64.3672664  37.9709386  94.6513714  65.2434787  37.5887155
  95.1448073  63.8250057  37.3981029 105.0880404  74.9113787  37.2510523
 104.2975948  74.8937926  36.7115022 104.8513759  75.4502081  38.0059559
 105.2078279  71.7606253  34.5643251 105.2576284  71.5956261  35.5058774
 105.0992203  70.8933512  34.1741132  94.0914538  74.4394799  21.8535340
  94.2402659  75.1230264  21.2002013  94.8980982  74.4199889  22.3684796
 102.4982042  67.7437181  35.8802558 103.3991905  67.6043646  35.5886556
 102.5730016  67.9091636  36.8200735  96.8324847  65.1204036  34.7255744
  95.9628157  65.4137602  34.4538333  97.0684328  65.7044481  35.4463008
 106.7096476  74.1803195  34.8085273 106.4181285  74.5433175  35.6448734
 106.0968608  73.4670203  34.6298605 104.9583665  69.3035810  33.2765331
 105.4337786  69.4963456  32.4684182 104.0349230  69.3594995  33.0308714
  91.8467171  70.4659977  22.8596409  91.6013213  69.5622307  23.0576619
  92.0163086  70.4677127  21.9175887  99.5363881  61.3383653  32.2421165
 100.0545825  62.0744680  31.9167653  99.1819014  61.6447646  33.0767924
  91.1162819  66.1988334  20.3582570  90.4232064  66.2732689  19.7022606
  90.8714571  65.4348678  20.8804087  99.7876475  57.7583936  27.7622061
 100.0678229  57.0907125  28.3882488 100.5727082  57.9513031  27.2496725
 103.6585334  66.1801570  31.5093636 104.6102756  66.2799667  31.5305860
 103.4888784  65.3879838  32.0191721 101.6799713  63.2657153  31.6953037
 101.0849645  63.5462166  30.9999526 101.3949410  63.7551054  32.4669778
 106.1373411  69.4007689  30.6235936 106.1049731  68.4623690  30.8095620
 106.7474035  69.4791726  29.8901761  97.9756742  68.2703742  16.6663140
  98.9215847  68.1409950  16.7351558  97.5970987  67.5318404  17.1432568
 106.2867900  66.1918733  30.6694219 105.7706948  65.4077189  30.4824148
 107.1707848  65.8637449  30.8340739 103.9478627  59.9359748  26.6290032
 103.7503448  59.6274837  27.5133364 104.5578332  60.6621387  26.7587962
  97.8595435  72.3221488  38.1263797  98.7798444  72.5000087  38.3203844
  97.8245018  71.3777534  37.9743496  96.1599659  66.1953719  16.6018025
  95.2531115  65.8986831  16.6780739  96.4375640  65.8983537  15.7352311
  87.0777600  67.5160082  27.0517072  86.7580384  66.6625390  26.7591446
  86.5311028  67.7308660  27.8075039  90.8557507  70.2322523  30.7686578
  91.0743517  71.1639631  30.7874612  91.2683281  69.8730498  31.5541382
  97.7761725  60.7390608  22.7562267  96.9662453  60.3937693  23.1317513
  98.4646142  60.4298152  23.3449878  99.7052273  59.8168655  24.3786563
 100.2583312  60.2364109  25.0376586  99.9422360  58.8904403  24.4209519
  95.7285373  65.8055729  40.1589327  95.6282099  66.7550086  40.0901418
  95.5106915  65.4773968  39.2865397  94.9298444  63.0540654  16.7430004
  95.7917608  63.3795552  17.0025822  95.1148788  62.2672150  16.2303070
  86.9465860  71.1362994  29.0210193  86.2529331  70.7216946  28.5080148
  87.6938851  71.1783530  28.4243612 103.0831080  61.9269180  23.8865227
 102.5029749  62.5853984  23.5043280 102.8167013  61.1046525  23.4752645
 101.5334647  61.3274238  26.0886548 102.0334425  61.4390773  25.2800867
 102.1770255  61.0235291  26.7287356  95.5916643  69.2352868  38.9754389
  95.1083724  70.0353228  39.1818278  95.6777582  69.2460813  38.0221833
  88.8602602  71.0681247  26.8976208  88.8373290  71.1668935  25.9458091
  89.1703239  71.9146398  27.2193374  91.5189980  73.1257402  31.0122823
  92.4733234  73.0941345  30.9452754  91.3202504  72.6648026  31.8273048
  92.1089362  71.6958518  33.5793620  92.9282251  72.1902597  33.6028457
  92.3826170  70.7790487  33.5511188 101.8655958  64.0869271  22.9421576
 100.9781813  64.3718921  22.7241770 102.2809948  63.9263034  22.0948853
 105.2170495  64.1115792  26.6575915 105.9930885  64.6012244  26.9300532
 104.4918629  64.5373846  27.1147784 107.6543053  64.8243411  27.7149856
 108.2487544  64.5839147  27.0043164 107.7269637  64.1050542  28.3423392
  89.8740209  78.6677022  28.0293020  89.7394677  77.9077423  27.4631018
  89.4572271  79.3917922  27.5621809 101.8396982  69.6023807  23.1571866
 101.7832184  70.0592358  22.3179498 102.3925325  68.8414491  22.9794709
 105.6501788  65.3913539  23.9821985 105.3938722  64.9910174  24.8130193
 105.0254656  66.1057333  23.8572125  93.0309335  79.5646339  28.2411463
  92.9141719  80.5091771  28.1390153  92.2101781  79.2619900  28.6297262
 102.5731762  70.7928588  20.4524395 102.5180565  70.6272859  19.5112839
 101.9477817  71.5004621  20.6086585  87.3624276  66.0296652  34.2785817
  88.0083140  65.5195606  34.7673042  87.1541428  66.7665334  34.8529243
  99.8877669  73.0977500  39.7777958 100.7568828  73.2718152  39.4164593
  99.4084420  73.9171917  39.6553687  95.8827887  60.2936697  20.0309713
  95.8706557  61.2378537  20.1877984  96.7751309  60.1106842  19.7369175
  94.0563849  80.2174601  31.4567391  94.9591096  80.2498211  31.7733886
  93.8301219  79.2875052  31.4713727  95.8117451  78.9705587  28.1177470
  94.8613082  78.9707449  28.0041842  96.1149937  78.2238322  27.6013505
  99.6980006  56.8879474  24.2855650  98.9312402  56.3337960  24.4312333
 100.1090711  56.9601342  25.1469802  91.7021767  63.1764269  38.3760831
  92.5653229  62.8201074  38.5864156  91.1287178  62.8378164  39.0636236
 101.7611098  88.1080222  27.9465869 102.5532390  87.7671047  27.5312168
 102.0007748  88.2175197  28.8668022 105.5586895  88.6965517  34.0250147
 105.2676761  89.6011148  33.9096813 106.1943879  88.7382045  34.7394216
 106.4843102  86.0742366  30.6151506 107.0806674  85.8498388  29.9008469
 106.5418073  85.3327111  31.2176954 103.9689261  84.8340730  27.0536645
 103.0439758  84.7016944  27.2614337 104.2173675  85.6134949  27.5506587
 101.3298072  84.4774003  27.8880434 101.4590454  84.7308482  28.8019846
 100.6495524  85.0701711  27.5685089 106.2461162  85.1284572  36.2050242
 106.9875846  85.6669616  35.9285066 105.5398147  85.7550861  36.3621794
 104.9822526  82.2824220  37.0065552 104.3521186  82.9640501  37.2400949
 104.8758613  82.1707302  36.0618690 100.2767498  81.9496016  27.9331476
  99.4866552  82.2053545  27.4571587 100.7678745  82.7644354  28.0383517
 108.0587911  88.8385299  32.8397467 108.1232343  89.3005706  33.6755639
 107.3498835  88.2082664  32.9679777  98.5605201  82.2026507  30.3646467
  98.8113239  83.0873517  30.6304043  99.0964749  82.0231108  29.5921559
 104.2603268  76.5844986  39.3690803 103.8670214  76.0311185  40.0438447
 105.0769409  76.8955565  39.7597321 107.1771229  78.0002865  36.9611060
 107.9180943  78.6010018  36.8815522 107.4089152  77.2580503  36.4029102
 102.3212567  83.1859232  35.2389289 102.2066082  82.2844490  35.5396388
 101.4657085  83.4322929  34.8874106 106.4467818  76.4827353  28.2090756
 107.3120815  76.2870162  27.8496646 106.5145327  76.2537705  29.1360113
 104.0530138  78.7129561  25.5807123 104.6273889  78.4904742  24.8480316
 104.6401120  78.7818255  26.3335724 106.3552805  75.5870810  24.3082192
 105.7017218  75.2719827  23.6838807 106.3133279  74.9646550  25.0342015
  99.2140414  83.6908214  24.7274677  99.0164814  83.0977575  24.0025743
  98.6587078  83.3860424  25.4450616 107.1937138  83.5831320  26.8469270
 107.2485747  82.6305157  26.7711747 106.3828340  83.7390759  27.3310568
 104.6243572  79.7726736  30.2220884 105.2642952  79.6315495  29.5243847
 103.7921103  79.4861249  29.8459486 101.6272189  79.7427061  24.9993871
 101.8879006  80.6572394  24.8903031 102.4489361  79.2751503  25.1490483
 103.0997114  81.1564818  32.1692695 103.7720167  80.9482180  31.5205344
 102.2726901  80.9586904  31.7297927 103.5024611  84.4307421  32.9295132
 103.3644409  83.6987660  33.5306671 104.4129535  84.3416321  32.6479320
 106.1306912  84.1427380  32.4178812 106.8406530  83.5020572  32.3765430
 106.0876220  84.3940275  33.3404993 104.8435846  81.1292598  34.2374451
 104.3073203  80.6783336  34.8896048 104.2552554  81.2638507  33.4944916
  95.7740245  85.3758409  26.8942422  96.4611285  85.0620139  26.3063438
  95.6188374  86.2799774  26.6209674 100.5774967  80.2648606  31.3227446
 100.4933156  79.6574275  30.5877856  99.7557674  80.7557624  31.3236942
 107.3333650  80.8919552  26.4169326 106.9631437  80.3390593  27.1050231
 107.8292742  80.2877686  25.8644326 105.1622848  91.3517047  33.5124344
 105.8632308  91.9853530  33.6653738 104.6917963  91.6931779  32.7519983
 100.7590566  90.8853402  30.4455446 101.3444003  90.1397090  30.5783350
 100.5615405  91.1957359  31.3292110  95.3508221  83.4559002  29.1659889
  95.3892321  82.9222593  29.9597007  94.8448514  82.9294208  28.5470867
 102.7298983  78.3023543  32.6622432 102.7940310  79.1638374  32.2499829
 102.6666104  77.6897545  31.9294790 102.2051256  80.3746675  36.3095466
 102.8323295  79.9923753  36.9232990 101.3479175  80.1560877  36.6751158
 102.5111046  80.2579101  28.2241369 101.7897631  80.8715069  28.0848843
 103.3004301  80.7936866  28.1458015 105.3137359  77.5933528  34.4982021
 105.8371761  77.8395824  35.2608330 105.0949693  78.4253562  34.0785158
 100.7104640  79.8637202  22.3653146 100.3817346  78.9834581  22.1828252
 101.0644011  79.8084871  23.2529535 106.5189904  78.5347223  32.1831692
 106.1786725  77.7355036  32.5852372 105.8128911  78.8348934  31.6108525
 107.1706376  75.6196535  30.6359015 107.9932445  75.1457013  30.5137905
 107.4144440  76.3987019  31.1357701 104.6944955  82.3115656  28.4450993
 104.5489536  82.6255959  29.3375275 104.2170159  82.9300556  27.8921892
 106.5541338  79.3018204  28.4931883 106.5402907  78.4059297  28.1564181
 107.2713766  79.3088868  29.1270169  99.1690617  84.8521000  31.3838654
  98.6244085  85.6280808  31.5158929 100.0469967  85.1991805  31.2257776
  99.9556639  83.9790897  34.2768811  99.2138375  84.1273532  34.8633442
  99.6349383  84.2399162  33.4135561  98.6021858  89.7842652  27.2668140
  97.7653766  89.3564826  27.0852141  98.5745503  89.9775095  28.2038931
 105.4419313  79.6964581  37.9709386 105.4907469  80.5726704  37.5887155
 105.9841827  79.1541975  37.3981029 107.6718602  80.4495954  34.7255744
 106.8021911  80.7429520  34.4538333 107.9078082  81.0336399  35.4463008
  97.9171354  82.8452000  27.0517072  97.5974139  81.9917308  26.7591446
  97.3704782  83.0600578  27.8075039 101.6951262  85.5614441  30.7686578
 101.9137272  86.4931549  30.7874612 102.1077036  85.2022415  31.5541382
 106.5679127  81.1347647  40.1589327 106.4675854  82.0842004  40.0901418
 106.3500669  80.8065885  39.2865397  97.7859614  86.4654911  29.0210193
  97.0923086  86.0508864  28.5080148  98.5332605  86.5075448  28.4243612
 106.4310397  84.5644785  38.9754389 105.9477479  85.3645145  39.1818278
 106.5171336  84.5752730  38.0221833  99.6996357  86.3973165  26.8976208
  99.6767045  86.4960852  25.9458091 100.0096993  87.2438316  27.2193374
 102.3583735  88.4549320  31.0122823 103.3126988  88.4233262  30.9452754
 102.1596258  87.9939944  31.8273048 102.9483117  87.0250436  33.5793620
 103.7676006  87.5194515  33.6028457 103.2219924  86.1082404  33.5511188
  98.2018031  81.3588570  34.2785817  98.8476895  80.8487524  34.7673042
  97.9935182  82.0957252  34.8529243 102.5415522  78.5056187  38.3760831
 103.4046984  78.1492992  38.5864156 101.9680933  78.1670082  39.0636236
  62.2011878   4.3859969  20.7495453  61.9101744   5.2905600  20.6342120
  62.8368862   4.4276497  21.4639523  63.1268085   1.7636818  17.3396813
  63.7231657   1.5392840  16.6253776  63.1843057   1.0221563  17.9422261
  67.1601763   4.0721385  17.7445247  66.8602486   4.9746424  17.6361054
  66.8152823   3.8053568  18.5966400  62.1422543  10.8365705  10.7116215
  62.0646573  11.7873530  10.7904695  61.5384187  10.4911578  11.3691141
  62.8886145   0.8179024  22.9295549  63.6300829   1.3564068  22.6530372
  62.1823131   1.4445313  23.0867100  68.3641485   2.9608164  21.5267710
  68.7724841   2.5190575  20.7822342  67.6418746   2.3860792  21.7801903
  68.6870299   3.5209355  15.2819999  68.0579162   3.6855069  14.5796067
  68.2995961   3.9350965  16.0530963  72.5659531   4.4563793  12.6364363
  71.8810569   4.8362694  12.0861396  72.6503381   5.0659120  13.3696311
  61.1322342   2.8055245  15.4849847  61.7023699   3.2342513  14.8467332
  61.7230454   2.5237829  16.1834033  70.9356291   4.9795707  17.4082064
  71.7573735   4.5775895  17.1264745  70.9318694   4.8763941  18.3598179
  64.7012894   4.5279751  19.5642774  64.7657327   4.9900158  20.4000946
  63.9923818   3.8977116  19.6925084  66.0429388   6.8171425  23.5622097
  65.5993242   6.0307803  23.2443001  66.7046602   7.0050575  22.8965987
  60.8016509   8.3467226  18.0882775  61.3523935   8.2184290  17.3159769
  59.9627985   8.6462115  17.7377668  68.1410626   7.0974225  21.5903498
  68.1229102   7.9183106  21.0983767  69.0630546   6.9728300  21.8153639
  64.5983681   4.6118354  22.4327006  65.1312017   3.8506642  22.2026314
  64.0697762   4.3192006  23.1751161  70.5196494   5.2703741  11.2395949
  70.0658821   4.4294651  11.2961139  69.8890461   5.9065139  11.5770729
  68.9629434   7.1080238  12.1745767  69.2552408   7.6685295  11.4558133
  69.4728054   7.4008799  12.9298926  63.9263059   7.8860589  13.2639220
  63.8839237   8.1121435  12.3347752  64.8425758   7.6523963  13.4125021
  66.8623704   7.1441713  17.4113551  66.9160726   7.7132650  18.1791266
  65.9938485   7.3143598  17.0467588  69.0526467   3.7370063  23.9854216
  68.9011974   3.5080614  23.0684300  69.0431147   4.6940664  23.9985561
  65.8211804   1.3101975  18.9700482  66.7503864   1.4613135  18.7969450
  65.4002834   1.3985996  18.1149129  64.6200135   5.3352640  16.7399020
  64.4811221   4.9671424  17.6124958  63.8314732   5.8500279  16.5682978
  66.1705351   4.7134243  14.1287858  65.8355183   4.6735013  15.0245508
  65.6709296   4.0478959  13.6558268  60.1449595   0.1201873  19.6540439
  60.0069393  -0.6117889  20.2551978  61.0554518   0.0310773  19.3724627
  70.7618674   6.7689185  22.0630698  70.7031220   6.0848405  21.3961281
  71.1638192   7.5108175  21.6111324  59.7809373  13.5851099  14.8564417
  60.0205971  14.2169623  15.5343435  58.9378569  13.2339139  15.1429776
  70.7636081   4.7328769  20.2944678  69.8762860   4.3954691  20.4171076
  71.3334632   4.0011800  20.5313443  64.2937235   9.3930222  17.2605921
  64.2207406  10.1985193  17.7725225  63.8514628   9.5922187  16.4353942
  64.0827014   8.6301992  10.7708742  63.2994536   9.1723672  10.8646967
  64.7819759   9.1475971  11.1702983  66.7535918   9.2917056  19.4164079
  67.4663890   9.9264520  19.3439981  66.2625947   9.3880922  18.6004081
  61.8047832   7.0411499  20.2369650  62.5057291   7.6747982  20.3899044
  61.3342947   7.3826231  19.4765289  66.5656291   9.6315800  12.1650371
  66.7478686   8.8137456  12.6278123  67.3889278   9.8483492  11.7275261
  57.4015550   6.5747854  17.1700753  57.9868987   5.8291542  17.3028657
  57.2040388   6.8851811  18.0537417  60.2554205   9.6099102  12.1863195
  59.5864580  10.0945229  11.7027235  60.1167075   9.8568322  13.1006574
  64.3959474  11.6442845  18.7845854  64.9477782  11.8074467  19.5494939
  64.7365667  12.2347283  18.1125878  69.2470348   6.4704103  24.6394508
  69.7910252   7.0834061  24.1449463  68.6657193   7.0283681  25.1561521
  67.5327861   9.5924821  15.7709536  67.4079000   8.7914560  15.2620481
  68.1906952  10.0871014  15.2823506  69.5962769   7.3933841  17.3989086
  68.6493105   7.2739192  17.3267413  69.9445542   6.5056339  17.4815347
  66.6009202   7.1886557  13.5993438  66.4534165   6.2603264  13.7801008
  67.4262696   7.2106648  13.1150513  70.2043324   8.0115116  14.6858311
  71.1289872   7.8057977  14.5482762  70.0358628   7.7631517  15.5947652
  69.9938641   8.5300783  10.0420402  70.1675518   7.9647206   9.2894255
  70.4867532   9.3301678   9.8599892  56.5981622  -0.3314652  21.0014118
  55.8563358  -0.1832016  21.5878748  56.2774366  -0.0706386  20.1380867
  64.5425285   9.2101327  20.7994508  64.8512411   8.9650473  21.6717208
  65.3400767   9.4147965  20.3113378  64.5645897  11.3639236  13.0299885
  64.1250887  10.8715615  13.7232741  65.3154014  10.8212204  12.7891960
  62.0119769   6.9077245  15.1022186  61.3899778   6.2447950  14.8024414
  62.6824636   6.9338377  14.4195834  72.5699142   5.9300157  23.9755829
  71.7794686   5.9124295  23.4360329  72.3332497   6.4688450  24.7304866
  74.1915214   5.1989565  21.5330579  73.9000022   5.5619545  22.3694040
  73.5787345   4.4856573  21.3543911  65.3414173   3.3407858  24.8509104
  66.2617182   3.5186457  25.0449150  65.3063756   2.3963903  24.6988803
  58.3376245   1.2508893  17.4931885  58.5562255   2.1826000  17.5119919
  58.7502019   0.8916867  18.2786689  63.0735380   0.2539237  25.6999695
  62.5902462   1.0539597  25.9063584  63.1596319   0.2647182  24.7467139
  59.0008718   4.1443772  17.7368129  59.9551971   4.1127714  17.6698061
  58.8021241   3.6834396  18.5518355  59.5908100   2.7144888  20.3038927
  60.4100989   3.2088967  20.3273764  59.8644908   1.7976856  20.2756494
  57.3558947   9.6863391  14.7538327  57.2213415   8.9263792  14.1876325
  56.9391009  10.4104291  14.2867116  60.5128073  10.5832708  14.9656770
  60.3960457  11.5278141  14.8635460  59.6920519  10.2806270  15.3542569
  67.3696406   4.1163869  26.5023264  68.2387566   4.2904522  26.1409899
  66.8903158   4.9358286  26.3798994  61.5382587  11.2360970  18.1812698
  62.4409833  11.2684581  18.4979193  61.3119957  10.3061421  18.1959034
  63.2936189   9.9891957  14.8422777  62.3431820   9.9893819  14.7287149
  63.5968675   9.2424691  14.3258811  79.0288882  15.8252495  15.9068539
  79.6667292  15.7059243  15.2031879  78.9109725  16.7733339  15.9656491
  75.8378588  15.7779923  15.8430064  75.4997100  15.6620988  14.9550599
  76.7068357  15.3771089  15.8231070  71.6965404  17.6315400  11.8326955
  71.1330269  17.5405337  11.0643243  71.5817799  16.8115304  12.3129447
  76.3198371  16.9314775  21.8016269  76.3087012  16.5367573  20.9296773
  76.4819011  16.1980848  22.3950041  69.2429836  19.1266591  14.6711175
  70.0351128  18.7857416  14.2557475  69.4826486  19.2361566  15.5913329
  77.2764963  21.2986368   7.1441420  76.6252943  21.8840448   6.7575433
  78.0709326  21.8292562   7.2036457  71.2020590  18.3875505   7.5428554
  71.9751466  17.8404492   7.4041430  71.5545989  19.2519754   7.7543015
  73.0405633  19.7151887  20.7495453  72.7495499  20.6197518  20.6342120
  73.6762617  19.7568415  21.4639523  73.9661839  17.0928735  17.3396813
  74.5625412  16.8684758  16.6253776  74.0236811  16.3513481  17.9422261
  78.5830151  13.5503949  12.9821747  79.3693240  13.1323372  12.6312164
  78.8468855  14.4550041  13.1503396  78.7540228  18.9876799   7.6810404
  78.1186061  19.0611426   8.3931309  78.4237634  19.5770398   7.0029483
  73.2583157  16.4496277   7.3771379  73.1419415  15.7741180   8.0452463
  73.3685417  15.9628651   6.5603532  75.6014698  15.9106424  11.0818068
  75.2372905  15.3837045  11.7930990  76.4581813  15.5204893  10.9084554
  81.5063998   7.2000756  18.3449334  81.1747323   8.0696167  18.1210549
  80.9109612   6.8837040  19.0243365  77.9995518  19.4013302  17.7445247
  77.6996241  20.3038341  17.6361054  77.6546577  19.1345486  18.5966400
  71.4507999  15.8527099  13.7781951  70.5258496  15.7203313  13.9859643
  71.6992412  16.6321319  14.2751894  81.3992661  11.9195843  15.4242684
  80.4909539  11.8511251  15.1301445  81.3480257  12.3967788  16.2524510
  75.2209405  13.3953981   7.0626083  75.1009031  13.8411032   7.9011564
  74.5261994  13.7439299   6.5039622  68.8116810  15.4960373  14.6125741
  68.9409191  15.7494852  15.5265152  68.1314262  16.0888081  14.2930396
  72.9816298  26.1657623  10.7116215  72.9040327  27.1165448  10.7904695
  72.3777941  25.8203495  11.3691141  75.4733527  13.3385488  23.3677582
  74.6966861  13.8979408  23.3580446  76.1124090  13.8242271  23.8892452
  83.2654308  10.1212281  17.2020558  82.6228688  10.4144814  16.5560353
  82.7609236  10.0065201  18.0073755  73.7279900  16.1470942  22.9295549
  74.4694584  16.6855986  22.6530372  73.0216885  16.7737230  23.0867100
  79.2035239  18.2900082  21.5267710  79.6118595  17.8482493  20.7822342
  78.4812501  17.7152710  21.7801903  75.5566309  13.2272689  18.9001267
  76.4027504  13.6512102  19.0435916  75.4964947  12.5706313  19.5939830
  79.5264054  18.8501273  15.2819999  78.8972916  19.0146987  14.5796067
  79.1389716  19.2642882  16.0530963  83.4053286  19.7855711  12.6364363
  82.7204324  20.1654612  12.0861396  83.4897135  20.3951037  13.3696311
  78.7065755  10.8877057  20.5582441  78.4626686  11.6419118  20.0216716
  78.9825685  11.2662405  21.3929688  80.6604217  17.4315670  19.2359706
  80.8721113  18.0747429  18.5594087  80.6133966  16.5977986  18.7681636
  78.2630446  10.0433490  16.1396278  77.4014925  10.3414744  16.4313016
  78.2892881  10.2603889  15.2077311  75.0792016  18.5875681  12.5470084
  75.5430361  18.8663384  11.7574707  74.8148814  17.6859125  12.3643175
  71.9716097  18.1347162  15.4849847  72.5417454  18.5634431  14.8467332
  72.5624209  17.8529747  16.1834033  74.0160902  14.7098833   9.3559649
  74.7184945  15.1619877   9.8233576  73.6841530  14.0682652   9.9839542
  72.4641263  13.3010590  23.7310859  71.8339924  13.9826871  23.9646255
  72.3577351  13.1893671  22.7863997  67.7586236  12.9682386  14.6576783
  66.9685290  13.2239914  14.1816893  68.2497483  13.7830724  14.7628823
  81.7750045  20.3087625  17.4082064  82.5967489  19.9067812  17.1264745
  81.7712448  20.2055859  18.3598179  69.7100981  13.3326965  11.6160259
  68.9132144  13.4445659  12.1343755  69.4826573  13.6713617  10.7501150
  75.5406649  19.8571668  19.5642774  75.6051081  20.3192076  20.4000946
  74.8317573  19.2269033  19.6925084  66.0423939  13.2212876  17.0891774
  66.2931977  14.1059886  17.3549350  66.5783487  13.0417478  16.3166865
  75.2554666  21.5239776   9.4321754  75.1200341  22.3691311   9.8606602
  75.7964479  21.7259053   8.6687688  71.7422006   7.6031356  26.0936110
  71.3488952   7.0497554  26.7683754  72.5588146   7.9141934  26.4842627
  68.7084064  19.0415214  10.0049680  69.2208584  19.8358464  10.1555244
  69.3606777  18.3441504   9.9383281  70.5178949  22.1580970  12.0872433
  70.6945577  23.0798935  11.8993417  71.3135782  21.8439389  12.5166812
  74.6589967   9.0189235  23.6856366  75.3999680   9.6196388  23.6060829
  74.8907890   8.2766873  23.1274409  69.8031305  14.2045602  21.9634596
  69.6884820  13.3030859  22.2641695  68.9475823  14.4509299  21.6119412
  76.8823143  22.1463342  23.5622097  76.4386997  21.3599721  23.2443001
  77.5440356  22.3342493  22.8965987  71.6410264  23.6759144  18.0882775
  72.1917689  23.5476207  17.3159769  70.8021740  23.9754033  17.7377668
  78.9804381  22.4266142  21.5903498  78.9622856  23.2475023  21.0983767
  79.9024301  22.3020217  21.8153639  75.4377435  19.9410272  22.4327006
  75.9705772  19.1798560  22.2026314  74.9091516  19.6483924  23.1751161
  66.6732981  17.3703868  10.7809250  67.5108203  17.7800876  10.5642958
  66.8511248  16.4303310  10.7509444  76.1544524   9.8828650  11.5278321
  75.2986120   9.4935500  11.3483960  76.5671476   9.9620610  10.6678107
  77.6843670   7.4174993  15.9269881  77.1808466   7.3805128  15.1137686
  77.9774277   8.3267736  15.9866538  73.9286556   7.5013723  14.9336063
  74.7939553   7.3056531  14.5741952  73.9964065   7.2724074  15.8605420
  76.8030148  19.0696264   9.9445818  76.2751509  18.3349024   9.6319056
  76.3017650  19.8470941   9.6985787  81.7822994  17.2645285  15.0612864
  81.1246668  17.9544546  15.1492993  82.5863393  17.6541717  15.4046851
  71.5348875   9.7315930  12.3052430  72.1092627   9.5091112  11.5725623
  72.1219858   9.8004625  13.0581031  80.5928453  15.6189657  13.1116806
  81.1060334  16.2519649  13.6138516  81.2429676  15.0190853  12.7460166
  73.8371543   6.6057179  11.0327499  73.1835955   6.2906197  10.4084114
  73.7952017   5.9832920  11.7587322  77.8550827  25.5973982   5.8677477
  77.1812526  25.9005678   6.4762435  78.2416649  26.4003062   5.5182934
  77.0709283  13.0939113  15.3575147  76.1531845  13.3154060  15.1996835
  77.4869427  13.1685423  14.4986854  77.8544331  14.4930529  10.4877827
  78.6016150  15.0051926  10.1784949  78.1235921  14.1714581  11.3482221
  76.1270981  16.9889069   7.4704781  75.2182201  16.7048102   7.5677251
  76.1566065  17.4088148   6.6108088  81.3590249  20.5995659  11.2395949
  80.9052576  19.7586569  11.2961139  80.7284215  21.2357057  11.5770729
  79.8023188  22.4372155  12.1745767  80.0946162  22.9977213  11.4558133
  80.3121809  22.7300716  12.9298926  66.6959152  14.7094583  11.4519984
  66.4983552  14.1163944  10.7271050  66.1405816  14.4046794  12.1695922
  74.6755875  14.6017690  13.5714577  74.7304485  13.6491526  13.4957053
  73.8647077  14.7577129  14.0555875  72.6148235  13.2194750  11.3304956
  71.8016101  13.5188920  11.7370148  73.1107229  12.8250438  12.0479438
  74.7656813  23.2152507  13.2639220  74.7232992  23.4413353  12.3347752
  75.6819512  22.9815881  13.4125021  78.2122447  13.6836574  20.1619849
  78.5671835  13.9108047  21.0214315  78.8594578  14.0154951  19.5397105
  72.1062310  10.7913105  16.9466190  72.7461689  10.6501864  16.2489154
  71.2739841  10.5047619  16.5704792  83.9689564  18.8731537  15.8780450
  84.4026070  18.7806826  16.7263504  84.6821144  18.8489037  15.2400466
  72.8822614  20.0915536  13.0601183  73.6763212  19.5965856  12.8583758
  72.1714306  19.5633399  12.6968889  77.7017458  22.4733631  17.4113551
  77.7554481  23.0424567  18.1791266  76.8332240  22.6435516  17.0467588
  69.1905377  14.2358617   9.1360936  68.2602966  14.1743073   9.3530898
  69.2862849  13.7134570   8.3397577  69.1090926  10.7613430  11.7239177
  69.3697744  11.6758763  11.6148338  69.9308099  10.2937873  11.8735790
  70.5815852  12.1751187  18.8938002  71.2538905  11.9668549  18.2450651
  69.7545638  11.9773273  18.4543234  84.8305113  18.9155238  18.4113335
  85.0241003  19.8201048  18.6572610  84.7305731  18.4562657  19.2451920
  76.4841424   8.8013128  20.9103663  75.8369339   9.5003078  20.8168139
  77.2542439   9.2349272  21.2779911  79.8920222  19.0661980  23.9854216
  79.7405728  18.8372532  23.0684300  79.8824901  20.0232582  23.9985561
  76.6605558  16.6393893  18.9700482  77.5897618  16.7905053  18.7969450
  76.2396588  16.7277914  18.1149129  75.4593890  20.6644558  16.7399020
  75.3204976  20.2963342  17.6124958  74.6708486  21.1792197  16.5682978
  76.0542042  25.7653654   8.0824557  76.2293798  25.2941697   8.8970179
  75.3674830  26.3919420   8.3105817  77.0099105  20.0426160  14.1287858
  76.6748938  20.0026930  15.0245508  76.5103051  19.3770876  13.6558268
  70.9843349  15.4493790  19.6540439  70.8463147  14.7174029  20.2551978
  71.8948273  15.3602690  19.3724627  73.6125650  15.1613750  19.1424119
  74.3225268  14.5206942  19.1010737  73.5694958  15.4126644  20.0650299
  81.6012428  22.0981103  22.0630698  81.5424975  21.4140323  21.3961281
  82.0031947  22.8400093  21.6111324  72.3254584  12.1478968  20.9619758
  71.7891941  11.6969706  21.6141354  71.7371292  12.2824876  20.2190222
  70.6203127  28.9143017  14.8564417  70.8599725  29.5461541  15.5343435
  69.7772324  28.5631057  15.1429776  81.6029836  20.0620687  20.2944678
  80.7156614  19.7246609  20.4171076  82.1728387  19.3303718  20.5313443
  63.2558983  16.3944779  13.6187729  63.9430023  16.0806509  13.0308744
  63.1007111  17.2986143  13.3454980  68.0593705  11.2834975  18.0472753
  67.9751894  10.6760645  17.3123163  67.2376411  11.7743994  18.0482249
  75.1330989  24.7222139  17.2605921  75.0601161  25.5277111  17.7725225
  74.6908382  24.9214105  16.4353942  74.9220769  23.9593909  10.7708742
  74.1388291  24.5015589  10.8646967  75.6213514  24.4767889  11.1702983
  78.2317419   9.7688539  13.4142948  78.7286118   9.0158501  13.0944018
  77.4604400   9.8052855  12.8486157  86.0847176  15.4728904  15.0561239
  86.0737052  16.3553620  14.6855172  85.2164556  15.1200455  14.8615776
  77.5929673  24.6208973  19.4164079  78.3057645  25.2556438  19.3439981
  77.1019701  24.7172839  18.6004081  79.3147200  18.5260226  10.9881371
  78.3803478  18.6461688  10.8186075  79.4923868  17.6232693  10.7241381
  74.8152388  11.9105922  13.1414632  74.4450175  11.3576962  13.8295538
  75.3111480  11.3064055  12.5889632  72.6441586  22.3703417  20.2369650
  73.3451046  23.0039900  20.3899044  72.1736701  22.7118148  19.4765289
  80.7695982  20.7121367   8.5217557  81.0455826  20.5977961   9.4311431
  79.9000481  20.3138851   8.4829730  80.6736414   6.7358132  15.5622307
  79.7599493   6.9662359  15.7304513  81.1029515   6.8196576  16.4136339
  80.4442872  14.9248024  18.0622201  79.7914322  15.1723932  17.4074653
  80.8223252  14.1112162  17.7284678  77.4050046  24.9607717  12.1650371
  77.5872441  24.1429373  12.6278123  78.2283032  25.1775410  11.7275261
  77.7392211  23.8875903   9.4265419  78.2679978  23.3768357   8.8135581
  78.0020431  23.5718433  10.2910952  76.4930445  15.6667835  24.5488238
  75.8171082  15.5661965  25.2190613  77.3158079  15.5107049  25.0124235
  68.2409304  21.9039772  17.1700753  68.8262741  21.1583460  17.3028657
  68.0434143  22.2143729  18.0537417  71.0947959  24.9391019  12.1863195
  70.4258335  25.4237147  11.7027235  70.9560829  25.1860240  13.1006574
  62.8326959  14.4745372  15.8905196  62.8711058  13.9408963  16.6842314
  62.3267252  13.9480578  15.2716173  75.2353228  26.9734763  18.7845854
  75.7871536  27.1366384  19.5494939  75.5759421  27.5639201  18.1125878
  70.2117721   9.3209913  19.3867738  70.2759048  10.1824743  18.9745136
  70.1484841   8.7083914  18.6540097  69.6869994  11.3933045  23.0340773
  70.3142033  11.0110122  23.6478297  68.8297913  11.1747247  23.3996465
  80.0864102  21.7996020  24.6394508  80.6304006  22.4125978  24.1449463
  79.5050947  22.3575599  25.1561521  66.4635537  13.2009474   8.9659127
  66.7588978  12.2920153   8.9126181  65.5623572  13.1797214   8.6440130
  78.3721615  24.9216738  15.7709536  78.2472755  24.1206478  15.2620481
  79.0300706  25.4162932  15.2823506  69.9929784  11.2765471  14.9486676
  69.2716369  11.8901438  14.8094149  70.7823039  11.8123236  14.8703322
  80.4356524  22.7225758  17.3989086  79.4886859  22.6031110  17.3267413
  80.7839297  21.8348256  17.4815347  72.7956097   8.6119897  21.2227328
  73.3190499   8.8582194  21.9853637  72.5768430   9.4439932  20.8030465
  68.1923378  10.8823572   9.0898453  67.8636084  10.0020951   8.9073558
  68.5462749  10.8271241   9.9774842  77.4402957  22.5178475  13.5993438
  77.2927919  21.5895182  13.7801008  78.2656450  22.5398565  13.1150513
  71.3065201  11.1696542   9.4573930  71.6461274  11.6982463   8.7352539
  71.7537322  11.5076948  10.2332497  81.0437079  23.3407033  14.6858311
  81.9683626  23.1349895  14.5482762  80.8752382  23.0923434  15.5947652
  74.0008642   9.5533592  18.9076998  73.6605462   8.7541405  19.3097678
  73.2947648   9.8535303  18.3353831  74.6525114   6.6382905  17.3604321
  75.4751183   6.1643383  17.2383212  74.8963177   7.4173389  17.8603008
  72.1763693  13.3302025  15.1696300  72.0308273  13.6442328  16.0620581
  71.6988896  13.9486926  14.6167199  74.0360076  10.3204573  15.2177189
  74.0221644   9.4245667  14.8809487  74.7532504  10.3275237  15.8515476
  75.8886206  10.7541914  17.2630317  75.6303984  11.6758984  17.2614647
  75.3571247  10.3572348  17.9530781  80.8332395  23.8592701  10.0420402
  81.0069273  23.2939123   9.2894255  81.3261286  24.6593596   9.8599892
  66.6509355  15.8707370  18.1083961  66.1062823  16.6467178  18.2404235
  67.5288705  16.2178174  17.9503083  73.4396971   9.2018954  10.4864760
  73.5612883   8.2735600  10.6855647  73.1499014   9.2157640   9.5743075
  76.3088162   6.8873864  13.6231479  76.3309859   6.9513197  12.6683459
  76.7256221   6.0478373  13.8171986  81.8207568  23.1759465   7.1417301
  82.5158472  23.7966158   7.3604615  82.1630718  22.3254816   7.4169678
  67.4375377  14.9977266  21.0014118  66.6957113  15.1459901  21.5878748
  67.1168121  15.2585532  20.1380867  75.3819039  24.5393244  20.7994508
  75.6906166  24.2942391  21.6717208  76.1794521  24.7439883  20.3113378
  75.4039651  26.6931154  13.0299885  74.9644642  26.2007533  13.7232741
  76.1547768  26.1504122  12.7891960  67.8831990  22.8842695  13.0324513
  68.7090010  22.5846467  12.6523156  67.5326042  22.1150317  13.4814301
  72.8513524  22.2369163  15.1022186  72.2293533  21.5739868  14.8024414
  73.5218390  22.2630295  14.4195834  66.0840595  20.8029021  13.9913446
  65.2472504  20.3751196  13.8097447  66.0564241  20.9961465  14.9284237
  72.9238051  10.7150951  24.6954692  72.9726206  11.5913074  24.3132462
  73.4660565  10.1728344  24.1226335  83.4092897  21.2592074  23.9755829
  82.6188440  21.2416213  23.4360329  83.1726251  21.7980368  24.7304866
  83.5290772  18.1084541  21.2888558  83.5788777  17.9434548  22.2304081
  83.4204695  17.2411800  20.8986439  72.4127030  20.7873086   8.5780647
  72.5615151  21.4708551   7.9247319  73.2193474  20.7678176   9.0930102
  80.8194534  14.0915469  22.6047865  81.7204397  13.9521934  22.3131862
  80.8942509  14.2569924  23.5446042  75.1537339  11.4682323  21.4501051
  74.2840649  11.7615889  21.1783639  75.3896820  12.0522768  22.1708315
  85.0308969  20.5281482  21.5330579  84.7393777  20.8911463  22.3694040
  84.4181100  19.8148490  21.3543911  83.2796157  15.6514097  20.0010637
  83.7550278  15.8441743  19.1929489  82.3561722  15.7073283  19.7554021
  70.1679663  16.8138264   9.5841716  69.9225705  15.9100594   9.7821926
  70.3375578  16.8155414   8.6421194  77.8576373   7.6861940  18.9666471
  78.3758317   8.4222967  18.6412960  77.5031506   7.9925934  19.8013230
  75.9122436  23.2821217   6.0492394  75.3396403  23.9011404   5.5962866
  76.4855230  23.8320578   6.5832316  81.9797826  12.5279857  18.2338943
  82.9315249  12.6277955  18.2551167  81.8101276  11.7358125  18.7437027
  80.0012205   9.6135440  18.4198344  79.4062137   9.8940453  17.7244833
  79.7161902  10.1029341  19.1915085  79.1319696  23.5658367   7.1800976
  80.0650369  23.5003929   7.3833852  79.0442909  24.4014634   6.7215509
  84.4585904  15.7485977  17.3481243  84.4262224  14.8101977  17.5340926
  85.0686527  15.8270013  16.6147067  84.6080392  12.5397020  17.3939526
  84.0919441  11.7555477  17.2069455  85.4920341  12.2115737  17.5586045
  88.3577751  14.9509846  17.0861731  87.6310914  14.8165811  16.4778222
  87.9425037  15.2586675  17.8918449  76.1807927  18.6699776  24.8509104
  77.1010936  18.8478375  25.0449150  76.1457510  17.7255821  24.6988803
  65.3990092  13.8638369  13.7762378  65.0792876  13.0103678  13.4836752
  64.8523520  14.0786948  14.5320346  69.1770000  16.5800810  17.4931885
  69.3956009  17.5117918  17.5119919  69.5895773  16.2208785  18.2786689
  74.0497865  12.1534016  26.8834634  73.9494592  13.1028373  26.8146725
  73.8319407  11.8252255  26.0110704  65.2678352  17.4841281  15.7455500
  64.5741823  17.0695234  15.2325454  66.0151343  17.5261817  15.1488919
  73.9129135  15.5831155  25.6999695  73.4296217  16.3831515  25.9063584
  73.9990074  15.5939100  24.7467139  67.1815095  17.4159535  13.6221515
  67.1585783  17.5147222  12.6703398  67.4915731  18.2624685  13.9438681
  69.8402472  19.4735690  17.7368129  70.7945726  19.4419632  17.6698061
  69.6414996  19.0126313  18.5518355  70.4301855  18.0436806  20.3038927
  71.2494744  18.5380884  20.3273764  70.7038662  17.1268774  20.2756494
  68.1952701  25.0155309  14.7538327  68.0607169  24.2555710  14.1876325
  67.7784763  25.7396209  14.2867116  71.3521827  25.9124626  14.9656770
  71.2354211  26.8570059  14.8635460  70.5314273  25.6098188  15.3542569
  65.6836769  12.3774940  21.0031124  66.3295632  11.8673894  21.4918349
  65.4753920  13.1143621  21.5774549  78.2090161  19.4455787  26.5023264
  79.0781321  19.6196439  26.1409899  77.7296912  20.2650204  26.3798994
  72.3776341  26.5652888  18.1812698  73.2803588  26.5976498  18.4979193
  72.1513711  25.6353339  18.1959034  74.1329943  25.3183875  14.8422777
  73.1825574  25.3185736  14.7287149  74.4362429  24.5716609  14.3258811
  70.0234260   9.5242557  25.1006138  70.8865721   9.1679361  25.3109463
  69.4499670   9.1856451  25.7881542  89.8682637  31.1544413  15.9068539
  90.5061047  31.0351160  15.2031879  89.7503480  32.1025257  15.9656491
  86.6772343  31.1071841  15.8430064  86.3390854  30.9912906  14.9550599
  87.5462111  30.7063006  15.8231070  82.5359159  32.9607318  11.8326955
  81.9724024  32.8697254  11.0643243  82.4211554  32.1407222  12.3129447
  87.1592126  32.2606693  21.8016269  87.1480767  31.8659491  20.9296773
  87.3212765  31.5272765  22.3950041  80.0823591  34.4558509  14.6711175
  80.8744883  34.1149334  14.2557475  80.3220241  34.5653484  15.5913329
  88.1158717  36.6278285   7.1441420  87.4646697  37.2132366   6.7575433
  88.9103080  37.1584480   7.2036457  82.0414345  33.7167422   7.5428554
  82.8145221  33.1696409   7.4041430  82.3939743  34.5811672   7.7543015
  83.8799387  35.0443805  20.7495453  83.5889253  35.9489435  20.6342120
  84.5156371  35.0860332  21.4639523  84.8055594  32.4220653  17.3396813
  85.4019166  32.1976676  16.6253776  84.8630565  31.6805399  17.9422261
  89.4223905  28.8795867  12.9821747  90.2086994  28.4615290  12.6312164
  89.6862610  29.7841959  13.1503396  89.5933983  34.3168717   7.6810404
  88.9579816  34.3903344   8.3931309  89.2631389  34.9062316   7.0029483
  84.0976911  31.7788194   7.3771379  83.9813169  31.1033098   8.0452463
  84.2079171  31.2920568   6.5603532  86.4408452  31.2398342  11.0818068
  86.0766659  30.7128963  11.7930990  87.2975568  30.8496811  10.9084554
  92.3457753  22.5292674  18.3449334  92.0141077  23.3988085  18.1210549
  91.7503366  22.2128958  19.0243365  88.8389272  34.7305220  17.7445247
  88.5389995  35.6330259  17.6361054  88.4940332  34.4637403  18.5966400
  82.2901754  31.1819017  13.7781951  81.3652250  31.0495231  13.9859643
  82.5386167  31.9613236  14.2751894  92.2386416  27.2487760  15.4242684
  91.3303293  27.1803169  15.1301445  92.1874012  27.7259705  16.2524510
  86.0603160  28.7245899   7.0626083  85.9402785  29.1702949   7.9011564
  85.3655748  29.0731216   6.5039622  79.6510565  30.8252291  14.6125741
  79.7802946  31.0786769  15.5265152  78.9708016  31.4179999  14.2930396
  83.8210052  41.4949540  10.7116215  83.7434082  42.4457366  10.7904695
  83.2171696  41.1495413  11.3691141  86.3127282  28.6677406  23.3677582
  85.5360616  29.2271326  23.3580446  86.9517845  29.1534189  23.8892452
  94.1048062  25.4504199  17.2020558  93.4622443  25.7436732  16.5560353
  93.6002991  25.3357119  18.0073755  84.5673654  31.4762859  22.9295549
  85.3088338  32.0147903  22.6530372  83.8610640  32.1029148  23.0867100
  90.0428994  33.6192000  21.5267710  90.4512350  33.1774410  20.7822342
  89.3206255  33.0444627  21.7801903  86.3960064  28.5564607  18.9001267
  87.2421259  28.9804020  19.0435916  86.3358701  27.8998231  19.5939830
  90.3657808  34.1793190  15.2819999  89.7366671  34.3438904  14.5796067
  89.9783470  34.5934800  16.0530963  94.2447040  35.1147628  12.6364363
  93.5598078  35.4946530  12.0861396  94.3290890  35.7242955  13.3696311
  89.5459509  26.2168975  20.5582441  89.3020441  26.9711035  20.0216716
  89.8219440  26.5954322  21.3929688  91.4997972  32.7607587  19.2359706
  91.7114867  33.4039347  18.5594087  91.4527720  31.9269904  18.7681636
  89.1024201  25.3725408  16.1396278  88.2408680  25.6706661  16.4313016
  89.1286635  25.5895807  15.2077311  85.9185770  33.9167598  12.5470084
  86.3824116  34.1955301  11.7574707  85.6542568  33.0151043  12.3643175
  82.8109851  33.4639080  15.4849847  83.3811208  33.8926348  14.8467332
  83.4017963  33.1821665  16.1834033  84.8554656  30.0390751   9.3559649
  85.5578700  30.4911794   9.8233576  84.5235285  29.3974570   9.9839542
  83.3035018  28.6302507  23.7310859  82.6733678  29.3118788  23.9646255
  83.1971106  28.5185589  22.7863997  78.5979990  28.2974303  14.6576783
  77.8079044  28.5531832  14.1816893  79.0891238  29.1122641  14.7628823
  92.6143800  35.6379543  17.4082064  93.4361244  35.2359730  17.1264745
  92.6106203  35.5347777  18.3598179  80.5494736  28.6618883  11.6160259
  79.7525899  28.7737577  12.1343755  80.3220328  29.0005535  10.7501150
  86.3800403  35.1863586  19.5642774  86.4444836  35.6483993  20.4000946
  85.6711327  34.5560951  19.6925084  76.8817693  28.5504794  17.0891774
  77.1325732  29.4351804  17.3549350  77.4177242  28.3709395  16.3166865
  86.0948421  36.8531693   9.4321754  85.9594096  37.6983229   9.8606602
  86.6358233  37.0550971   8.6687688  82.5815761  22.9323273  26.0936110
  82.1882706  22.3789472  26.7683754  83.3981901  23.2433852  26.4842627
  79.5477818  34.3707131  10.0049680  80.0602339  35.1650382  10.1555244
  80.2000531  33.6733422   9.9383281  81.3572703  37.4872888  12.0872433
  81.5339331  38.4090852  11.8993417  82.1529537  37.1731307  12.5166812
  85.4983722  24.3481152  23.6856366  86.2393435  24.9488306  23.6060829
  85.7301644  23.6058790  23.1274409  80.6425060  29.5337520  21.9634596
  80.5278575  28.6322777  22.2641695  79.7869577  29.7801216  21.6119412
  87.7216897  37.4755260  23.5622097  87.2780751  36.6891639  23.2443001
  88.3834111  37.6634410  22.8965987  82.4804018  39.0051062  18.0882775
  83.0311444  38.8768125  17.3159769  81.6415494  39.3045951  17.7377668
  89.8198135  37.7558060  21.5903498  89.8016611  38.5766941  21.0983767
  90.7418055  37.6312135  21.8153639  86.2771190  35.2702189  22.4327006
  86.8099526  34.5090478  22.2026314  85.7485271  34.9775841  23.1751161
  89.4440884  20.3762255  17.9620648  89.1005154  21.2663897  17.8859758
  89.8119847  20.1863913  17.0990233  77.5126735  32.6995786  10.7809250
  78.3501957  33.1092794  10.5642958  77.6905003  31.7595228  10.7509444
  86.9938278  25.2120567  11.5278321  86.1379875  24.8227418  11.3483960
  87.4065230  25.2912528  10.6678107  88.5237425  22.7466910  15.9269881
  88.0202220  22.7097046  15.1137686  88.8168032  23.6559653  15.9866538
  84.7680311  22.8305640  14.9336063  85.6333308  22.6348449  14.5741952
  84.8357820  22.6015992  15.8605420  87.6423902  34.3988182   9.9445818
  87.1145264  33.6640941   9.6319056  87.1411405  35.1762858   9.6985787
  92.6216748  32.5937202  15.0612864  91.9640423  33.2836464  15.1492993
  93.4257147  32.9833634  15.4046851  82.3742630  25.0607848  12.3052430
  82.9486382  24.8383030  11.5725623  82.9613612  25.1296543  13.0581031
  91.4322207  30.9481575  13.1116806  91.9454089  31.5811567  13.6138516
  92.0823431  30.3482771  12.7460166  82.7012217  27.0912309   6.3248315
  81.8649529  27.4286996   6.6457590  82.5616987  26.9561289   5.3875452
  84.6765298  21.9349097  11.0327499  84.0229710  21.6198114  10.4084114
  84.6345772  21.3124837  11.7587322  88.6944581  40.9265899   5.8677477
  88.0206280  41.2297596   6.4762435  89.0810403  41.7294980   5.5182934
  87.9103038  28.4231031  15.3575147  86.9925599  28.6445978  15.1996835
  88.3263182  28.4977341  14.4986854  88.6938086  29.8222446  10.4877827
  89.4409905  30.3343843  10.1784949  88.9629675  29.5006499  11.3482221
  86.9664736  32.3180987   7.4704781  86.0575955  32.0340020   7.5677251
  86.9959820  32.7380066   6.6108088  92.1984003  35.9287576  11.2395949
  91.7446330  35.0878486  11.2961139  91.5677970  36.5648975  11.5770729
  90.6416942  37.7664073  12.1745767  90.9339917  38.3269130  11.4558133
  91.1515563  38.0592634  12.9298926  77.5352906  30.0386501  11.4519984
  77.3377306  29.4455862  10.7271050  76.9799570  29.7338711  12.1695922
  85.5149630  29.9309608  13.5714577  85.5698240  28.9783444  13.4957053
  84.7040832  30.0869047  14.0555875  83.4541990  28.5486667  11.3304956
  82.6409855  28.8480838  11.7370148  83.9500984  28.1542356  12.0479438
  85.6050568  38.5444424  13.2639220  85.5626746  38.7705271  12.3347752
  86.5213267  38.3107799  13.4125021  89.0516201  29.0128492  20.1619849
  89.4065589  29.2399965  21.0214315  89.6988333  29.3446869  19.5397105
  82.9456065  26.1205023  16.9466190  83.5855444  25.9793782  16.2489154
  82.1133595  25.8339536  16.5704792  94.8083318  34.2023455  15.8780450
  95.2419825  34.1098744  16.7263504  95.5214899  34.1780955  15.2400466
  83.7216368  35.4207453  13.0601183  84.5156967  34.9257773  12.8583758
  83.0108061  34.8925316  12.6968889  88.5411213  37.8025549  17.4113551
  88.5948235  38.3716485  18.1791266  87.6725994  37.9727434  17.0467588
  80.0299132  29.5650535   9.1360936  79.0996720  29.5034990   9.3530898
  80.1256604  29.0426488   8.3397577  79.9484681  26.0905348  11.7239177
  80.2091498  27.0050681  11.6148338  80.7701853  25.6229790  11.8735790
  81.4209606  27.5043105  18.8938002  82.0932660  27.2960467  18.2450651
  80.5939393  27.3065191  18.4543234  95.6698868  34.2447155  18.4113335
  95.8634758  35.1492966  18.6572610  95.5699486  33.7854574  19.2451920
  87.3235178  24.1305046  20.9103663  86.6763093  24.8294996  20.8168139
  88.0936194  24.5641190  21.2779911  90.7313976  34.3953898  23.9854216
  90.5799483  34.1664450  23.0684300  90.7218656  35.3524500  23.9985561
  87.4999313  31.9685811  18.9700482  88.4291373  32.1196970  18.7969450
  87.0790343  32.0569832  18.1149129  86.2987644  35.9936475  16.7399020
  86.1598730  35.6255260  17.6124958  85.5102241  36.5084115  16.5682978
  86.8935796  41.0945572   8.0824557  87.0687552  40.6233615   8.8970179
  86.2068584  41.7211338   8.3105817  87.8492860  35.3718078  14.1287858
  87.5142692  35.3318848  15.0245508  87.3496805  34.7062794  13.6558268
  81.8237104  30.7785708  19.6540439  81.6856902  30.0465947  20.2551978
  82.7342027  30.6894608  19.3724627  84.4519404  30.4905667  19.1424119
  85.1619023  29.8498859  19.1010737  84.4088712  30.7418562  20.0650299
  92.4406183  37.4273021  22.0630698  92.3818729  36.7432241  21.3961281
  92.8425701  38.1692011  21.6111324  83.1648338  27.4770885  20.9619758
  82.6285695  27.0261624  21.6141354  82.5765047  27.6116794  20.2190222
  81.4596882  44.2434934  14.8564417  81.6993480  44.8753459  15.5343435
  80.6166078  43.8922975  15.1429776  92.4423590  35.3912605  20.2944678
  91.5550369  35.0538526  20.4171076  93.0122141  34.6595636  20.5313443
  74.0952737  31.7236696  13.6187729  74.7823777  31.4098426  13.0308744
  73.9400866  32.6278061  13.3454980  78.8987459  26.6126893  18.0472753
  78.8145648  26.0052562  17.3123163  78.0770166  27.1035911  18.0482249
  85.9724744  40.0514057  17.2605921  85.8994915  40.8569028  17.7725225
  85.5302137  40.2506023  16.4353942  85.7614523  39.2885827  10.7708742
  84.9782045  39.8307507  10.8646967  86.4607268  39.8059807  11.1702983
  89.0711173  25.0980456  13.4142948  89.5679873  24.3450419  13.0944018
  88.2998155  25.1344773  12.8486157  96.9240931  30.8020822  15.0561239
  96.9130807  31.6845537  14.6855172  96.0558310  30.4492373  14.8615776
  88.4323427  39.9500891  19.4164079  89.1451399  40.5848356  19.3439981
  87.9413456  40.0464757  18.6004081  90.1540954  33.8552144  10.9881371
  89.2197233  33.9753606  10.8186075  90.3317622  32.9524610  10.7241381
  85.6546142  27.2397839  13.1414632  85.2843930  26.6868880  13.8295538
  86.1505235  26.6355973  12.5889632  83.4835341  37.6995334  20.2369650
  84.1844800  38.3331817  20.3899044  83.0130456  38.0410066  19.4765289
  91.6089736  36.0413284   8.5217557  91.8849580  35.9269879   9.4311431
  90.7394235  35.6430769   8.4829730  91.5130168  22.0650050  15.5622307
  90.5993248  22.2954277  15.7304513  91.9423270  22.1488494  16.4136339
  91.2836627  30.2539942  18.0622201  90.6308077  30.5015849  17.4074653
  91.6617006  29.4404080  17.7284678  88.2443800  40.2899635  12.1650371
  88.4266195  39.4721291  12.6278123  89.0676786  40.5067327  11.7275261
  88.5785966  39.2167820   9.4265419  89.1073732  38.7060275   8.8135581
  88.8414186  38.9010350  10.2910952  87.3324200  30.9959753  24.5488238
  86.6564837  30.8953882  25.2190613  88.1551834  30.8398967  25.0124235
  79.0803059  37.2331689  17.1700753  79.6656496  36.4875377  17.3028657
  78.8827897  37.5435646  18.0537417  81.9341714  40.2682937  12.1863195
  81.2652089  40.7529064  11.7027235  81.7954584  40.5152157  13.1006574
  73.6720713  29.8037290  15.8905196  73.7104813  29.2700880  16.6842314
  73.1661006  29.2772495  15.2716173  86.0746983  42.3026680  18.7845854
  86.6265291  42.4658302  19.5494939  86.4153176  42.8931118  18.1125878
  81.0511476  24.6501830  19.3867738  81.1152802  25.5116661  18.9745136
  80.9878596  24.0375832  18.6540097  80.5263748  26.7224963  23.0340773
  81.1535787  26.3402040  23.6478297  79.6691667  26.5039165  23.3996465
  90.9257857  37.1287938  24.6394508  91.4697761  37.7417896  24.1449463
  90.3444702  37.6867516  25.1561521  77.3029291  28.5301392   8.9659127
  77.5982732  27.6212070   8.9126181  76.4017327  28.5089131   8.6440130
  89.2115370  40.2508656  15.7709536  89.0866509  39.4498396  15.2620481
  89.8694461  40.7454849  15.2823506  80.8323538  26.6057388  14.9486676
  80.1110124  27.2193356  14.8094149  81.6216794  27.1415153  14.8703322
  91.2750278  38.0517676  17.3989086  90.3280614  37.9323027  17.3267413
  91.6233051  37.1640174  17.4815347  83.6349852  23.9411815  21.2227328
  84.1584253  24.1874111  21.9853637  83.4162185  24.7731850  20.8030465
  79.0317133  26.2115489   9.0898453  78.7029839  25.3312868   8.9073558
  79.3856503  26.1563158   9.9774842  88.2796711  37.8470392  13.5993438
  88.1321674  36.9187100  13.7801008  89.1050205  37.8690483  13.1150513
  82.1458956  26.4988459   9.4573930  82.4855028  27.0274381   8.7352539
  82.5931076  26.8368865  10.2332497  91.8830833  38.6698951  14.6858311
  92.8077381  38.4641812  14.5482762  91.7146137  38.4215352  15.5947652
  84.8402397  24.8825510  18.9076998  84.4999217  24.0833323  19.3097678
  84.1341403  25.1827221  18.3353831  85.4918868  21.9674822  17.3604321
  86.3144938  21.4935301  17.2383212  85.7356932  22.7465306  17.8603008
  83.0157447  28.6593943  15.1696300  82.8702028  28.9734246  16.0620581
  82.5382651  29.2778843  14.6167199  84.8753830  25.6496491  15.2177189
  84.8615399  24.7537584  14.8809487  85.5926258  25.6567155  15.8515476
  86.7279961  26.0833831  17.2630317  86.4697739  27.0050902  17.2614647
  86.1965001  25.6864266  17.9530781  91.6726150  39.1884618  10.0420402
  91.8463027  38.6231041   9.2894255  92.1655041  39.9885513   9.8599892
  77.4903109  31.1999287  18.1083961  76.9456577  31.9759095  18.2404235
  78.3682459  31.5470092  17.9503083  84.2790726  24.5310871  10.4864760
  84.4006637  23.6027518  10.6855647  83.9892768  24.5449557   9.5743075
  87.1481916  22.2165782  13.6231479  87.1703613  22.2805115  12.6683459
  87.5649975  21.3770290  13.8171986  92.6601322  38.5051383   7.1417301
  93.3552227  39.1258075   7.3604615  93.0024472  37.6546734   7.4169678
  78.2769131  30.3269184  21.0014118  77.5350867  30.4751819  21.5878748
  77.9561875  30.5877449  20.1380867  86.2212794  39.8685162  20.7994508
  86.5299920  39.6234309  21.6717208  87.0188276  40.0731800  20.3113378
  86.2433406  42.0223072  13.0299885  85.8038396  41.5299450  13.7232741
  86.9941523  41.4796039  12.7891960  78.7225745  38.2134612  13.0324513
  79.5483765  37.9138384  12.6523156  78.3719797  37.4442235  13.4814301
  83.6907278  37.5661081  15.1022186  83.0687287  36.9031786  14.8024414
  84.3612145  37.5922213  14.4195834  76.9234350  36.1320939  13.9913446
  76.0866258  35.7043113  13.8097447  76.8957995  36.3253382  14.9284237
  83.7631806  26.0442869  24.6954692  83.8119961  26.9204992  24.3132462
  84.3054320  25.5020262  24.1226335  94.2486651  36.5883992  23.9755829
  93.4582195  36.5708131  23.4360329  94.0120006  37.1272286  24.7304866
  94.3684526  33.4376458  21.2888558  94.4182531  33.2726466  22.2304081
  94.2598450  32.5703717  20.8986439  83.2520785  36.1165004   8.5780647
  83.4008905  36.8000468   7.9247319  84.0587228  36.0970094   9.0930102
  91.6588289  29.4207386  22.6047865  92.5598151  29.2813851  22.3131862
  91.7336263  29.5861841  23.5446042  85.9931094  26.7974241  21.4501051
  85.1234403  27.0907807  21.1783639  86.2290574  27.3814686  22.1708315
  95.8702723  35.8573400  21.5330579  95.5787531  36.2203380  22.3694040
  95.2574854  35.1440408  21.3543911  94.1189911  30.9806014  20.0010637
  94.5944033  31.1733661  19.1929489  93.1955477  31.0365200  19.7554021
  81.0073418  32.1430182   9.5841716  80.7619460  31.2392512   9.7821926
  81.1769332  32.1447332   8.6421194  88.6970128  23.0153858  18.9666471
  89.2152072  23.7514885  18.6412960  88.3425261  23.3217851  19.8013230
  80.2769065  27.8758539   7.0827877  79.5838310  27.9502894   6.4267913
  80.0320817  27.1118883   7.6049394  86.7516190  38.6113134   6.0492394
  86.1790158  39.2303322   5.5962866  87.3248984  39.1612496   6.5832316
  92.8191580  27.8571775  18.2338943  93.7709003  27.9569872  18.2551167
  92.6495031  27.0650043  18.7437027  90.8405960  24.9427358  18.4198344
  90.2455892  25.2232371  17.7244833  90.5555656  25.4321259  19.1915085
  89.9713450  38.8950285   7.1800976  90.9044123  38.8295846   7.3833852
  89.8836663  39.7306551   6.7215509  95.2979658  31.0777894  17.3481243
  95.2655978  30.1393895  17.5340926  95.9080282  31.1561931  16.6147067
  95.4474147  27.8688938  17.3939526  94.9313195  27.0847394  17.2069455
  96.3314095  27.5407654  17.5586045  99.1971505  30.2801764  17.0861731
  98.4704669  30.1457729  16.4778222  98.7818792  30.5878592  17.8918449
  87.0201681  33.9991693  24.8509104  87.9404691  34.1770292  25.0449150
  86.9851265  33.0547739  24.6988803  76.2383846  29.1930287  13.7762378
  75.9186631  28.3395595  13.4836752  75.6917275  29.4078865  14.5320346
  80.0163754  31.9092728  17.4931885  80.2349764  32.8409836  17.5119919
  80.4289528  31.5500702  18.2786689  84.8891619  27.4825934  26.8834634
  84.7888346  28.4320291  26.8146725  84.6713161  27.1544173  26.0110704
  76.1072106  32.8133199  15.7455500  75.4135578  32.3987151  15.2325454
  76.8545097  32.8553735  15.1488919  84.7522889  30.9123073  25.6999695
  84.2689971  31.7123433  25.9063584  84.8383828  30.9231017  24.7467139
  78.0208849  32.7451452  13.6221515  77.9979537  32.8439140  12.6703398
  78.3309486  33.5916603  13.9438681  80.6796227  34.8027607  17.7368129
  81.6339480  34.7711550  17.6698061  80.4808750  34.3418231  18.5518355
  81.2695609  33.3728723  20.3038927  82.0888498  33.8672802  20.3273764
  81.5432417  32.4560692  20.2756494  79.0346456  40.3447227  14.7538327
  78.9000924  39.5847628  14.1876325  78.6178518  41.0688127  14.2867116
  82.1915582  41.2416544  14.9656770  82.0747966  42.1861976  14.8635460
  81.3708028  40.9390105  15.3542569  76.5230523  27.7066857  21.0031124
  77.1689387  27.1965811  21.4918349  76.3147674  28.4435539  21.5774549
  89.0483915  34.7747705  26.5023264  89.9175075  34.9488357  26.1409899
  88.5690667  35.5942122  26.3798994  83.2170096  41.8944806  18.1812698
  84.1197342  41.9268416  18.4979193  82.9907466  40.9645257  18.1959034
  84.9723698  40.6475792  14.8422777  84.0219329  40.6477654  14.7287149
  85.2756184  39.9008527  14.3258811  80.8628014  24.8534474  25.1006138
  81.7259476  24.4971279  25.3109463  80.2893425  24.5148369  25.7881542
 100.7076391  46.4836331  15.9068539 101.3454801  46.3643078  15.2031879
 100.5897234  47.4317175  15.9656491  97.5166097  46.4363759  15.8430064
  97.1784609  46.3204823  14.9550599  98.3855866  46.0354924  15.8231070
  93.3752913  48.2899235  11.8326955  92.8117778  48.1989172  11.0643243
  93.2605308  47.4699140  12.3129447  97.9985880  47.5898610  21.8016269
  97.9874521  47.1951409  20.9296773  98.1606520  46.8564683  22.3950041
  90.9217345  49.7850427  14.6711175  91.7138637  49.4441251  14.2557475
  91.1613995  49.8945402  15.5913329  98.9552472  51.9570203   7.1441420
  98.3040452  52.5424283   6.7575433  99.7496835  52.4876398   7.2036457
  92.8808099  49.0459340   7.5428554  93.6538975  48.4988327   7.4041430
  93.2333498  49.9103589   7.7543015  94.7193142  50.3735722  20.7495453
  94.4283008  51.2781353  20.6342120  95.3550126  50.4152250  21.4639523
  95.6449348  47.7512571  17.3396813  96.2412921  47.5268593  16.6253776
  95.7024320  47.0097316  17.9422261 100.2617660  44.2087785  12.9821747
 101.0480749  43.7907208  12.6312164 100.5256364  45.1133877  13.1503396
 100.4327737  49.6460635   7.6810404  99.7973570  49.7195261   8.3931309
 100.1025143  50.2354234   7.0029483  94.9370666  47.1080112   7.3771379
  94.8206924  46.4325015   8.0452463  95.0472925  46.6212486   6.5603532
  97.2802207  46.5690259  11.0818068  96.9160414  46.0420880  11.7930990
  98.1369322  46.1788728  10.9084554 103.1851507  37.8584592  18.3449334
 102.8534832  38.7280003  18.1210549 102.5897121  37.5420876  19.0243365
  99.6783027  50.0597138  17.7445247  99.3783750  50.9622177  17.6361054
  99.3334086  49.7929321  18.5966400  93.1295508  46.5110935  13.7781951
  92.2046005  46.3787149  13.9859643  93.3779921  47.2905154  14.2751894
 103.0780170  42.5779678  15.4242684 102.1697048  42.5095086  15.1301445
 103.0267766  43.0551623  16.2524510  96.8996914  44.0537816   7.0626083
  96.7796540  44.4994867   7.9011564  96.2049503  44.4023134   6.5039622
  90.4904319  46.1544208  14.6125741  90.6196700  46.4078687  15.5265152
  89.8101771  46.7471916  14.2930396  94.6603806  56.8241458  10.7116215
  94.5827836  57.7749283  10.7904695  94.0565450  56.4787331  11.3691141
  97.1521036  43.9969324  23.3677582  96.3754370  44.5563244  23.3580446
  97.7911599  44.4826107  23.8892452 104.9441817  40.7796116  17.2020558
 104.3016197  41.0728650  16.5560353 104.4396745  40.6649037  18.0073755
  95.4067409  46.8054777  22.9295549  96.1482093  47.3439821  22.6530372
  94.7004394  47.4321066  23.0867100 100.8822748  48.9483917  21.5267710
 101.2906104  48.5066328  20.7822342 100.1600010  48.3736545  21.7801903
  97.2353818  43.8856524  18.9001267  98.0815013  44.3095938  19.0435916
  97.1752456  43.2290149  19.5939830 101.2051563  49.5085108  15.2819999
 100.5760425  49.6730822  14.5796067 100.8177225  49.9226718  16.0530963
 105.0840795  50.4439546  12.6364363 104.3991833  50.8238447  12.0861396
 105.1684644  51.0534873  13.3696311 100.3853264  41.5460893  20.5582441
 100.1414195  42.3002953  20.0216716 100.6613194  41.9246240  21.3929688
 102.3391726  48.0899505  19.2359706 102.5508622  48.7331265  18.5594087
 102.2921475  47.2561821  18.7681636  99.9417955  40.7017326  16.1396278
  99.0802434  40.9998579  16.4313016  99.9680390  40.9187724  15.2077311
  96.7579525  49.2459516  12.5470084  97.2217870  49.5247219  11.7574707
  96.4936323  48.3442961  12.3643175  93.6503606  48.7930998  15.4849847
  94.2204963  49.2218266  14.8467332  94.2411718  48.5113582  16.1834033
  95.6948411  45.3682669   9.3559649  96.3972454  45.8203712   9.8233576
  95.3629039  44.7266487   9.9839542  94.1428772  43.9594425  23.7310859
  93.5127433  44.6410706  23.9646255  94.0364860  43.8477507  22.7863997
  89.4373745  43.6266221  14.6576783  88.6472799  43.8823750  14.1816893
  89.9284992  44.4414559  14.7628823 103.4537554  50.9671460  17.4082064
 104.2754998  50.5651648  17.1264745 103.4499957  50.8639695  18.3598179
  91.3888490  43.9910800  11.6160259  90.5919653  44.1029495  12.1343755
  91.1614082  44.3297453  10.7501150  97.2194158  50.5155504  19.5642774
  97.2838590  50.9775911  20.4000946  96.5105082  49.8852869  19.6925084
  87.7211448  43.8796712  17.0891774  87.9719486  44.7643722  17.3549350
  88.2570996  43.7001313  16.3166865  96.9342175  52.1823611   9.4321754
  96.7987850  53.0275147   9.8606602  97.4751988  52.3842889   8.6687688
  93.4209515  38.2615191  26.0936110  93.0276461  37.7081390  26.7683754
  94.2375655  38.5725769  26.4842627  90.3871573  49.6999049  10.0049680
  90.8996093  50.4942299  10.1555244  91.0394286  49.0025340   9.9383281
  92.1966457  52.8164805  12.0872433  92.3733086  53.7382770  11.8993417
  92.9923291  52.5023225  12.5166812  96.3377476  39.6773070  23.6856366
  97.0787189  40.2780223  23.6060829  96.5695399  38.9350708  23.1274409
  91.4818814  44.8629437  21.9634596  91.3672329  43.9614695  22.2641695
  90.6263332  45.1093134  21.6119412  98.5610652  52.8047178  23.5622097
  98.1174506  52.0183556  23.2443001  99.2227865  52.9926328  22.8965987
  93.3197773  54.3342979  18.0882775  93.8705198  54.2060043  17.3159769
  92.4809249  54.6337868  17.7377668 100.6591890  53.0849978  21.5903498
 100.6410365  53.9058859  21.0983767 101.5811810  52.9604053  21.8153639
  97.1164944  50.5994107  22.4327006  97.6493281  49.8382395  22.2026314
  96.5879025  50.3067759  23.1751161 100.2834639  35.7054173  17.9620648
  99.9398908  36.5955815  17.8859758 100.6513602  35.5155831  17.0990233
  88.3520490  48.0287703  10.7809250  89.1895712  48.4384712  10.5642958
  88.5298757  47.0887146  10.7509444  97.8332033  40.5412485  11.5278321
  96.9773629  40.1519335  11.3483960  98.2458984  40.6204446  10.6678107
  99.3631179  38.0758828  15.9269881  98.8595975  38.0388963  15.1137686
  99.6561786  38.9851571  15.9866538  95.6074065  38.1597558  14.9336063
  96.4727062  37.9640367  14.5741952  95.6751574  37.9307910  15.8605420
  98.4817657  49.7280100   9.9445818  97.9539018  48.9932859   9.6319056
  97.9805159  50.5054776   9.6985787 103.4610503  47.9229120  15.0612864
 102.8034177  48.6128381  15.1492993 104.2650902  48.3125552  15.4046851
  93.2136384  40.3899766  12.3052430  93.7880136  40.1674947  11.5725623
  93.8007367  40.4588460  13.0581031 102.2715962  46.2773493  13.1116806
 102.7847843  46.9103485  13.6138516 102.9217185  45.6774688  12.7460166
  93.5405971  42.4204227   6.3248315  92.7043284  42.7578913   6.6457590
  93.4010741  42.2853207   5.3875452  95.5159052  37.2641015  11.0327499
  94.8623464  36.9490032  10.4084114  95.4739526  36.6416755  11.7587322
  98.7496792  43.7522948  15.3575147  97.8319354  43.9737895  15.1996835
  99.1656936  43.8269259  14.4986854  99.5331840  45.1514364  10.4877827
 100.2803659  45.6635761  10.1784949  99.8023430  44.8298417  11.3482221
  97.8058490  47.6472905   7.4704781  96.8969710  47.3631937   7.5677251
  97.8353574  48.0671983   6.6108088 103.0377758  51.2579494  11.2395949
 102.5840085  50.4170404  11.2961139 102.4071724  51.8940893  11.5770729
 101.4810697  53.0955991  12.1745767 101.7733671  53.6561048  11.4558133
 101.9909318  53.3884552  12.9298926  88.3746661  45.3678419  11.4519984
  88.1771061  44.7747779  10.7271050  87.8193325  45.0630629  12.1695922
  96.3543384  45.2601525  13.5714577  96.4091994  44.3075362  13.4957053
  95.5434586  45.4160964  14.0555875  94.2935744  43.8778585  11.3304956
  93.4803610  44.1772756  11.7370148  94.7894738  43.4834274  12.0479438
  96.4444322  53.8736342  13.2639220  96.4020501  54.0997188  12.3347752
  97.3607021  53.6399717  13.4125021  99.8909956  44.3420409  20.1619849
 100.2459344  44.5691883  21.0214315 100.5382087  44.6738786  19.5397105
  93.7849819  41.4496941  16.9466190  94.4249198  41.3085700  16.2489154
  92.9527350  41.1631454  16.5704792 105.6477073  49.5315372  15.8780450
 106.0813579  49.4390661  16.7263504 106.3608653  49.5072873  15.2400466
  94.5610123  50.7499371  13.0601183  95.3550721  50.2549691  12.8583758
  93.8501815  50.2217234  12.6968889  99.3804967  53.1317466  17.4113551
  99.4341990  53.7008403  18.1791266  98.5119749  53.3019352  17.0467588
  90.8692886  44.8942453   9.1360936  89.9390475  44.8326908   9.3530898
  90.9650358  44.3718405   8.3397577  90.7878435  41.4197266  11.7239177
  91.0485253  42.3342599  11.6148338  91.6095608  40.9521708  11.8735790
  92.2603361  42.8335023  18.8938002  92.9326414  42.6252385  18.2450651
  91.4333147  42.6357109  18.4543234 106.5092622  49.5739073  18.4113335
 106.7028512  50.4784884  18.6572610 106.4093240  49.1146492  19.2451920
  98.1628933  39.4596964  20.9103663  97.5156848  40.1586913  20.8168139
  98.9329948  39.8933108  21.2779911 101.5707731  49.7245816  23.9854216
 101.4193237  49.4956367  23.0684300 101.5612410  50.6816417  23.9985561
  98.3393067  47.2977729  18.9700482  99.2685127  47.4488888  18.7969450
  97.9184097  47.3861749  18.1149129  97.1381399  51.3228393  16.7399020
  96.9992485  50.9547177  17.6124958  96.3495995  51.8376032  16.5682978
  97.7329551  56.4237489   8.0824557  97.9081307  55.9525533   8.8970179
  97.0462339  57.0503256   8.3105817  98.6886614  50.7009996  14.1287858
  98.3536447  50.6610766  15.0245508  98.1890560  50.0354712  13.6558268
  92.6630858  46.1077626  19.6540439  92.5250656  45.3757864  20.2551978
  93.5735782  46.0186526  19.3724627  95.2913159  45.8197585  19.1424119
  96.0012777  45.1790777  19.1010737  95.2482467  46.0710480  20.0650299
 103.2799937  52.7564938  22.0630698 103.2212484  52.0724158  21.3961281
 103.6819456  53.4983928  21.6111324  94.0042093  42.8062803  20.9619758
  93.4679450  42.3553541  21.6141354  93.4158801  42.9408712  20.2190222
  92.2990636  59.5726852  14.8564417  92.5387234  60.2045376  15.5343435
  91.4559833  59.2214892  15.1429776 103.2817345  50.7204522  20.2944678
 102.3944123  50.3830444  20.4171076 103.8515896  49.9887553  20.5313443
  84.9346492  47.0528614  13.6187729  85.6217532  46.7390344  13.0308744
  84.7794620  47.9569979  13.3454980  89.7381214  41.9418811  18.0472753
  89.6539403  41.3344480  17.3123163  88.9163920  42.4327829  18.0482249
  96.8118498  55.3805975  17.2605921  96.7388670  56.1860946  17.7725225
  96.3695891  55.5797940  16.4353942  96.6008278  54.6177745  10.7708742
  95.8175800  55.1599425  10.8646967  97.3001023  55.1351724  11.1702983
  99.9104928  40.4272374  13.4142948 100.4073627  39.6742336  13.0944018
  99.1391909  40.4636691  12.8486157 107.7634685  46.1312740  15.0561239
 107.7524561  47.0137455  14.6855172 106.8952065  45.7784290  14.8615776
  99.2717182  55.2792809  19.4164079  99.9845154  55.9140273  19.3439981
  98.7807210  55.3756675  18.6004081 100.9934708  49.1844061  10.9881371
 100.0590987  49.3045524  10.8186075 101.1711377  48.2816528  10.7241381
  96.4939897  42.5689757  13.1414632  96.1237684  42.0160797  13.8295538
  96.9898989  41.9647891  12.5889632  94.3229095  53.0287252  20.2369650
  95.0238555  53.6623735  20.3899044  93.8524210  53.3701984  19.4765289
 102.4483491  51.3705202   8.5217557 102.7243335  51.2561796   9.4311431
 101.5787990  50.9722687   8.4829730 102.3523923  37.3941968  15.5622307
 101.4387002  37.6246194  15.7304513 102.7817024  37.4780412  16.4136339
 102.1230381  45.5831860  18.0622201 101.4701831  45.8307767  17.4074653
 102.5010761  44.7695998  17.7284678  99.0837555  55.6191553  12.1650371
  99.2659949  54.8013209  12.6278123  99.9070541  55.8359245  11.7275261
  99.4179720  54.5459738   9.4265419  99.9467487  54.0352192   8.8135581
  99.6807940  54.2302268  10.2910952  98.1717954  46.3251671  24.5488238
  97.4958591  46.2245800  25.2190613  98.9945588  46.1690884  25.0124235
  89.9196813  52.5623607  17.1700753  90.5050250  51.8167295  17.3028657
  89.7221652  52.8727564  18.0537417  92.7735468  55.5974855  12.1863195
  92.1045844  56.0820982  11.7027235  92.6348338  55.8444075  13.1006574
  84.5114468  45.1329207  15.8905196  84.5498567  44.5992798  16.6842314
  84.0054761  44.6064413  15.2716173  96.9140737  57.6318598  18.7845854
  97.4659045  57.7950220  19.5494939  97.2546930  58.2223036  18.1125878
  91.8905230  39.9793748  19.3867738  91.9546557  40.8408579  18.9745136
  91.8272350  39.3667750  18.6540097  91.3657503  42.0516880  23.0340773
  91.9929542  41.6693958  23.6478297  90.5085422  41.8331082  23.3996465
 101.7651611  52.4579856  24.6394508 102.3091515  53.0709814  24.1449463
 101.1838456  53.0159434  25.1561521  88.1423045  43.8593310   8.9659127
  88.4376487  42.9503988   8.9126181  87.2411081  43.8381049   8.6440130
 100.0509124  55.5800574  15.7709536  99.9260264  54.7790313  15.2620481
 100.7088215  56.0746767  15.2823506  91.6717292  41.9349306  14.9486676
  90.9503878  42.5485274  14.8094149  92.4610548  42.4707071  14.8703322
 102.1144033  53.3809594  17.3989086 101.1674368  53.2614945  17.3267413
 102.4626806  52.4932092  17.4815347  94.4743606  39.2703733  21.2227328
  94.9978008  39.5166029  21.9853637  94.2555939  40.1023767  20.8030465
  89.8710887  41.5407407   9.0898453  89.5423593  40.6604786   8.9073558
  90.2250258  41.4855076   9.9774842  99.1190466  53.1762310  13.5993438
  98.9715428  52.2479017  13.7801008  99.9443959  53.1982401  13.1150513
  92.9852710  41.8280377   9.4573930  93.3248783  42.3566298   8.7352539
  93.4324831  42.1660783  10.2332497 102.7224588  53.9990869  14.6858311
 103.6471135  53.7933730  14.5482762 102.5539891  53.7507270  15.5947652
  95.6796151  40.2117428  18.9076998  95.3392971  39.4125241  19.3097678
  94.9735157  40.5119139  18.3353831  96.3312623  37.2966740  17.3604321
  97.1538692  36.8227218  17.2383212  96.5750686  38.0757224  17.8603008
  93.8551202  43.9885861  15.1696300  93.7095782  44.3026164  16.0620581
  93.3776405  44.6070761  14.6167199  95.7147585  40.9788409  15.2177189
  95.7009153  40.0829502  14.8809487  96.4320013  40.9859072  15.8515476
  97.5673715  41.4125749  17.2630317  97.3091493  42.3342820  17.2614647
  97.0358756  41.0156183  17.9530781 102.5119904  54.5176536  10.0420402
 102.6856782  53.9522959   9.2894255 103.0048795  55.3177431   9.8599892
  88.3296864  46.5291205  18.1083961  87.7850332  47.3051013  18.2404235
  89.2076214  46.8762010  17.9503083  95.1184480  39.8602789  10.4864760
  95.2400392  38.9319435  10.6855647  94.8286523  39.8741475   9.5743075
  97.9875671  37.5457699  13.6231479  98.0097368  37.6097033  12.6683459
  98.4043730  36.7062208  13.8171986  89.1162886  45.6561101  21.0014118
  88.3744622  45.8043737  21.5878748  88.7955630  45.9169367  20.1380867
  97.0606548  55.1977080  20.7994508  97.3693675  54.9526226  21.6717208
  97.8582030  55.4023718  20.3113378  97.0827160  57.3514989  13.0299885
  96.6432151  56.8591368  13.7232741  97.8335277  56.8087957  12.7891960
  89.5619499  53.5426530  13.0324513  90.3877519  53.2430302  12.6523156
  89.2113551  52.7734153  13.4814301  94.5301033  52.8952998  15.1022186
  93.9081042  52.2323703  14.8024414  95.2005899  52.9214130  14.4195834
  87.7628104  51.4612857  13.9913446  86.9260013  51.0335031  13.8097447
  87.7351750  51.6545300  14.9284237  94.6025560  41.3734786  24.6954692
  94.6513715  42.2496909  24.3132462  95.1448074  40.8312179  24.1226335
 105.0880406  51.9175910  23.9755829 104.2975949  51.9000048  23.4360329
 104.8513760  52.4564203  24.7304866 105.2078281  48.7668376  21.2888558
 105.2576286  48.6018383  22.2304081 105.0992204  47.8995635  20.8986439
  94.0914539  51.4456922   8.5780647  94.2402660  52.1292386   7.9247319
  94.8980983  51.4262012   9.0930102 102.4982043  44.7499304  22.6047865
 103.3991906  44.6105769  22.3131862 102.5730018  44.9153759  23.5446042
  96.8324848  42.1266159  21.4501051  95.9628158  42.4199725  21.1783639
  97.0684329  42.7106604  22.1708315 106.7096478  51.1865318  21.5330579
 106.4181286  51.5495298  22.3694040 106.0968609  50.4732326  21.3543911
 104.9583666  46.3097932  20.0010637 105.4337787  46.5025578  19.1929489
 104.0349231  46.3657118  19.7554021  91.8467172  47.4722099   9.5841716
  91.6013214  46.5684429   9.7821926  92.0163087  47.4739250   8.6421194
  99.5363882  38.3445776  18.9666471 100.0545826  39.0806803  18.6412960
  99.1819015  38.6509769  19.8013230  91.1162820  43.2050457   7.0827877
  90.4232065  43.2794812   6.4267913  90.8714572  42.4410801   7.6049394
 103.6585335  43.1863692  18.2338943 104.6102758  43.2861790  18.2551167
 103.4888785  42.3941961  18.7437027 101.6799714  40.2719275  18.4198344
 101.0849646  40.5524288  17.7244833 101.3949411  40.7613176  19.1915085
 106.1373413  46.4069812  17.3481243 106.1049733  45.4685813  17.5340926
 106.7474036  46.4853849  16.6147067 106.2867901  43.1980855  17.3939526
 105.7706950  42.4139312  17.2069455 107.1707850  42.8699572  17.5586045
  97.8595436  49.3283611  24.8509104  98.7798445  49.5062210  25.0449150
  97.8245019  48.3839656  24.6988803  87.0777601  44.5222205  13.7762378
  86.7580385  43.6687513  13.4836752  86.5311029  44.7370783  14.5320346
  90.8557509  47.2384646  17.4931885  91.0743518  48.1701754  17.5119919
  91.2683282  46.8792620  18.2786689  95.7285374  42.8117851  26.8834634
  95.6282101  43.7612208  26.8146725  95.5106916  42.4836090  26.0110704
  86.9465861  48.1425116  15.7455500  86.2529332  47.7279069  15.2325454
  87.6938852  48.1845653  15.1488919  95.5916644  46.2414990  25.6999695
  95.1083726  47.0415350  25.9063584  95.6777583  46.2522935  24.7467139
  88.8602604  48.0743370  13.6221515  88.8373292  48.1731057  12.6703398
  89.1703240  48.9208521  13.9438681  91.5189981  50.1319525  17.7368129
  92.4733235  50.1003467  17.6698061  91.3202505  49.6710149  18.5518355
  92.1089364  48.7020641  20.3038927  92.9282252  49.1964720  20.3273764
  92.3826171  47.7852609  20.2756494  89.8740210  55.6739145  14.7538327
  89.7394678  54.9139545  14.1876325  89.4572272  56.3980044  14.2867116
  93.0309336  56.5708462  14.9656770  92.9141720  57.5153894  14.8635460
  92.2101782  56.2682023  15.3542569  87.3624278  43.0358775  21.0031124
  88.0083141  42.5257729  21.4918349  87.1541429  43.7727457  21.5774549
  99.8877670  50.1039622  26.5023264 100.7568830  50.2780275  26.1409899
  99.4084421  50.9234039  26.3798994  94.0563850  57.2236723  18.1812698
  94.9591097  57.2560334  18.4979193  93.8301220  56.2937174  18.1959034
  95.8117452  55.9767710  14.8422777  94.8613083  55.9769572  14.7287149
  96.1149938  55.2300445  14.3258811  91.7021769  40.1826392  25.1006138
  92.5653230  39.8263197  25.3109463  91.1287179  39.8440287  25.7881542
 101.7611100  65.1142344  14.6711175 102.5532392  64.7733169  14.2557475
 102.0007750  65.2237320  15.5913329 105.5586896  65.7027640  20.7495453
 105.2676762  66.6073271  20.6342120 106.1943880  65.7444168  21.4639523
 106.4843103  63.0804489  17.3396813 107.0806675  62.8560511  16.6253776
 106.5418074  62.3389234  17.9422261 103.9689263  61.8402852  13.7781951
 103.0439759  61.7079066  13.9859643 104.2173676  62.6197072  14.2751894
 101.3298074  61.4836126  14.6125741 101.4590455  61.7370605  15.5265152
 100.6495525  62.0763834  14.2930396 106.2461163  62.1346695  22.9295549
 106.9875847  62.6731739  22.6530372 105.5398149  62.7612983  23.0867100
 104.9822527  59.2886343  23.7310859 104.3521187  59.9702624  23.9646255
 104.8758615  59.1769424  22.7863997 100.2767499  58.9558139  14.6576783
  99.4866553  59.2115667  14.1816893 100.7678747  59.7706477  14.7628823
 108.0587912  65.8447421  19.5642774 108.1232345  66.3067829  20.4000946
 107.3498836  65.2144786  19.6925084  98.5605202  59.2088629  17.0891774
  98.8113241  60.0935639  17.3549350  99.0964751  59.0293231  16.3166865
 104.2603270  53.5907109  26.0936110 103.8670215  53.0373307  26.7683754
 105.0769410  53.9017687  26.4842627 107.1771231  55.0064988  23.6856366
 107.9180944  55.6072141  23.6060829 107.4089153  54.2642626  23.1274409
 102.3212569  60.1921355  21.9634596 102.2066084  59.2906612  22.2641695
 101.4657086  60.4385052  21.6119412 106.4467820  53.4889476  14.9336063
 107.3120817  53.2932284  14.5741952 106.5145329  53.2599827  15.8605420
 104.0530139  55.7191683  12.3052430 104.6273891  55.4966865  11.5725623
 104.6401121  55.7880378  13.0581031 106.3552807  52.5932932  11.0327499
 105.7017219  52.2781950  10.4084114 106.3133281  51.9708673  11.7587322
  99.2140415  60.6970336  11.4519984  99.0164815  60.1039697  10.7271050
  98.6587079  60.3922547  12.1695922 107.1937139  60.5893443  13.5714577
 107.2485749  59.6367279  13.4957053 106.3828341  60.7452882  14.0555875
 104.6243574  56.7788858  16.9466190 105.2642953  56.6377617  16.2489154
 103.7921104  56.4923372  16.5704792 101.6272190  56.7489183  11.7239177
 101.8879007  57.6634516  11.6148338 102.4489362  56.2813626  11.8735790
 103.0997115  58.1626940  18.8938002 103.7720169  57.9544302  18.2450651
 102.2726902  57.9649026  18.4543234 103.5024613  61.4369543  19.6540439
 103.3644410  60.7049782  20.2551978 104.4129536  61.3478443  19.3724627
 106.1306913  61.1489503  19.1424119 106.8406532  60.5082695  19.1010737
 106.0876221  61.4002398  20.0650299 104.8435847  58.1354721  20.9619758
 104.3073204  57.6845459  21.6141354 104.2552556  58.2700629  20.2190222
  95.7740246  62.3820532  13.6187729  96.4611286  62.0682262  13.0308744
  95.6188375  63.2861896  13.3454980 100.5774968  57.2710728  18.0472753
 100.4933157  56.6636398  17.3123163  99.7557675  57.7619747  18.0482249
 107.3333651  57.8981675  13.1414632 106.9631439  57.3452715  13.8295538
 107.8292743  57.2939808  12.5889632 105.1622850  68.3579170  20.2369650
 105.8632309  68.9915653  20.3899044 104.6917965  68.6993901  19.4765289
 100.7590568  67.8915525  17.1700753 101.3444004  67.1459213  17.3028657
 100.5615406  68.2019482  18.0537417  95.3508222  60.4621125  15.8905196
  95.3892322  59.9284716  16.6842314  94.8448515  59.9356331  15.2716173
 102.7298985  55.3085666  19.3867738 102.7940311  56.1700496  18.9745136
 102.6666105  54.6959667  18.6540097 102.2051257  57.3808798  23.0340773
 102.8323296  56.9985875  23.6478297 101.3479176  57.1623000  23.3996465
 102.5111047  57.2641224  14.9486676 101.7897633  57.8777191  14.8094149
 103.3004303  57.7998989  14.8703322 105.3137361  54.5995650  21.2227328
 105.8371762  54.8457947  21.9853637 105.0949694  55.4315685  20.8030465
 100.7104642  56.8699325   9.0898453 100.3817348  55.9896704   8.9073558
 101.0644012  56.8146994   9.9774842 106.5189906  55.5409345  18.9076998
 106.1786726  54.7417158  19.3097678 105.8128912  55.8411056  18.3353831
 107.1706377  52.6258658  17.3604321 107.9932447  52.1519136  17.2383212
 107.4144441  53.4049142  17.8603008 104.6944956  59.3177778  15.1696300
 104.5489537  59.6318082  16.0620581 104.2170160  59.9362679  14.6167199
 106.5541339  56.3080326  15.2177189 106.5402908  55.4121420  14.8809487
 107.2713767  56.3150990  15.8515476  99.1690618  61.8583123  18.1083961
  98.6244086  62.6342931  18.2404235 100.0469968  62.2053927  17.9503083
  99.9556640  60.9853019  21.0014118  99.2138376  61.1335654  21.5878748
  99.6349384  61.2461285  20.1380867  98.6021859  66.7904774  13.9913446
  97.7653767  66.3626949  13.8097447  98.5745504  66.9837218  14.9284237
 105.4419314  56.7026704  24.6954692 105.4907470  57.5788827  24.3132462
 105.9841829  56.1604097  24.1226335 107.6718603  57.4558076  21.4501051
 106.8021912  57.7491643  21.1783639 107.9078083  58.0398521  22.1708315
  97.9171355  59.8514122  13.7762378  97.5974140  58.9979431  13.4836752
  97.3704784  60.0662701  14.5320346 101.6951263  62.5676563  17.4931885
 101.9137273  63.4993671  17.5119919 102.1077037  62.2084538  18.2786689
 106.5679128  58.1409769  26.8834634 106.4675855  59.0904126  26.8146725
 106.3500670  57.8128008  26.0110704  97.7859615  63.4717034  15.7455500
  97.0923087  63.0570987  15.2325454  98.5332606  63.5137570  15.1488919
 106.4310398  61.5706908  25.6999695 105.9477480  62.3707268  25.9063584
 106.5171337  61.5814853  24.7467139  99.6996358  63.4035288  13.6221515
  99.6767046  63.5022975  12.6703398 100.0096994  64.2500438  13.9438681
 102.3583736  65.4611443  17.7368129 103.3126989  65.4295385  17.6698061
 102.1596259  65.0002066  18.5518355 102.9483118  64.0312559  20.3038927
 103.7676007  64.5256637  20.3273764 103.2219926  63.1144527  20.2756494
  98.2018032  58.3650693  21.0031124  98.8476896  57.8549647  21.4918349
  97.9935183  59.1019374  21.5774549 102.5415523  55.5118310  25.1006138
 103.4046985  55.1555115  25.3109463 101.9680934  55.1732204  25.7881542
   3.1505996  54.9756172  80.1340499   2.3969705  54.4063570  79.9784503
   3.2853537  54.9418837  81.0811134   3.5612411  55.1331782  82.8660743
   4.2915800  54.8717070  83.4268446   2.9519357  54.3960504  82.9062811
   1.6427708  53.2739645  83.4635194   0.9160872  53.1395610  82.8551686
   1.2274995  53.5816473  84.2691912   1.5676576  52.8017698  79.5912047
   1.0076134  52.8710887  80.3643609   0.9620079  52.6258682  78.8711543
   3.1532594  69.4774212  82.2842003   3.7911004  69.3580959  81.5805343
   3.0353437  70.4255056  82.3429955   1.4008675  74.9508084  73.5214883
   0.7496655  75.5362164  73.1348897   2.1953038  75.4814279  73.5809921
   2.7073863  67.2025665  79.3595211   3.4936952  66.7845089  79.0085628
   2.9712567  68.1071758  79.5276859   2.8783940  72.6398516  74.0583868
   2.2429773  72.7133142  74.7704772   2.5481347  73.2292115  73.3802947
   8.1082290  67.1400899  80.2628189   8.8407462  66.5700115  80.4966019
   7.3521646  66.7522499  80.7034695   5.6307710  60.8522473  84.7222798
   5.2991035  61.7217884  84.4984013   5.0353324  60.5358757  85.4016828
   2.1239230  73.0535019  84.1218711   1.8239953  73.9560058  84.0134518
   1.7790289  72.7867202  84.9739864   5.5236374  65.5717559  81.8016148
   4.6153251  65.5032967  81.5074909   5.4723970  66.0489504  82.6297974
   7.3898020  63.7733997  83.5794022   6.7472400  64.0666531  82.9333817
   6.8852949  63.6586918  84.3847219   5.0438184  67.5197171  74.2679881
   5.9556040  67.7524557  74.0927579   4.5347831  68.1034215  73.7054960
   3.3278951  71.9421798  87.9041174   3.7362308  71.5004209  87.1595806
   2.6056213  71.3674426  88.1575367   3.6507766  72.5022989  81.6593463
   3.0216629  72.6668703  80.9569531   3.2633428  72.9164599  82.4304427
   7.5296998  73.4377427  79.0137826   6.8448036  73.8176328  78.4634860
   7.6140847  74.0472754  79.7469774   2.8309467  64.5398774  86.9355904
   2.5870399  65.2940834  86.3990180   3.1069397  64.9184121  87.7703151
   4.7847930  71.0837386  85.6133170   4.9964825  71.7269146  84.9367551
   4.7377678  70.2499702  85.1455100   2.3874159  63.6955207  82.5169742
   1.5258638  63.9936460  82.8086480   2.4136593  63.9125605  81.5850775
   5.8993758  73.9609341  83.7855527   6.7211201  73.5589529  83.5038209
   5.8956160  73.8577575  84.7371643  13.9899751  70.3048090  80.1340499
  13.2363459  69.7355488  79.9784503  14.1247292  70.2710754  81.0811134
   3.1048093  76.0787859  87.9676962   3.0866568  76.8996740  87.4757231
   4.0268013  75.9541934  88.1927103   2.7290842  58.6992054  84.3394112
   2.3855112  59.5893696  84.2633222   3.0969805  58.5093712  83.4763697
   2.6941125  68.6900665  72.8466547   2.1787748  69.4605270  73.0854934
   2.4218433  68.0165801  73.4699608   1.8087383  61.0696709  82.3043345
   1.3052178  61.0326844  81.4911150   2.1017990  61.9789452  82.3640002
   7.6675399  71.4433020  74.7819720   6.8904842  71.1044179  74.3374882
   8.3466880  71.4485643  74.1074685   2.4827428  66.5627757  74.6726328
   2.1777564  66.8773906  75.5236471   3.4357870  66.6409177  74.7153661
   5.9066706  70.9167001  81.4386328   5.2490380  71.6066262  81.5266457
   6.7107105  71.3063433  81.7820315   4.7172165  69.2711374  79.4890270
   5.2304047  69.9041365  79.9911980   5.3673389  68.6712569  79.1233630
   1.9794539  79.2495698  72.2450941   1.3056238  79.5527395  72.8535899
   2.3660361  80.0524778  71.8956398   1.9788043  68.1452245  76.8651291
   2.7259862  68.6573642  76.5558413   2.2479633  67.8236298  77.7255684
   5.4833961  74.2517375  77.6169413   5.0296288  73.4108285  77.6734603
   4.8527928  74.8878773  77.9544193   4.4266881  65.1809361  78.8470080
   3.6889637  64.6686747  79.1780323   4.6793654  64.7409743  78.0353357
   3.9266900  76.0893872  78.5519231   4.2189875  76.6498929  77.8331596
   4.4365521  76.3822433  79.3072390   4.5278508  57.9585613  79.4411849
   4.8337385  57.0982977  79.1537764   5.2531113  58.5503233  79.2410843
   2.3366159  67.3358290  86.5393313   2.6915547  67.5629764  87.3987779
   2.9838290  67.6676667  85.9170568   8.0663896  70.4576726  77.2442642
   7.9281795  70.6478322  76.3163831   7.7100115  71.2196109  77.7010693
   8.0933276  72.5253253  82.2553914   8.5269782  72.4328542  83.1036968
   8.8064857  72.5010754  81.6173930   1.8261171  76.1255347  83.7887014
   1.8798193  76.6946284  84.5564730   0.9575952  76.2957232  83.4241051
   8.9548825  72.5676954  84.7886799   9.1484715  73.4722764  85.0346074
   8.8549444  72.1084373  85.6225384   1.1342817  73.6947877  80.5061322
   0.7992650  73.6548647  81.4018971   0.6346763  73.0292593  80.0331732
   4.0702009  71.0403911  70.7798381   3.4531180  70.3150739  70.6831434
   3.6018497  71.8013271  70.4365455   5.7256141  75.7502819  88.4404162
   5.6668687  75.0662039  87.7734745   6.1275659  76.4921809  87.9884788
   5.7273548  73.7142403  86.6718141   4.8400327  73.3768325  86.7944540
   6.2972099  72.9825434  86.9086907   2.3561131  63.4210255  79.7916411
   2.8529831  62.6680217  79.4717482   1.5848113  63.4574572  79.2259621
  10.2090889  69.1250621  81.4334703  10.1980765  70.0075336  81.0628636
   9.3408268  68.7722171  81.2389240   3.4390912  72.1781942  77.3654835
   2.5047191  72.2983405  77.1959539   3.6167580  71.2754409  77.1014845
   6.8263463  68.0199262  77.9004869   7.2923915  68.8527253  77.8265172
   7.2770964  67.5544243  78.6050127   4.8939694  74.3643083  74.8991021
   5.1699538  74.2499677  75.8084895   4.0244193  73.9660568  74.8603194
   4.7980126  60.3879849  81.9395770   3.8843206  60.6184075  82.1077977
   5.2273227  60.4718293  82.7909803   4.5686584  68.5769741  84.4395664
   3.9158035  68.8245648  83.7848117   4.9466964  67.7633879  84.1058142
   1.5293758  78.6129434  78.5423835   1.7116153  77.7951090  79.0051587
   2.3526744  78.8297126  78.1048725   1.8635924  77.5397619  75.8038883
   2.3923690  77.0290073  75.1909045   2.1264143  77.2240149  76.6684416
   2.4965328  78.5738455  82.1483000   2.3716467  77.7728194  81.6393945
   3.1544419  79.0684648  81.6596969   4.5600236  76.3747475  83.7762550
   3.6130571  76.2552826  83.7040876   4.9083009  75.4869973  83.8588811
   1.5646669  76.1700191  79.9766902   1.4171632  75.2416898  80.1574472
   2.3900163  76.1920282  79.4923977   5.1680791  76.9928750  81.0631775
   6.0927339  76.7871611  80.9256226   4.9996094  76.7445151  81.9721116
   1.5608184  64.0238028  74.9699019   1.7771798  64.9062666  74.6687847
   1.0802251  63.6324242  74.2404661   4.9576107  77.5114417  76.4193866
   5.1312985  76.9460840  75.6667718   5.4504999  78.3115312  76.2373356
  10.8115498  70.2750840  78.0384166  11.2546645  69.5258165  77.6403289
   9.9342009  70.2660976  77.6557898   5.9451280  76.8281181  73.5190764
   6.6402184  77.4487874  73.7378079   6.2874430  75.9776533  73.7943142
   7.8442703  74.2780887  75.0478095   8.3694027  74.6168160  74.3227415
   7.7565055  73.3427902  74.8641230   7.5336609  74.9113791  90.3529293
   6.7432153  74.8937929  89.8133792   7.2969964  75.4502084  91.1078330
   7.6534484  71.7606257  87.6662022   7.7032489  71.5956264  88.6077544
   7.5448407  70.8933516  87.2759902   4.9438246  67.7437185  88.9821328
   5.8448109  67.6043650  88.6905326   5.0186221  67.9091640  89.9219506
   9.1552681  74.1803198  87.9104043   8.8637489  74.5433179  88.7467504
   8.5424812  73.4670207  87.7317375  10.3548363  71.7456078  80.4306613
  11.1895255  72.1845882  80.5944174  10.4907492  71.2694731  79.6114859
   7.4039869  69.3035813  86.3784101   7.8793991  69.4963459  85.5702952
   6.4805434  69.3594999  86.1327485   1.9820086  61.3383657  85.3439935
   2.5002029  62.0744684  85.0186424   1.6275218  61.6447650  86.1786694
   2.2332680  57.7583939  80.8640832   2.5134434  57.0907128  81.4901258
   3.0183287  57.9513035  80.3515495   6.1041538  66.1801573  84.6112407
   7.0558961  66.2799671  84.6324631   5.9344989  65.3879842  85.1210491
   4.1255918  63.2657156  84.7971808   3.5305850  63.5462169  84.1018296
   3.8405614  63.7551057  85.5688549   3.2563408  77.2180083  73.5574440
   4.1894081  77.1525645  73.7607316   3.1686621  78.0536350  73.0988973
   5.8851425  76.5345954  70.5178388   5.8065056  76.2005817  71.4114146
   6.7061091  77.0267722  70.5169860   8.5829616  69.4007693  83.7254706
   8.5505936  68.4623694  83.9114390   9.1930240  69.4791730  82.9920531
   8.7324104  66.1918736  83.7712990   8.2163153  65.4077193  83.5842918
   9.6164053  65.8637453  83.9359509   6.3934831  59.9359752  79.7308802
   6.1959652  59.6274840  80.6152134   7.0034537  60.6621391  79.8606732
  14.4006166  70.4623700  82.8660743  15.1309554  70.2008988  83.4268446
  13.7913111  69.7252422  82.9062811  12.4821463  68.6031562  83.4635194
  11.7554626  68.4687527  82.8551686  12.0668750  68.9108391  84.2691912
   2.1508478  59.8168659  77.4805334   2.7039517  60.2364112  78.1395357
   2.3878564  58.8904407  77.5228290   5.5287285  61.9269184  76.9883998
   4.9485954  62.5853988  76.6062050   5.2623218  61.1046529  76.5771415
   3.9790851  61.3274242  79.1905318   4.4790630  61.4390776  78.3819637
   4.6226459  61.0235294  79.8306127   4.3112163  64.0869274  76.0440346
   3.4238018  64.3718925  75.8260541   4.7266152  63.9263038  75.1967623
   7.6626699  64.1115795  79.7594685   8.4387089  64.6012248  80.0319302
   6.9374833  64.5373849  80.2166555  10.0999258  64.8243415  80.8168626
  10.6943749  64.5839150  80.1061934  10.1725841  64.1050545  81.4442162
   3.4555376  73.8513949  70.1388366   4.1591227  74.0563951  70.7546022
   2.7318025  74.4190711  70.4037450   4.2853187  69.6023810  76.2590636
   4.2288388  70.0592362  75.4198269   4.8381529  68.8414495  76.0813479
   8.0957993  65.3913542  77.0840756   7.8394927  64.9910178  77.9148963
   7.4710861  66.1057336  76.9590895  12.4070331  68.1309615  79.5912047
  11.8469889  68.2002805  80.3643609  11.8013834  67.9550600  78.8711543
   5.3642074  74.2896478  72.1886826   6.1987678  73.8577677  72.0064301
   5.2026417  74.1178492  73.1163721   5.0187966  70.7928592  73.5543165
   4.9636770  70.6272863  72.6131610   4.3934021  71.5004624  73.7105355
   2.1436211  56.8879477  77.3874421   1.3768607  56.3337964  77.5331103
   2.5546916  56.9601346  78.2488572  13.9926349  84.8066129  82.2842003
  14.6304759  84.6872877  81.5805343  13.8747192  85.7546973  82.3429955
  10.8016055  84.7593557  82.2203528  10.4634567  84.6434622  81.3324062
  11.6705823  84.3584722  82.2004534   6.6602871  86.6129034  78.2100419
   6.0967736  86.5218971  77.4416706   6.5455266  85.7928938  78.6902911
  11.2835838  85.9128409  88.1789733  11.2724479  85.5181207  87.3070237
  11.4456478  85.1794482  88.7723505   4.2067303  88.1080225  81.0484639
   4.9988595  87.7671050  80.6330938   4.4463953  88.2175200  81.9686792
  12.2402430  90.2800002  73.5214883  11.5890409  90.8654082  73.1348897
  13.0346792  90.8106196  73.5809921   6.1658057  87.3689139  73.9202018
   6.9388933  86.8218126  73.7814894   6.5183456  88.2333388  74.1316479
   8.9299306  86.0742369  83.7170277   9.5262878  85.8498392  83.0027240
   8.9874278  85.3327115  84.3195725   8.5024335  83.5281805  71.5520468
   8.7549855  83.0063326  70.7903931   7.5648894  83.3647950  71.6547151
  13.5467617  82.5317583  79.3595211  14.3330707  82.1137006  79.0085628
  13.8106322  83.4363675  79.5276859  13.7177695  87.9690433  74.0583868
  13.0823528  88.0425060  74.7704772  13.3875101  88.5584032  73.3802947
  18.9476045  82.4692816  80.2628189  19.6801217  81.8992033  80.4966019
  18.1915400  82.0814417  80.7034695   8.2220623  85.4309911  73.7544843
   8.1056881  84.7554814  74.4225927   8.3322883  84.9442285  72.9376996
  10.5652164  84.8920058  77.4591532  10.2010372  84.3650679  78.1704453
  11.4219280  84.5018527  77.2858017  16.4701465  76.1814390  84.7222798
  16.1384790  77.0509801  84.4984013  15.8747078  75.8650674  85.4016828
  10.2057651  79.9209958  72.4552880  10.3732054  80.7890194  72.8223351
  10.0154820  80.0837239  71.5314170  12.9632984  88.3826936  84.1218711
  12.6633708  89.2851975  84.0134518  12.6184044  88.1159120  84.9739864
   6.4145466  84.8340733  80.1555415   5.4895962  84.7016947  80.3633107
   6.6629879  85.6134953  80.6525358  16.3630128  80.9009477  81.8016148
  15.4547006  80.8324885  81.5074909  16.3117724  81.3781422  82.6297974
  10.1846872  82.3767615  73.4399547  10.0646497  82.8224666  74.2785027
   9.4899461  82.7252933  72.8813085   3.7754277  84.4774007  80.9899204
   3.9046658  84.7308486  81.9038616   3.0951728  85.0701715  80.6703859
  18.2291775  79.1025915  83.5794022  17.5866155  79.3958448  82.9333817
  17.7246703  78.9878835  84.3847219  15.8831938  82.8489088  74.2679881
  16.7949794  83.0816475  74.0927579  15.3741585  83.4326132  73.7054960
  14.1672706  87.2713716  87.9041174  14.5756062  86.8296127  87.1595806
  13.4449967  86.6966344  88.1575367  10.5203776  82.2086323  85.2774731
  11.3664971  82.6325736  85.4209380  10.4602414  81.5519947  85.9713294
  14.4901521  87.8314907  81.6593463  13.8610383  87.9960621  80.9569531
  14.1027183  88.2456516  82.4304427  18.3690753  88.7669345  79.0137826
  17.6841791  89.1468246  78.4634860  18.4534602  89.3764671  79.7469774
  13.6703221  79.8690691  86.9355904  13.4264153  80.6232752  86.3990180
  13.9463152  80.2476039  87.7703151  15.6241684  86.4129304  85.6133170
  15.8358579  87.0561063  84.9367551  15.5771432  85.5791620  85.1455100
  13.2267913  79.0247124  82.5169742  12.3652392  79.3228378  82.8086480
  13.2530348  79.2417523  81.5850775  10.0429483  87.5689315  78.9243548
  10.5067828  87.8477018  78.1348170   9.7786281  86.6672759  78.7416638
   6.9353564  87.1160796  81.8623311   7.5054921  87.5448065  81.2240796
   7.5261675  86.8343381  82.5607497   8.9798369  83.6912467  75.7333113
   9.6822412  84.1433511  76.2007039   8.6478997  83.0496286  76.3613006
   2.7223703  81.9496020  81.0350247   1.9322757  82.2053548  80.5590357
   3.2134950  82.7644358  81.1402287  16.7387512  89.2901259  83.7855527
  17.5604956  88.8881446  83.5038209  16.7349915  89.1869493  84.7371643
   4.6738448  82.3140599  77.9933723   3.8769611  82.4259293  78.5117219
   4.4464040  82.6527251  77.1274614  24.8293505  85.6340007  80.1340499
  24.0757214  85.0647406  79.9784503  24.9641046  85.6002672  81.0811134
  10.2192133  90.5053410  75.8095218  10.0837808  91.3504945  76.2380066
  10.7601946  90.7072687  75.0461152   3.6721531  88.0228848  76.3823143
   4.1846051  88.8172098  76.5328708   4.3244243  87.3255138  76.3156745
   5.4816415  91.1394604  78.4645896   5.6583044  92.0612569  78.2766880
   6.2773249  90.8253023  78.8940276   9.6227434  78.0002869  90.0629830
  10.3637147  78.6010022  89.9834292   9.8545357  77.2580506  89.5047873
  13.9441848  91.4079776  87.9676962  13.9260323  92.2288657  87.4757231
  14.8661768  91.2833851  88.1927103  13.5684597  74.0283972  84.3394112
  13.2248866  74.9185613  84.2633222  13.9363559  73.8385629  83.4763697
   1.6370447  86.3517502  77.1582714   2.4745669  86.7614510  76.9416422
   1.8148715  85.4116944  77.1282908  13.5334879  84.0192583  72.8466547
  13.0181503  84.7897187  73.0854934  13.2612188  83.3457719  73.4699608
  11.1181991  78.8642284  77.9051785  10.2623587  78.4749134  77.7257424
  11.5308942  78.9434244  77.0451571  12.6481137  76.3988627  82.3043345
  12.1445933  76.3618762  81.4911150  12.9411744  77.3081370  82.3640002
   8.8924023  76.4827357  81.3109527   9.7577020  76.2870165  80.9515416
   8.9601532  76.2537708  82.2378883  18.5069154  86.7724937  74.7819720
  17.7298596  86.4336097  74.3374882  19.1860635  86.7777561  74.1074685
  13.3221183  81.8919675  74.6726328  13.0171318  82.2065824  75.5236471
  14.2751625  81.9701095  74.7153661  11.7667614  88.0509898  76.3219282
  11.2388976  87.3162658  76.0092519  11.2655117  88.8284575  76.0759250
  16.7460461  86.2458919  81.4386328  16.0884135  86.9358180  81.5266457
  17.5500860  86.6355351  81.7820315   6.4986342  78.7129564  78.6825893
   7.0730094  78.4904746  77.9499086   7.0857325  78.7818259  79.4354495
  15.5565919  84.6003291  79.4890270  16.0697801  85.2333283  79.9911980
  16.2067143  84.0004487  79.1233630   6.8255929  80.7434025  72.7021779
   5.9893241  81.0808712  73.0231053   6.6860699  80.6083005  71.7648916
   8.8009010  75.5870813  77.4100963   8.1473422  75.2719831  76.7857578
   8.7589484  74.9646554  78.1360786   9.9120215  85.8690108  69.3254255
   9.0047276  85.6379362  69.5245404  10.4091247  85.0727728  69.5128236
  12.8188294  94.5787616  72.2450941  12.1449992  94.8819312  72.8535899
  13.2054116  95.3816696  71.8956398  12.0346750  82.0752747  81.7348610
  11.1169312  82.2967694  81.5770299  12.4506894  82.1499057  80.8760318
  12.8181798  83.4744163  76.8651291  13.5653617  83.9865560  76.5558413
  13.0873387  83.1528215  77.7255684  11.0908448  85.9702703  73.8478245
  10.1819667  85.6861736  73.9450715  11.1203532  86.3901782  72.9881552
  16.3227716  89.5809293  77.6169413  15.8690043  88.7400203  77.6734603
  15.6921682  90.2170691  77.9544193  15.2660635  80.5101279  78.8470080
  14.5283392  79.9978665  79.1780323  15.5187409  80.0701660  78.0353357
  14.7660655  91.4185789  78.5519231  15.0583629  91.9790847  77.8331596
  15.2759275  91.7114350  79.3072390  15.3672262  73.2877531  79.4411849
  15.6731139  72.4274894  79.1537764  16.0924867  73.8795151  79.2410843
   1.6596618  83.6908217  77.8293447   1.4621018  83.0977578  77.1044514
   1.1043282  83.3860428  78.5469386   9.6393342  83.5831324  79.9488040
   9.6941952  82.6305160  79.8730517   8.8284544  83.7390763  80.4329339
  10.7884536  87.5111447  71.1866324  10.3503966  86.7947306  70.7271961
  11.5294977  87.7387562  70.6251415   7.5785702  82.2008384  77.7078419
   6.7653568  82.5002554  78.1143611   8.0744696  81.8064072  78.4252902
   9.7294280  92.1966141  79.6412684   9.6870459  92.4226987  78.7121216
  10.6456979  91.9629515  79.7898485  13.1759914  82.6650208  86.5393313
  13.5309301  82.8921681  87.3987779  13.8232045  82.9968585  85.9170568
  18.9057651  85.7868644  77.2442642  18.7675549  85.9770240  76.3163831
  18.5493870  86.5488027  77.7010693   7.0699777  79.7726739  83.3239654
   7.7099156  79.6315498  82.6262618   6.2377307  79.4861253  82.9478256
  18.9327030  87.8545171  82.2553914  19.3663537  87.7620460  83.1036968
  19.6458611  87.8302671  81.6173930   7.8460081  89.0729170  79.4374647
   8.6400679  88.5779490  79.2357222   7.1351773  88.5447033  79.0742352
  12.6654925  91.4547265  83.7887014  12.7191947  92.0238201  84.5564730
  11.7969707  91.6249150  83.4241051   4.1542844  83.2172251  75.5134399
   3.2240432  83.1556707  75.7304361   4.2500316  82.6948204  74.7171041
   4.0728393  79.7427064  78.1012641   4.3335211  80.6572397  77.9921801
   4.8945566  79.2751507  78.2509254   5.5453319  81.1564821  85.2711466
   6.2176372  80.9482183  84.6224114   4.7183105  80.9586907  84.8316698
  19.7942580  87.8968872  84.7886799  19.9878470  88.8014682  85.0346074
  19.6943198  87.4376291  85.6225384  11.4478891  77.7826762  87.2877126
  10.8006806  78.4816712  87.1941603  12.2179906  78.2162906  87.6553375
  11.6243025  85.6207527  85.3473946  12.5535085  85.7718687  85.1742913
  11.2034055  85.7091548  84.4922593  10.4231357  89.6458192  83.1172484
  10.2842442  89.2776976  83.9898422   9.6345953  90.1605831  82.9456442
  11.0179509  94.7467288  74.4598020  11.1931264  94.2755331  75.2743643
  10.3312297  95.3733054  74.6879281  11.9736572  89.0239794  80.5061322
  11.6386404  88.9840564  81.4018971  11.4740518  88.3584510  80.0331732
  14.9095764  86.3695829  70.7798381  14.2924934  85.6442657  70.6831434
  14.4412252  87.1305189  70.4365455   8.5763117  84.1427384  85.5197582
   9.2862735  83.5020576  85.4784201   8.5332425  84.3940278  86.4423763
  16.5649895  91.0794737  88.4404162  16.5062441  90.3953957  87.7734745
  16.9669414  91.8213727  87.9884788   7.2892050  81.1292602  87.3393222
   6.7529408  80.6783340  87.9914818   6.7008759  81.2638510  86.5963686
   6.6994309  80.5881253  69.9019685   5.8223776  80.4670054  69.5381932
   7.1752063  79.7967331  69.6498574  16.5667302  89.0434321  86.6718141
  15.6794081  88.7060243  86.7944540  17.1365854  88.3117352  86.9086907
   3.0231172  80.2648609  84.4246216   2.9389360  79.6574279  83.6896626
   2.2013878  80.7557628  84.4255713   9.8858235  92.9407543  77.1482206
   9.1025757  93.4829223  77.2420431  10.5850981  93.4581523  77.5476447
  13.1954886  78.7502173  79.7916411  13.6923585  77.9972135  79.4717482
  12.4241867  78.7866489  79.2259621  21.0484643  84.4542538  81.4334703
  21.0374519  85.3367254  81.0628636  20.1802022  84.1014089  81.2389240
  14.2784666  87.5073860  77.3654835  13.3440945  87.6275322  77.1959539
  14.4561335  86.6046327  77.1014845   9.7789854  80.8919556  79.5188096
   9.4087642  80.3390596  80.2069002  10.2748947  80.2877689  78.9663096
  17.6657218  83.3491179  77.9004869  18.1317670  84.1819171  77.8265172
  18.1164718  82.8836161  78.6050127  15.7333449  89.6935001  74.8991021
  16.0093293  89.5791595  75.8084895  14.8637947  89.2952485  74.8603194
  15.6373880  75.7171766  81.9395770  14.7236960  75.9475993  82.1077977
  16.0666982  75.8010210  82.7909803  15.4080339  83.9061658  84.4395664
  14.7551789  84.1537566  83.7848117  15.7860719  83.0925796  84.1058142
  12.3687513  93.9421351  78.5423835  12.5509907  93.1243007  79.0051587
  13.1920499  94.1589044  78.1048725  12.7029678  92.8689536  75.8038883
  13.2317445  92.3581991  75.1909045  12.9657898  92.5532067  76.6684416
   5.1755188  78.3023547  85.7641202   5.2396514  79.1638377  85.3518600
   5.1122308  77.6897548  85.0313561   1.4273003  82.1823108  75.3432591
   1.7226444  81.2733787  75.2899645   0.5261039  82.1610848  75.0213593
  13.3359082  93.9030372  82.1483000  13.2110222  93.1020112  81.6393945
  13.9938173  94.3976566  81.6596969   4.9567250  80.2579105  81.3260140
   4.2353836  80.8715072  81.1867613   5.7460506  80.7936870  81.2476786
  15.3993990  91.7039392  83.7762550  14.4524326  91.5844743  83.7040876
  15.7476764  90.8161890  83.8588811   7.7593564  77.5933531  87.6000792
   8.2827966  77.8395828  88.3627101   7.5405897  78.4253566  87.1803929
   3.1560845  79.8637206  75.4671916   2.8273551  78.9834585  75.2847022
   3.5100216  79.8084875  76.3548306  12.4040424  91.4992109  79.9766902
  12.2565386  90.5708816  80.1574472  13.2293917  91.5212199  79.4923977
   6.2702668  80.1510176  75.8347394   6.6098741  80.6796097  75.1126002
   6.7174788  80.4890582  76.6105961  16.0074546  92.3220667  81.0631775
  16.9321093  92.1163529  80.9256226  15.8389849  92.0737068  81.9721116
   8.9646109  78.5347226  85.2850462   8.6242929  77.7355039  85.6871142
   8.2585115  78.8348937  84.7127295   9.6162581  75.6196539  83.7377785
  10.4388650  75.1457017  83.6156675   9.8600644  76.3987023  84.2376471
   8.2570815  78.6484797  74.0340687   8.9779178  79.0266050  73.5304404
   7.6336119  79.3673674  74.1375665  12.4001938  79.3529946  74.9699019
  12.6165552  80.2354584  74.6687847  11.9196005  78.9616160  74.2404661
   7.1401159  82.3115659  81.5469764   6.9945740  82.6255962  82.4394045
   6.6626363  82.9300560  80.9940662   8.9997542  79.3018207  81.5950653
   8.9859111  78.4059301  81.2582951   9.7169970  79.3088871  82.2288939
  10.8523673  79.7355548  83.6403781  10.5941451  80.6572618  83.6388111
  10.3208713  79.3385982  84.3304245  15.7969862  92.8406335  76.4193866
  15.9706739  92.2752757  75.6667718  16.2898753  93.6407230  76.2373356
   8.4034438  78.1832588  76.8638223   8.5250349  77.2549234  77.0629111
   8.1136481  78.1971274  75.9516539  11.2725629  75.8687498  80.0004943
  11.2947325  75.9326831  79.0456923  11.6893688  75.0292007  80.1945449
  21.6509253  85.6042758  78.0384166  22.0940399  84.8550083  77.6403289
  20.7735763  85.5952894  77.6557898  16.7845034  92.1573099  73.5190764
  17.4795939  92.7779792  73.7378079  17.1268184  91.3068450  73.7943142
  18.6836457  89.6072805  75.0478095  19.2087781  89.9460077  74.3227415
  18.5958810  88.6719820  74.8641230  10.3677118  95.6744788  79.4073348
   9.9282108  95.1821167  80.1006205  11.1185235  95.1317756  79.1665424
   7.8150990  91.2182797  81.4795650   7.1931000  90.5553502  81.1797878
   8.4855857  91.2443929  80.7969298  18.3730363  90.2405708  90.3529293
  17.5825907  90.2229847  89.8133792  18.1363718  90.7794002  91.1078330
  18.4928239  87.0898175  87.6662022  18.5426243  86.9248182  88.6077544
  18.3842162  86.2225434  87.2759902   7.3764497  89.7686720  74.9554110
   7.5252618  90.4522185  74.3020783   8.1830941  89.7491810  75.4703566
  15.7832001  83.0729103  88.9821328  16.6841864  82.9335568  88.6905326
  15.8579975  83.2383558  89.9219506  10.1174806  80.4495957  87.8274515
   9.2478116  80.7429523  87.5557103  10.3534287  81.0336402  88.5481778
  19.9946435  89.5095116  87.9104043  19.7031244  89.8725097  88.7467504
  19.3818567  88.7962124  87.7317375  21.1942118  87.0747996  80.4306613
  22.0289009  87.5137800  80.5944174  21.3301246  86.5986649  79.6114859
  18.2433624  84.6327731  86.3784101  18.7187745  84.8255377  85.5702952
  17.3199189  84.6886917  86.1327485   5.1317130  85.7951898  75.9615179
   4.8863172  84.8914228  76.1595390   5.3013045  85.7969048  75.0194657
  12.8213840  76.6675574  85.3439935  13.3395784  77.4036601  85.0186424
  12.4668973  76.9739568  86.1786694   4.4012778  81.5280256  73.4601341
   3.7082023  81.6024611  72.8041377   4.1564530  80.7640599  73.9822858
  13.0726434  73.0875857  80.8640832  13.3528188  72.4199046  81.4901258
  13.8577041  73.2804953  80.3515495  10.8759903  92.2634851  72.4265858
  10.3033870  92.8825038  71.9736330  11.4492696  92.8134212  72.9605780
  16.9435293  81.5093491  84.6112407  17.8952715  81.6091589  84.6324631
  16.7738743  80.7171759  85.1210491  14.9649672  78.5949074  84.7971808
  14.3699604  78.8754087  84.1018296  14.6799369  79.0842975  85.5688549
  14.0957163  92.5472001  73.5574440  15.0287836  92.4817563  73.7607316
  14.0080375  93.3828268  73.0988973  16.7245179  91.8637871  70.5178388
  16.6458811  91.5297735  71.4114146  17.5454846  92.3559639  70.5169860
  19.4223370  84.7299611  83.7254706  19.3899690  83.7915611  83.9114390
  20.0323994  84.8083647  82.9920531  11.2606701  83.5995664  69.7681910
  12.2065806  83.4701872  69.8370328  10.8820946  82.8610325  70.2451339
  19.5717859  81.5210654  83.7712990  19.0556907  80.7369111  83.5842918
  20.4557807  81.1929371  83.9359509  17.2328586  75.2651670  79.7308802
  17.0353407  74.9566758  80.6152134  17.8428291  75.9913308  79.8606732
  25.2399920  85.7915617  82.8660743  25.9703309  85.5300906  83.4268446
  24.6306866  85.0544339  82.9062811  23.3215217  83.9323480  83.4635194
  22.5948381  83.7979445  82.8551686  22.9062504  84.2400309  84.2691912
   9.4449618  81.5245640  69.7036796   8.5381074  81.2278753  69.7799509
   9.7225599  81.2275458  68.8371082  11.0611684  76.0682530  75.8581037
  10.2512412  75.7229615  76.2336283  11.7496101  75.7590073  76.4468648
  12.9902232  75.1460576  77.4805334  13.5433271  75.5656030  78.1395357
  13.2272319  74.2196325  77.5228290   8.2148403  78.3832575  69.8448775
   9.0767567  78.7087473  70.1044592   8.3998747  77.5964071  69.3321841
  16.3681039  77.2561102  76.9883998  15.7879709  77.9145906  76.6062050
  16.1016972  76.4338446  76.5771415  14.8184606  76.6566159  79.1905318
  15.3184384  76.7682694  78.3819637  15.4620214  76.3527212  79.8306127
   2.1452561  86.3973169  79.9994978   2.1223249  86.4960856  79.0476862
   2.4553198  87.2438319  80.3212145  15.1505918  79.4161192  76.0440346
  14.2631773  79.7010843  75.8260541  15.5659907  79.2554955  75.1967623
  18.5020454  79.4407713  79.7594685  19.2780844  79.9304165  80.0319302
  17.7768588  79.8665767  80.2166555  20.9393012  80.1535332  80.8168626
  21.5337503  79.9131068  80.1061934  21.0119596  79.4342463  81.4442162
  14.2949131  89.1805867  70.1388366  14.9984981  89.3855869  70.7546022
  13.5711780  89.7482629  70.4037450  15.1246941  84.9315728  76.2590636
  15.0682143  85.3884279  75.4198269  15.6775284  84.1706413  76.0813479
  18.9351747  80.7205460  77.0840756  18.6788681  80.3202095  77.9148963
  18.3104615  81.4349254  76.9590895  23.2464085  83.4601533  79.5912047
  22.6863643  83.5294722  80.3643609  22.6407588  83.2842518  78.8711543
  16.2035828  89.6188396  72.1886826  17.0381432  89.1869594  72.0064301
  16.0420171  89.4470410  73.1163721  15.8581721  86.1220509  73.5543165
  15.8030524  85.9564781  72.6131610  15.2327776  86.8296542  73.7105355
   9.1677846  75.6228618  73.1328484   9.1556516  76.5670458  73.2896755
  10.0601268  75.4398764  72.8387945   9.0967410  94.2997509  81.2196240
   8.1463041  94.2999370  81.1060613   9.3999896  93.5530243  80.7032275
  12.9829965  72.2171395  77.3874421  12.2162361  71.6629882  77.5331103
  13.3940670  72.2893264  78.2488572  19.3418089  98.8573722  71.5520468
  19.5943610  98.3355244  70.7903931  18.4042648  98.6939868  71.6547151
  24.3861372  97.8609501  79.3595211  25.1724461  97.4428924  79.0085628
  24.6500076  98.7655593  79.5276859  29.7869799  97.7984734  80.2628189
  30.5194971  97.2283951  80.4966019  29.0309155  97.4106334  80.7034695
  27.3095219  91.5106308  84.7222798  26.9778544  92.3801719  84.4984013
  26.7140833  91.1942592  85.4016828  21.0451406  95.2501875  72.4552880
  21.2125808  96.1182112  72.8223351  20.8548575  95.4129157  71.5314170
  27.2023883  96.2301394  81.8016148  26.2940760  96.1616803  81.5074909
  27.1511479  96.7073339  82.6297974  21.0240627  97.7059533  73.4399547
  20.9040252  98.1516583  74.2785027  20.3293215  98.0544850  72.8813085
  29.0685529  94.4317833  83.5794022  28.4259909  94.7250366  82.9333817
  28.5640458  94.3170753  84.3847219  26.7225693  98.1781006  74.2679881
  27.6343549  98.4108393  74.0927579  26.2135340  98.7618050  73.7054960
  21.3597531  97.5378240  85.2774731  22.2058726  97.9617654  85.4209380
  21.2996168  96.8811865  85.9713294  24.5096976  95.1982609  86.9355904
  24.2657908  95.9524669  86.3990180  24.7856906  95.5767956  87.7703151
  24.0661668  94.3539042  82.5169742  23.2046147  94.6520295  82.8086480
  24.0924102  94.5709441  81.5850775  19.8192123  99.0204385  75.7333113
  20.5216166  99.4725428  76.2007039  19.4872752  98.3788204  76.3613006
  35.6687260 100.9631925  80.1340499  34.9150968 100.3939323  79.9784503
  35.8034801 100.9294590  81.0811134  20.4621188  93.3294786  90.0629830
  21.2030902  93.9301940  89.9834292  20.6939111  92.5872424  89.5047873
  24.4078351  89.3575889  84.3394112  24.0642621  90.2477531  84.2633222
  24.7757314  89.1677547  83.4763697  24.3728634  99.3484500  72.8466547
  23.8575257 100.1189105  73.0854934  24.1005942  98.6749637  73.4699608
  21.9575745  94.1934201  77.9051785  21.1017341  93.8041052  77.7257424
  22.3702697  94.2726162  77.0451571  23.4874892  91.7280544  82.3043345
  22.9839687  91.6910680  81.4911150  23.7805499  92.6373287  82.3640002
  19.7317778  91.8119274  81.3109527  20.5970774  91.6162083  80.9515416
  19.7995286  91.5829626  82.2378883  29.3462908 102.1016855  74.7819720
  28.5692351 101.7628015  74.3374882  30.0254389 102.1069478  74.1074685
  24.1614937  97.2211593  74.6726328  23.8565073  97.5357742  75.5236471
  25.1145379  97.2993012  74.7153661  17.3380097  94.0421482  78.6825893
  17.9123848  93.8196664  77.9499086  17.9251079  94.1110177  79.4354495
  26.3959674  99.9295209  79.4890270  26.9091556 100.5625201  79.9911980
  27.0460898  99.3296405  79.1233630  17.6649684  96.0725943  72.7021779
  16.8286996  96.4100630  73.0231053  17.5254453  95.9374923  71.7648916
  19.6402764  90.9162731  77.4100963  18.9867177  90.6011748  76.7857578
  19.5983238  90.2938471  78.1360786  22.8740505  97.4044665  81.7348610
  21.9563066  97.6259612  81.5770299  23.2900648  97.4790975  80.8760318
  23.6575552  98.8036080  76.8651291  24.4047371  99.3157477  76.5558413
  23.9267142  98.4820133  77.7255684  26.1054390  95.8393197  78.8470080
  25.3677146  95.3270583  79.1780323  26.3581163  95.3993578  78.0353357
  26.2066017  88.6169449  79.4411849  26.5124894  87.7566812  79.1537764
  26.9318622  89.2087069  79.2410843  20.4787097  98.9123242  79.9488040
  20.5335706  97.9597078  79.8730517  19.6678299  99.0682681  80.4329339
  18.4179457  97.5300301  77.7078419  17.6047322  97.8294472  78.1143611
  18.9138451  97.1355990  78.4252902  24.0153668  97.9942126  86.5393313
  24.3703056  98.2213599  87.3987779  24.6625799  98.3260503  85.9170568
  29.7451405 101.1160562  77.2442642  29.6069304 101.3062158  76.3163831
  29.3887624 101.8779944  77.7010693  17.9093531  95.1018657  83.3239654
  18.5492911  94.9607416  82.6262618  17.0771062  94.8153170  82.9478256
  14.9122148  95.0718982  78.1012641  15.1728965  95.9864315  77.9921801
  15.7339320  94.6043424  78.2509254  16.3847073  96.4856739  85.2711466
  17.0570127  96.2774101  84.6224114  15.5576860  96.2878825  84.8316698
  22.2872645  93.1118680  87.2877126  21.6400560  93.8108630  87.1941603
  23.0573660  93.5454824  87.6553375  18.1285805  96.4584519  87.3393222
  17.5923162  96.0075258  87.9914818  17.5402513  96.5930428  86.5963686
  17.5388064  95.9173171  69.9019685  16.6617530  95.7961971  69.5381932
  18.0145817  95.1259249  69.6498574  13.8624926  95.5940527  84.4246216
  13.7783115  94.9866196  83.6896626  13.0407633  96.0849545  84.4255713
  24.0348640  94.0794090  79.7916411  24.5317340  93.3264053  79.4717482
  23.2635622  94.1158407  79.2259621  31.8878397  99.7834456  81.4334703
  31.8768274 100.6659171  81.0628636  31.0195777  99.4306007  81.2389240
  20.6183609  96.2211473  79.5188096  20.2481396  95.6682514  80.2069002
  21.1142701  95.6169607  78.9663096  28.5050972  98.6783097  77.9004869
  28.9711424  99.5111089  77.8265172  28.9558473  98.2128078  78.6050127
  26.4767635  91.0463684  81.9395770  25.5630715  91.2767911  82.1077977
  26.9060736  91.1302128  82.7909803  26.2474093  99.2353576  84.4395664
  25.5945544  99.4829483  83.7848117  26.6254473  98.4217714  84.1058142
  16.0148942  93.6315464  85.7641202  16.0790269  94.4930295  85.3518600
  15.9516063  93.0189466  85.0313561  15.7961005  95.5871022  81.3260140
  15.0747591  96.2006990  81.1867613  16.5854261  96.1228787  81.2476786
  18.5987318  92.9225449  87.6000792  19.1221720  93.1687745  88.3627101
  18.3799652  93.7545484  87.1803929  13.9954599  95.1929123  75.4671916
  13.6667306  94.3126502  75.2847022  14.3493970  95.1376792  76.3548306
  17.1096423  95.4802093  75.8347394  17.4492495  96.0088015  75.1126002
  17.5568543  95.8182499  76.6105961  19.8039863  93.8639144  85.2850462
  19.4636684  93.0646957  85.6871142  19.0978870  94.1640855  84.7127295
  20.4556335  90.9488456  83.7377785  21.2782404  90.4748935  83.6156675
  20.6994399  91.7278940  84.2376471  19.0964570  93.9776715  74.0340687
  19.8172932  94.3557968  73.5304404  18.4729874  94.6965592  74.1375665
  23.2395693  94.6821864  74.9699019  23.4559307  95.5646502  74.6687847
  22.7589760  94.2908077  74.2404661  17.9794914  97.6407577  81.5469764
  17.8339495  97.9547880  82.4394045  17.5020118  98.2592477  80.9940662
  19.8391297  94.6310125  81.5950653  19.8252866  93.7351218  81.2582951
  20.5563725  94.6380789  82.2288939  21.6917428  95.0647465  83.6403781
  21.4335205  95.9864536  83.6388111  21.1602468  94.6677900  84.3304245
  19.2428193  93.5124505  76.8638223  19.3644104  92.5841152  77.0629111
  18.9530235  93.5263191  75.9516539  22.1119383  91.1979416  80.0004943
  22.1341080  91.2618749  79.0456923  22.5287442  90.3583924  80.1945449
  32.4903007 100.9334675  78.0384166  32.9334153 100.1842001  77.6403289
  31.6129518 100.9244812  77.6557898  29.3321993 102.4190092  87.6662022
  29.3819998 102.2540100  88.6077544  29.2235916 101.5517351  87.2759902
  26.6225755  98.4021020  88.9821328  27.5235618  98.2627485  88.6905326
  26.6973730  98.5675475  89.9219506  20.9568561  95.7787875  87.8274515
  20.0871870  96.0721441  87.5557103  21.1928041  96.3628320  88.5481778
  32.0335872 102.4039914  80.4306613  32.8682764 102.8429718  80.5944174
  32.1695001 101.9278567  79.6114859  29.0827378  99.9619648  86.3784101
  29.5581500 100.1547295  85.5702952  28.1592943 100.0178834  86.1327485
  23.6607595  91.9967492  85.3439935  24.1789538  92.7328519  85.0186424
  23.3062727  92.3031485  86.1786694  15.2406532  96.8572173  73.4601341
  14.5475777  96.9316528  72.8041377  14.9958284  96.0932517  73.9822858
  23.9120189  88.4167775  80.8640832  24.1921942  87.7490964  81.4901258
  24.6970796  88.6096870  80.3515495  27.7829047  96.8385409  84.6112407
  28.7346470  96.9383506  84.6324631  27.6132497  96.0463677  85.1210491
  25.8043427  93.9240992  84.7971808  25.2093359  94.2046004  84.1018296
  25.5193123  94.4134893  85.5688549  30.2617125 100.0591528  83.7254706
  30.2293445  99.1207529  83.9114390  30.8717749 100.1375565  82.9920531
  22.1000456  98.9287581  69.7681910  23.0459560  98.7993789  69.8370328
  21.7214701  98.1902243  70.2451339  30.4111613  96.8502572  83.7712990
  29.8950662  96.0661028  83.5842918  31.2951562  96.5221288  83.9359509
  28.0722340  90.5943587  79.7308802  27.8747161  90.2858675  80.6152134
  28.6822046  91.3205226  79.8606732  36.0793675 101.1207535  82.8660743
  36.8097063 100.8592823  83.4268446  35.4700620 100.3836257  82.9062811
  34.1608972  99.2615398  83.4635194  33.4342135  99.1271363  82.8551686
  33.7456259  99.5692226  84.2691912  20.2843373  96.8537558  69.7036796
  19.3774828  96.5570670  69.7799509  20.5619354  96.5567376  68.8371082
  21.9005439  91.3974447  75.8581037  21.0906167  91.0521532  76.2336283
  22.5889856  91.0881991  76.4468648  23.8295987  90.4752494  77.4805334
  24.3827025  90.8947948  78.1395357  24.0666073  89.5488242  77.5228290
  19.0542158  93.7124493  69.8448775  19.9161321  94.0379391  70.1044592
  19.2392502  92.9255989  69.3321841  27.2074794  92.5853019  76.9883998
  26.6273463  93.2437823  76.6062050  26.9410727  91.7630364  76.5771415
  25.6578360  91.9858077  79.1905318  26.1578139  92.0974612  78.3819637
  26.3013968  91.6819130  79.8306127  25.9899672  94.7453110  76.0440346
  25.1025527  95.0302760  75.8260541  26.4053661  94.5846873  75.1967623
  29.3414208  94.7699631  79.7594685  30.1174598  95.2596083  80.0319302
  28.6162342  95.1957685  80.2166555  31.7786767  95.4827250  80.8168626
  32.3731258  95.2422986  80.1061934  31.8513350  94.7634380  81.4442162
  25.9640696 100.2607646  76.2590636  25.9075897 100.7176197  75.4198269
  26.5169038  99.4998330  76.0813479  29.7745502  96.0497377  77.0840756
  29.5182436  95.6494013  77.9148963  29.1498370  96.7641171  76.9590895
  34.0857840  98.7893451  79.5912047  33.5257397  98.8586640  80.3643609
  33.4801343  98.6134435  78.8711543  20.0071601  90.9520536  73.1328484
  19.9950270  91.8962376  73.2896755  20.8995022  90.7690681  72.8387945
  23.8223720  87.5463312  77.3874421  23.0556116  86.9921799  77.5331103
  24.2334425  87.6185181  78.2488572  37.0459771 103.9461366  79.4411849
  37.3518648 103.0858730  79.1537764  37.7712376 104.5378986  79.2410843
  34.7513943 103.7459692  80.8640832  35.0315697 103.0782881  81.4901258
  35.5364550 103.9388788  80.3515495  34.6617474 102.8755230  77.3874421
  33.8949870 102.3213717  77.5331103  35.0728179 102.9477099  78.2488572
   3.1505997  31.9818295  66.8585805   2.3969706  31.4125693  66.7029810
   3.2853539  31.9480959  67.8056440   3.5612412  32.1393905  69.5906050
   4.2915801  31.8779193  70.1513753   2.9519358  31.4022627  69.6308118
   1.6427710  30.2801767  70.1880501   0.9160873  30.1457732  69.5796993
   1.2274996  30.5878596  70.9937219   1.5676577  29.8079820  66.3157354
   1.0076135  29.8773010  67.0888916   0.9620081  29.6320805  65.5956850
   3.1532596  46.4836334  69.0087310   3.7911006  46.3643082  68.3050650
   3.0353439  47.4317178  69.0675262   1.4008676  51.9570206  60.2460190
   0.7496656  52.5424287  59.8594204   2.1953039  52.4876401  60.3055228
   2.7073864  44.2087788  66.0840518   3.4936953  43.7907211  65.7330935
   2.9712569  45.1133880  66.2522166   2.8783942  49.6460638  60.7829174
   2.2429775  49.7195265  61.4950079   2.5481348  50.2354237  60.1048254
   8.1082291  44.1463021  66.9873496   8.8407463  43.5762238  67.2211326
   7.3521647  43.7584622  67.4280002   5.6307712  37.8584595  71.4468105
   5.2991036  38.7280006  71.2229320   5.0353325  37.5420879  72.1262135
   2.1239231  50.0597141  70.8464017   1.8239954  50.9622180  70.7379825
   1.7790291  49.7929325  71.6985170   5.5236375  42.5779682  68.5261455
   4.6153252  42.5095090  68.2320216   5.4723971  43.0551626  69.3543280
   7.3898021  40.7796120  70.3039329   6.7472402  41.0728653  69.6579123
   6.8852950  40.6649040  71.1092525   5.0438185  44.5259293  60.9925188
   5.9556041  44.7586680  60.8172885   4.5347832  45.1096337  60.4300267
   3.3278953  48.9483921  74.6286480   3.7362309  48.5066331  73.8841113
   2.6056214  48.3736548  74.8820673   3.6507767  49.5085112  68.3838769
   3.0216630  49.6730826  67.6814837   3.2633429  49.9226721  69.1549733
   7.5296999  50.4439549  65.7383133   6.8448037  50.8238451  65.1880166
   7.6140849  51.0534876  66.4715081   2.8309468  41.5460896  73.6601211
   2.5870400  42.3002957  73.1235487   3.1069399  41.9246244  74.4948458
   4.7847931  48.0899508  72.3378477   4.9964826  48.7331268  71.6612858
   4.7377679  47.2561825  71.8700407   2.3874160  40.7017329  69.2415049
   1.5258639  40.9998583  69.5331786   2.4136595  40.9187728  68.3096081
   5.8993759  50.9671464  70.5100834   6.7211203  50.5651651  70.2283516
   5.8956162  50.8639698  71.4616950  13.9899752  47.3110212  66.8585805
  13.2363460  46.7417610  66.7029810  14.1247293  47.2772877  67.8056440
   1.0066856  52.8047181  76.6640867   0.5630711  52.0183560  76.3461771
   1.6684070  52.9926332  75.9984758   3.1048094  53.0849981  74.6922268
   3.0866570  53.9058862  74.2002537   4.0268014  52.9604056  74.9172409
   2.7290844  35.7054177  71.0639418   2.3855113  36.5955818  70.9878529
   3.0969806  35.5155834  70.2009003   2.6941126  45.6962788  59.5711853
   2.1787750  46.4667392  59.8100241   2.4218435  45.0227924  60.1944915
   1.8087384  38.0758832  69.0288652   1.3052180  38.0388967  68.2156457
   2.1017991  38.9851574  69.0885308   7.6675400  48.4495142  61.5065027
   6.8904843  48.1106302  61.0620189   8.3466881  48.4547765  60.8319992
   2.4827429  43.5689880  61.3971635   2.1777565  43.8836029  62.2481778
   3.4357872  43.6471300  61.4398968   5.9066707  47.9229124  68.1631635
   5.2490382  48.6128385  68.2511763   6.7107106  48.3125556  68.5065621
   4.7172166  46.2773496  66.2135577   5.2304048  46.9103488  66.7157286
   5.3673390  45.6774692  65.8478937   1.9794540  56.2557821  58.9696248
   1.3056239  56.5589517  59.5781206   2.3660362  57.0586901  58.6201705
   1.9788045  45.1514367  63.5896597   2.7259864  45.6635765  63.2803719
   2.2479634  44.8298420  64.4500991   5.4833962  51.2579498  64.3414719
   5.0296289  50.4170408  64.3979910   4.8527929  51.8940896  64.6789499
   4.4266882  42.1871484  65.5715387   3.6889639  41.6748870  65.9025629
   4.6793655  41.7471865  64.7598664   3.9266902  53.0955994  65.2764537
   4.2189876  53.6561052  64.5576903   4.4365522  53.3884555  66.0317696
   4.5278509  34.9647736  66.1657156   4.8337386  34.1045099  65.8783071
   5.2531114  35.5565356  65.9656150   2.3366161  44.3420413  73.2638620
   2.6915548  44.5691886  74.1233086   2.9838292  44.6738790  72.6415875
   8.0663897  47.4638849  63.9687949   7.9281796  47.6540445  63.0409138
   7.7100116  48.2258232  64.4256000   8.0933277  49.5315376  68.9799220
   8.5269784  49.4390665  69.8282274   8.8064858  49.5072876  68.3419236
   1.8261172  53.1317470  70.5132321   1.8798194  53.7008406  71.2810037
   0.9575953  53.3019355  70.1486358   8.9548827  49.5739077  71.5132106
   9.1484717  50.4784887  71.7591381   8.8549445  49.1146496  72.3470691
   4.0163935  49.7245819  77.0872986   3.8649442  49.4956371  76.1703070
   4.0068615  50.6816421  77.1004331   1.1342819  50.7009999  67.2306628
   0.7992651  50.6610769  68.1264278   0.6346764  50.0354715  66.7577038
   4.0702010  48.0466034  57.5043688   3.4531181  47.3212862  57.4076741
   3.6018499  48.8075394  57.1610762   5.7256142  52.7564942  75.1649468
   5.6668688  52.0724162  74.4980051   6.1275660  53.4983932  74.7130094
   5.7273549  50.7204526  73.3963448   4.8400328  50.3830448  73.5189847
   6.2972100  49.9887557  73.6332213   2.3561132  40.4272378  66.5161718
   2.8529832  39.6742340  66.1962788   1.5848114  40.4636694  65.9504927
  10.2090890  46.1312743  68.1580010  10.1980766  47.0137459  67.7873943
   9.3408269  45.7784294  67.9634547   1.7173386  55.2792812  72.5182850
   2.4301358  55.9140277  72.4458751   1.2263415  55.3756678  71.7022852
   3.4390913  49.1844065  64.0900141   2.5047192  49.3045527  63.9204846
   3.6167582  48.2816532  63.8260151   6.8263464  45.0261384  64.6250176
   7.2923917  45.8589376  64.5510478   7.2770965  44.5606366  65.3295434
   4.8939696  51.3705205  61.6236328   5.1699539  51.2561800  62.5330202
   4.0244194  50.9722690  61.5848501   4.7980127  37.3941971  68.6641077
   3.8843207  37.6246198  68.8323284   5.2273229  37.4780415  69.5155109
   4.5686586  45.5831863  71.1640971   3.9158036  45.8307771  70.5093424
   4.9466966  44.7696001  70.8303448   1.5293760  55.6191556  65.2669141
   1.7116154  54.8013212  65.7296894   2.3526746  55.8359249  64.8294031
   1.8635925  54.5459741  62.5284190   2.3923691  54.0352196  61.9154352
   2.1264145  54.2302272  63.3929723   4.2107816  52.4579859  77.7413278
   4.7547720  53.0709817  77.2468233   3.6294661  53.0159438  78.2580291
   2.4965329  55.5800577  68.8728306   2.3716468  54.7790317  68.3639252
   3.1544420  56.0746771  68.3842276   4.5600237  53.3809597  70.5007856
   3.6130573  53.2614948  70.4286183   4.9083010  52.4932095  70.5834118
   1.5646671  53.1762313  66.7012208   1.4171633  52.2479021  66.8819779
   2.3900164  53.1982404  66.2169284   5.1680792  53.9990872  67.7877081
   6.0927340  53.7933734  67.6501532   4.9996096  53.7507273  68.6966423
   1.5608185  41.0300151  61.6944326   1.7771799  41.9124789  61.3933154
   1.0802252  40.6386364  60.9649968   4.9576109  54.5176540  63.1439173
   5.1312986  53.9522962  62.3913025   5.4505000  55.3177435  62.9618663
  10.8115500  47.2812963  64.7629472  11.2546646  46.5320288  64.3648596
   9.9342010  47.2723099  64.3803204   5.9451281  53.8343304  60.2436071
   6.6402186  54.4549997  60.4623386   6.2874431  52.9838655  60.5188449
   7.8442704  51.2843010  61.7723402   8.3694028  51.6230282  61.0472722
   7.7565057  50.3490025  61.5886536   7.5336610  51.9175913  77.0774600
   6.7432154  51.9000052  76.5379099   7.2969965  52.4564207  77.8323636
   7.6534485  48.7668380  74.3907328   7.7032490  48.6018387  75.3322851
   7.5448409  47.8995639  74.0005209   4.9438248  44.7499308  75.7066635
   5.8448110  44.6105772  75.4150633   5.0186222  44.9153762  76.6464812
   9.1552682  51.1865321  74.6349350   8.8637490  51.5495302  75.4712811
   8.5424813  50.4732329  74.4562682  10.3548364  48.7518201  67.1551920
  11.1895256  49.1908005  67.3189480  10.4907493  48.2756854  66.3360166
   7.4039870  46.3097936  73.1029408   7.8793992  46.5025582  72.2948259
   6.4805436  46.3657122  72.8572791   1.9820087  38.3445779  72.0685242
   2.5002031  39.0806806  71.7431730   1.6275220  38.6509773  72.9032001
   2.2332681  34.7646062  67.5886138   2.5134435  34.0969251  68.2146565
   3.0183288  34.9575157  67.0760802   6.1041539  43.1863696  71.3357713
   7.0558962  43.2861793  71.3569937   5.9344990  42.3941964  71.8455798
   4.1255919  40.2719279  71.5217114   3.5305851  40.5524292  70.8263603
   3.8405616  40.7613180  72.2933855   3.2563409  54.2242206  60.2819747
   4.1894082  54.1587768  60.4852622   3.1686622  55.0598473  59.8234279
   5.8851426  53.5408076  57.2423694   5.8065057  53.2067940  58.1359452
   6.7061093  54.0329844  57.2415167   8.5829617  46.4069815  70.4500013
   8.5505937  45.4685816  70.6359697   9.1930241  46.4853852  69.7165838
   8.7324106  43.1980859  70.4958296   8.2163154  42.4139316  70.3088225
   9.6164054  42.8699576  70.6604816   6.3934833  36.9421874  66.4554109
   6.1959654  36.6336963  67.3397441   7.0034538  37.6683513  66.5852039
  14.4006167  47.4685822  69.5906050  15.1309555  47.2071110  70.1513753
  13.7913112  46.7314544  69.6308118  12.4821464  45.6093685  70.1880501
  11.7554628  45.4749650  69.5796993  12.0668751  45.9170514  70.9937219
   2.1508479  36.8230781  64.2050640   2.7039518  37.2426235  64.8640663
   2.3878566  35.8966529  64.2473596   5.5287286  38.9331307  63.7129304
   4.9485955  39.5916111  63.3307357   5.2623219  38.1108651  63.3016722
   3.9790853  38.3336364  65.9150625   4.4790631  38.4452899  65.1064944
   4.6226461  38.0297417  66.5551433   4.3112164  41.0931397  62.7685653
   3.4238019  41.3781048  62.5505847   4.7266153  40.9325160  61.9212930
   7.6626700  41.1177918  66.4839992   8.4387091  41.6074370  66.7564609
   6.9374835  41.5435972  66.9411861  10.0999259  41.8305537  67.5413933
  10.6943750  41.5901273  66.8307241  10.1725843  41.1112668  68.1687469
   3.4555378  50.8576072  56.8633673   4.1591228  51.0626074  57.4791328
   2.7318027  51.4252833  57.1282756   4.2853188  46.6085933  62.9835943
   4.2288389  47.0654484  62.1443575   4.8381530  45.8476617  62.8058786
   8.0957994  42.3975665  63.8086062   7.8394928  41.9972300  64.6394270
   7.4710862  43.1119459  63.6836202  12.4070332  45.1371738  66.3157354
  11.8469890  45.2064927  67.0888916  11.8013835  44.9612723  65.5956850
   5.3642075  51.2958601  58.9132133   6.1987679  50.8639799  58.7309608
   5.2026418  51.1240614  59.8409027   5.0187967  47.7990714  60.2788472
   4.9636771  47.6334986  59.3376916   4.3934023  48.5066747  60.4350662
   2.3333875  50.1039626  79.6042035   3.2025034  50.2780278  79.2428670
   1.8540626  50.9234043  79.4817764   2.1436212  33.8941600  64.1119727
   1.3768608  33.3400086  64.2576410   2.5546917  33.9663469  64.9733879
  13.9926350  61.8128252  69.0087310  14.6304760  61.6934999  68.3050650
  13.8747193  62.7609096  69.0675262  10.8016057  61.7655680  68.9448834
  10.4634568  61.6496745  68.0569369  11.6705825  61.3646845  68.9249840
   6.6602872  63.6191156  64.9345725   6.0967737  63.5281093  64.1662013
   6.5455267  62.7991061  65.4148218  11.2835840  62.9190532  74.9035040
  11.2724480  62.5243330  74.0315543  11.4456479  62.1856604  75.4968811
   4.2067304  65.1142348  67.7729946   4.9988596  64.7733173  67.3576245
   4.4463954  65.2237323  68.6932099  12.2402431  67.2862124  60.2460190
  11.5890411  67.8716205  59.8594204  13.0346794  67.8168319  60.3055228
   6.1658058  64.3751261  60.6447324   6.9388934  63.8280248  60.5060200
   6.5183457  65.2395511  60.8561786   8.0043101  65.7027644  73.8514224
   7.7132967  66.6073274  73.7360890   8.6400085  65.7444171  74.5658293
   8.9299308  63.0804492  70.4415583   9.5262880  62.8560514  69.7272546
   8.9874279  62.3389238  71.0441031   8.5024336  60.5343927  58.2765774
   8.7549857  60.0125449  57.5149237   7.5648895  60.3710073  58.3792458
  13.5467619  59.5379706  66.0840518  14.3330708  59.1199129  65.7330935
  13.8106323  60.4425798  66.2522166  13.7177696  64.9752556  60.7829174
  13.0823529  65.0487183  61.4950079  13.3875102  65.5646155  60.1048254
  18.9476046  59.4754939  66.9873496  19.6801218  58.9054156  67.2211326
  18.1915402  59.0876539  67.4280002   8.2220625  62.4372033  60.4790149
   8.1056883  61.7616937  61.1471234   8.3322885  61.9504407  59.6622302
  10.5652166  61.8982180  64.1836839  10.2010373  61.3712801  64.8949760
  11.4219281  61.5080650  64.0103324  16.4701466  53.1876513  71.4468105
  16.1384791  54.0571924  71.2229320  15.8747080  52.8712797  72.1262135
  10.2057653  56.9272080  59.1798187  10.3732055  57.7952317  59.5468658
  10.0154822  57.0899362  58.2559476  12.9632986  65.3889059  70.8464017
  12.6633709  66.2914098  70.7379825  12.6184045  65.1221242  71.6985170
   6.4145467  61.8402856  66.8800722   5.4895964  61.7079070  67.0878414
   6.6629880  62.6197075  67.3770664  16.3630130  57.9071599  68.5261455
  15.4547007  57.8387008  68.2320216  16.3117725  58.3843544  69.3543280
  10.1846873  59.3829738  60.1644854  10.0646499  59.8286788  61.0030334
   9.4899462  59.7315055  59.6058392   3.7754278  61.4836129  67.7144511
   3.9046659  61.7370608  68.6283923   3.0951730  62.0763837  67.3949166
   7.9453766  72.1533379  63.8134985   7.8677795  73.1041204  63.8923466
   7.3415409  71.8079252  64.4709911  10.4370995  59.3261245  76.4696352
   9.6604329  59.8855165  76.4599217  11.0761558  59.8118028  76.9911222
  18.2291776  56.1088038  70.3039329  17.5866156  56.4020571  69.6579123
  17.7246704  55.9940958  71.1092525  15.8831940  59.8551211  60.9925188
  16.7949796  60.0878598  60.8172885  15.3741587  60.4388255  60.4300267
   8.6917368  62.1346698  76.0314319   9.4332052  62.6731742  75.7549143
   7.9854353  62.7612987  76.1885871  14.1672707  64.2775839  74.6286480
  14.5756063  63.8358249  73.8841113  13.4449969  63.7028466  74.8820673
  10.5203777  59.2148445  72.0020037  11.3664972  59.6387859  72.1454686
  10.4602415  58.5582070  72.6958601  14.4901522  64.8377029  68.3838769
  13.8610384  65.0022743  67.6814837  14.1027184  65.2518639  69.1549733
  18.3690754  65.7731467  65.7383133  17.6841792  66.1530368  65.1880166
  18.4534603  66.3826794  66.4715081  13.6703223  56.8752814  73.6601211
  13.4264155  57.6294874  73.1235487  13.9463153  57.2538161  74.4948458
  15.6241685  63.4191426  72.3378477  15.8358581  64.0623186  71.6612858
  15.5771434  62.5853743  71.8700407  13.2267914  56.0309247  69.2415049
  12.3652393  56.3290500  69.5331786  13.2530349  56.2479646  68.3096081
  10.0429484  64.5751437  65.6488854  10.5067829  64.8539140  64.8593477
   9.7786282  63.6734882  65.4661945   6.9353565  64.1222919  68.5868618
   7.5054922  64.5510187  67.9486102   7.5261677  63.8405504  69.2852803
   8.9798370  60.6974590  62.4578420   9.6822413  61.1495633  62.9252346
   8.6478998  60.0558409  63.0858313   7.4278731  59.2886346  76.8329629
   6.7977392  59.9702627  77.0665026   7.3214819  59.1769428  75.8882767
   2.7223704  58.9558142  67.7595553   1.9322758  59.2115671  67.2835664
   3.2134951  59.7706480  67.8647594  16.7387513  66.2963382  70.5100834
  17.5604957  65.8943569  70.2283516  16.7349916  66.1931616  71.4616950
   4.6738449  59.3202722  64.7179030   3.8769612  59.4321416  65.2362526
   4.4464041  59.6589374  63.8519920  10.5044117  65.8447425  72.6661544
  10.5688549  66.3067832  73.5019716   9.7955041  65.2144790  72.7943854
   1.0061407  59.2088633  70.1910544   1.2569445  60.0935643  70.4568120
   1.5420955  59.0293234  69.4185636  24.8293506  62.6402130  66.8585805
  24.0757215  62.0709528  66.7029810  24.9641048  62.6064795  67.8056440
  10.2192134  67.5115532  62.5340525  10.0837809  68.3567068  62.9625373
  10.7601947  67.7134810  61.7706459   6.7059474  53.5907112  79.1954880
   6.3126420  53.0373311  79.8702524   7.5225614  53.9017691  79.5861398
   3.6721532  65.0290970  63.1068450   4.1846052  65.8234221  63.2574015
   4.3244245  64.3317261  63.0402051   5.4816417  68.1456727  65.1891203
   5.6583045  69.0674691  65.0012187   6.2773250  67.8315146  65.6185583
   9.6227435  55.0064991  76.7875137  10.3637148  55.6072144  76.7079599
   9.8545358  54.2642629  76.2293179   4.7668773  60.1921359  75.0653366
   4.6522288  59.2906616  75.3660465   3.9113291  60.4385055  74.7138183
  11.8460611  68.1339099  76.6640867  11.4024465  67.3475477  76.3461771
  12.5077824  68.3218249  75.9984758   6.6047732  69.6634900  71.1901545
   7.1555157  69.5351964  70.4178539   5.7659208  69.9629789  70.8396438
  13.9441849  68.4141899  74.6922268  13.9260324  69.2350780  74.2002537
  14.8661769  68.2895974  74.9172409  10.4014903  65.9286028  75.5345777
  10.9343240  65.1674316  75.3045085   9.8728984  65.6359680  76.2769931
  13.5684598  51.0346094  71.0639418  13.2248867  51.9247736  70.9878529
  13.9363561  50.8447752  70.2009003   1.6370449  63.3579625  63.8828020
   2.4745671  63.7676633  63.6661728   1.8148716  62.4179067  63.8528214
  13.5334881  61.0254705  59.5711853  13.0181504  61.7959310  59.8100241
  13.2612189  60.3519841  60.1944915  11.1181992  55.8704406  64.6297092
  10.2623588  55.4811257  64.4502730  11.5308944  55.9496367  63.7696877
  12.6481138  53.4050749  69.0288652  12.1445934  53.3680885  68.2156457
  12.9411745  54.3143492  69.0885308   8.8924024  53.4889479  68.0354833
   9.7577021  53.2932288  67.6760723   8.9601533  53.2599831  68.9624190
  18.5069155  63.7787060  61.5065027  17.7298598  63.4398219  61.0620189
  19.1860636  63.7839683  60.8319992  13.3221184  58.8981797  61.3971635
  13.0171319  59.2127947  62.2481778  14.2751626  58.9763217  61.4398968
  11.7667616  65.0572021  63.0464589  11.2388977  64.3224780  62.7337826
  11.2655118  65.8346697  62.8004557  16.7460462  63.2521041  68.1631635
  16.0884136  63.9420303  68.2511763  17.5500861  63.6417473  68.5065621
   6.4986343  55.7191687  65.4071200   7.0730095  55.4966869  64.6744393
   7.0857326  55.7880382  66.1599801  15.5565921  61.6065414  66.2135577
  16.0697802  62.2395406  66.7157286  16.2067144  61.0066609  65.8478937
   6.8255930  57.7496148  59.4267085   5.9893243  58.0870835  59.7476360
   6.6860700  57.6145128  58.4894222   8.8009011  52.5932936  64.1346269
   8.1473423  52.2781953  63.5102884   8.7589485  51.9708676  64.8606092
   9.9120216  62.8752231  56.0499562   9.0047278  62.6441484  56.2490711
  10.4091248  62.0789850  56.2373543  12.8188295  71.5849738  58.9696248
  12.1449994  71.8881435  59.5781206  13.2054117  72.3878819  58.6201705
  12.0346751  59.0814869  68.4593917  11.1169313  59.3029816  68.3015605
  12.4506895  59.1561180  67.6005624  12.8181799  60.4806285  63.5896597
  13.5653618  60.9927682  63.2803719  13.0873389  60.1590338  64.4500991
  11.0908449  62.9764826  60.5723552  10.1819669  62.6923859  60.6696021
  11.1203533  63.3963904  59.7126859  16.3227717  66.5871415  64.3414719
  15.8690044  65.7462325  64.3979910  15.6921683  67.2232814  64.6789499
  15.2660636  57.5163401  65.5715387  14.5283393  57.0040788  65.9025629
  15.5187410  57.0763783  64.7598664  14.7660656  68.4247912  65.2764537
  15.0583630  68.9852969  64.5576903  15.2759277  68.7176473  66.0317696
  15.3672264  50.2939653  66.1657156  15.6731140  49.4337017  65.8783071
  16.0924868  50.8857274  65.9656150   1.6596620  60.6970340  64.5538754
   1.4621020  60.1039701  63.8289820   1.1043284  60.3922550  65.2714693
   9.6393343  60.5893446  66.6733347   9.6941953  59.6367283  66.5975824
   8.8284545  60.7452886  67.1574645  10.7884537  64.5173570  57.9111630
  10.3503967  63.8009428  57.4517268  11.5294978  64.7449684  57.3496722
   7.5785703  59.2070506  64.4323726   6.7653569  59.5064677  64.8388918
   8.0744698  58.8126195  65.1498208   9.7294281  69.2028263  66.3657991
   9.6870460  69.4289109  65.4366523  10.6456980  68.9691638  66.5143792
  13.1759915  59.6712331  73.2638620  13.5309303  59.8983804  74.1233086
  13.8232046  60.0030707  72.6415875  18.9057652  62.7930767  63.9687949
  18.7675551  62.9832363  63.0409138  18.5493871  63.5550149  64.4256000
   7.0699778  56.7788862  70.0484961   7.7099157  56.6377621  69.3507924
   6.2377309  56.4923375  69.6723563  18.9327032  64.8607294  68.9799220
  19.3663538  64.7682583  69.8282274  19.6458612  64.8364794  68.3419236
   7.8460082  66.0791292  66.1619953   8.6400680  65.5841612  65.9602528
   7.1351774  65.5509155  65.7987659  12.6654926  68.4609388  70.5132321
  12.7191949  69.0300324  71.2810037  11.7969708  68.6311273  70.1486358
   4.1542845  60.2234374  62.2379706   3.2240434  60.1618829  62.4549668
   4.2500317  59.7010327  61.4416347   4.0728395  56.7489187  64.8257948
   4.3335212  57.6634520  64.7167108   4.8945567  56.2813629  64.9754560
   5.5453320  58.1626944  71.9956772   6.2176373  57.9544306  71.3469421
   4.7183106  57.9649030  71.5562004  19.7942581  64.9030994  71.5132106
  19.9878471  65.8076805  71.7591381  19.6943199  64.4438413  72.3470691
  11.4478892  54.7888885  74.0122433  10.8006807  55.4878834  73.9186909
  12.2179907  55.2225029  74.3798681  14.8557690  65.0537737  77.0872986
  14.7043196  64.8248289  76.1703070  14.8462369  66.0108338  77.1004331
  11.6243026  62.6269650  72.0719253  12.5535086  62.7780809  71.8988220
  11.2034056  62.7153671  71.2167899  10.4231358  66.6520314  69.8417790
  10.2842444  66.2839099  70.7143729   9.6345954  67.1667954  69.6701748
  11.0179510  71.7529411  61.1843327  11.1931266  71.2817454  61.9988950
  10.3312298  72.3795177  61.4124588  11.9736573  66.0301917  67.2306628
  11.6386406  65.9902687  68.1264278  11.4740519  65.3646633  66.7577038
   5.9480817  61.4369547  72.7559209   5.8100615  60.7049786  73.3570748
   6.8585741  61.3478447  72.4743397  14.9095765  63.3757951  57.5043688
  14.2924935  62.6504779  57.4076741  14.4412253  64.1367311  57.1610762
   8.5763118  61.1489506  72.2442889   9.2862736  60.5082698  72.2029507
   8.5332426  61.4002401  73.1669070  16.5649896  68.0856860  75.1649468
  16.5062443  67.4016080  74.4980051  16.9669415  68.8275850  74.7130094
   7.2892052  58.1354724  74.0638528   6.7529409  57.6845463  74.7160125
   6.7008760  58.2700633  73.3208993   5.5840595  74.9018773  67.9583187
   5.8237193  75.5337298  68.6362206   4.7409792  74.5506813  68.2448546
   6.6994311  57.5943376  56.6264992   5.8223777  57.4732176  56.2627239
   7.1752064  56.8029454  56.3743881  16.5667304  66.0496443  73.3963448
  15.6794082  65.7122365  73.5189847  17.1365855  65.3179475  73.6332213
   3.0231173  57.2710732  71.1491523   2.9389362  56.6636401  70.4141933
   2.2013879  57.7619750  71.1501019  10.0968457  70.7097896  70.3624691
  10.0238629  71.5152867  70.8743996   9.6545850  70.9089862  69.5372712
   9.8858237  69.9469666  63.8727513   9.1025759  70.4891346  63.9665737
  10.5850982  70.4643646  64.2721754  13.1954887  55.7564295  66.5161718
  13.6923586  55.0034258  66.1962788  12.4241868  55.7928612  65.9504927
  21.0484644  61.4604661  68.1580010  21.0374520  62.3429376  67.7873943
  20.1802024  61.1076212  67.9634547  12.5567141  70.6084730  72.5182850
  13.2695113  71.2432195  72.4458751  12.0657169  70.7048596  71.7022852
  14.2784668  64.5135983  64.0900141  13.3440946  64.6337445  63.9204846
  14.4561336  63.6108449  63.8260151   9.7789856  57.8981678  66.2433403
   9.4087643  57.3452719  66.9314308  10.2748948  57.2939812  65.6908403
  17.6657219  60.3553302  64.6250176  18.1317671  61.1881293  64.5510478
  18.1164719  59.8898283  65.3295434   7.6079054  68.3579173  73.3388421
   8.3088514  68.9915656  73.4917815   7.1374169  68.6993905  72.5784060
  15.7333450  66.6997123  61.6236328  16.0093294  66.5853718  62.5330202
  14.8637949  66.3014608  61.5848501  15.6373882  52.7233889  68.6641077
  14.7236961  52.9538116  68.8323284  16.0666983  52.8072333  69.5155109
  15.4080340  60.9123781  71.1640971  14.7551790  61.1599688  70.5093424
  15.7860720  60.0987919  70.8303448  12.3687514  70.9483474  65.2669141
  12.5509909  70.1305130  65.7296894  13.1920500  71.1651166  64.8294031
  12.7029680  69.8751659  62.5284190  13.2317446  69.3644114  61.9154352
  12.9657899  69.5594189  63.3929723  11.4567913  61.6543592  77.6507008
  10.7808550  61.5537721  78.3209383  12.2795547  61.4982806  78.1143005
   3.2046772  67.8915528  70.2719523   3.7900209  67.1459216  70.4047427
   3.0071611  68.2019485  71.1556187   6.0585427  70.9266776  65.2881966
   5.3895803  71.4112903  64.8046006   5.9198297  71.1735996  66.2025344
  10.1990696  72.9610519  71.8864624  10.7509004  73.1242141  72.6513709
  10.5396889  73.5514957  71.2144649   5.1755189  55.3085669  72.4886509
   5.2396516  56.1700500  72.0763906   5.1122310  54.6959671  71.7558867
   4.6507462  57.3808802  76.1359543   5.2779501  56.9985879  76.7497067
   3.7935381  57.1623004  76.5015235  15.0501570  67.7871777  77.7413278
  15.5941474  68.4001735  77.2468233  14.4688415  68.3451355  78.2580291
   1.4273005  59.1885231  62.0677898   1.7226446  58.2795909  62.0144951
   0.5261040  59.1672970  61.7458900  13.3359083  70.9092495  68.8728306
  13.2110223  70.1082235  68.3639252  13.9938174  71.4038688  68.3842276
   4.9567252  57.2641227  68.0505446   4.2353837  57.8777195  67.9112920
   5.7460507  57.7998992  67.9722092  15.3993992  68.7101515  70.5007856
  14.4524327  68.5906866  70.4286183  15.7476765  67.8224013  70.5834118
   7.7593565  54.5995654  74.3246098   8.2827967  54.8457950  75.0872407
   7.5405898  55.4315689  73.9049235   3.1560846  56.8699328  62.1917223
   2.8273552  55.9896707  62.0092329   3.5100217  56.8146997  63.0793612
  12.4040425  68.5054231  66.7012208  12.2565387  67.5770939  66.8819779
  13.2293918  68.5274322  66.2169284   6.2702669  57.1572298  62.5592701
   6.6098742  57.6858219  61.8371309   6.7174790  57.4952704  63.3351267
  16.0074547  69.3282790  67.7877081  16.9321094  69.1225651  67.6501532
  15.8389850  69.0799191  68.6966423   8.9646110  55.5409349  72.0095769
   8.6242930  54.7417162  72.4116449   8.2585116  55.8411060  71.4372602
   9.6162582  52.6258661  70.4623092  10.4388651  52.1519140  70.3401982
   9.8600645  53.4049145  70.9621778   8.2570816  55.6546920  60.7585993
   8.9779179  56.0328173  60.2549710   7.6336121  56.3735797  60.8620971
  12.4001939  56.3592069  61.6944326  12.6165554  57.2416707  61.3933154
  11.9196006  55.9678282  60.9649968   7.1401161  59.3177782  68.2715070
   6.9945741  59.6318085  69.1639352   6.6626364  59.9362682  67.7185969
   8.9997544  56.3080330  68.3195960   8.9859112  55.4121423  67.9828258
   9.7169972  56.3150994  68.9534246  10.8523674  56.7417670  70.3649087
  10.5941452  57.6634741  70.3633418  10.3208715  56.3448105  71.0549551
  15.7969863  69.8468457  63.1439173  15.9706741  69.2814880  62.3913025
  16.2898754  70.6469352  62.9618663   1.6146823  61.8583126  71.2102731
   1.0700291  62.6342934  71.3423006   2.4926173  62.2053931  71.0521853
   8.4034440  55.1894710  63.5883530   8.5250351  54.2611356  63.7874417
   8.1136482  55.2033396  62.6761845  11.2725630  52.8749621  66.7250250
  11.2947327  52.9388954  65.7702229  11.6893689  52.0354129  66.9190756
  21.6509254  62.6104880  64.7629472  22.0940400  61.8612205  64.3648596
  20.7735765  62.6015017  64.3803204  16.7845036  69.1635222  60.2436071
  17.4795940  69.7841914  60.4623386  17.1268186  68.3130573  60.5188449
   2.4012845  60.9853023  74.1032888   1.6594581  61.1335658  74.6897519
   2.0805589  61.2461288  73.2399638  18.6836459  66.6134927  61.7723402
  19.2087783  66.9522200  61.0472722  18.5958811  65.6781943  61.5886536
  10.3456507  70.5269001  73.9013278  10.6543634  70.2818148  74.7735978
  11.1431989  70.7315639  73.4132149  10.3677119  72.6806911  66.1318655
   9.9282110  72.1883289  66.8251512  11.1185236  72.1379878  65.8910730
   2.8469458  68.8718451  66.1343283   3.6727478  68.5722223  65.7541927
   2.4963510  68.1026074  66.5833072   7.8150992  68.2244920  68.2040957
   7.1931001  67.5615625  67.9043184   8.4855858  68.2506051  67.5214604
   7.8875519  56.7026708  77.7973463   7.9363675  57.5788830  77.4151232
   8.4298033  56.1604101  77.2245106  18.3730365  67.2467831  77.0774600
  17.5825908  67.2291970  76.5379099  18.1363719  67.7856125  77.8323636
  18.4928240  64.0960297  74.3907328  18.5426245  63.9310305  75.3322851
  18.3842163  63.2287556  74.0005209   7.3764498  66.7748843  61.6799417
   7.5252619  67.4584307  61.0266090   8.1830942  66.7553933  62.1948873
  15.7832002  60.0791225  75.7066635  16.6841865  59.9397690  75.4150633
  15.8579977  60.2445680  76.6464812  10.1174807  57.4558080  74.5519821
   9.2478117  57.7491646  74.2802410  10.3534288  58.0398525  75.2727085
  19.9946437  66.5157239  74.6349350  19.7031245  66.8787219  75.4712811
  19.3818568  65.8024247  74.4562682  21.1942119  64.0810119  67.1551920
  22.0289010  64.5199923  67.3189480  21.3301248  63.6048772  66.3360166
  18.2433625  61.6389853  73.1029408  18.7187746  61.8317500  72.2948259
  17.3199190  61.6949039  72.8572791   5.1317131  62.8014021  62.6860486
   4.8863173  61.8976351  62.8840696   5.3013046  62.8031171  61.7439964
  12.8213841  53.6737697  72.0685242  13.3395785  54.4098724  71.7431730
  12.4668974  53.9801690  72.9032001   4.4012779  58.5342378  60.1846647
   3.7082024  58.6086733  59.5286683   4.1564531  57.7702722  60.7068164
  13.0726435  50.0937979  67.5886138  13.3528189  49.4261169  68.2146565
  13.8577042  50.2867075  67.0760802  10.8759904  69.2696973  59.1511165
  10.3033871  69.8887161  58.6981636  11.4492698  69.8196335  59.6851086
  16.9435294  58.5155613  71.3357713  17.8952717  58.6153711  71.3569937
  16.7738744  57.7233882  71.8455798  14.9649673  55.6011197  71.5217114
  14.3699605  55.8816209  70.8263603  14.6799370  56.0905098  72.2933855
  14.0957164  69.5534124  60.2819747  15.0287837  69.4879685  60.4852622
  14.0080377  70.3890390  59.8234279  16.7245180  68.8699994  57.2423694
  16.6458812  68.5359857  58.1359452  17.5454847  69.3621762  57.2415167
  19.4223372  61.7361733  70.4500013  19.3899692  60.7977734  70.6359697
  20.0323995  61.8145770  69.7165838  11.2606702  60.6057786  56.4927217
  12.2065807  60.4763994  56.5615635  10.8820947  59.8672448  56.9696645
  19.5717860  58.5272777  70.4958296  19.0556909  57.7431233  70.3088225
  20.4557809  58.1991493  70.6604816  17.2328587  52.2713792  66.4554109
  17.0353408  51.9628880  67.3397441  17.8428293  52.9975431  66.5852039
  25.2399921  62.7977740  69.5906050  25.9703310  62.5363028  70.1513753
  24.6306867  62.0606462  69.6308118  23.3215219  60.9385603  70.1880501
  22.5948382  60.8041568  69.5796993  22.9062505  61.2462431  70.9937219
  11.1445395  64.6575532  77.9527874  12.0648404  64.8354131  78.1467921
  11.1094978  63.7131578  77.8007573   9.4449620  58.5307763  56.4282102
   8.5381075  58.2340875  56.5044816   9.7225601  58.2337581  55.5616388
   4.1407468  62.5676567  70.5950655   4.3593477  63.4993675  70.6138689
   4.5533241  62.2084541  71.3805459  11.0611685  53.0744652  62.5826344
  10.2512414  52.7291737  62.9581590  11.7496102  52.7652196  63.1713955
  12.9902234  52.1522699  64.2050640  13.5433272  52.5718152  64.8640663
  13.2272320  51.2258447  64.2473596   9.0135333  58.1409773  79.9853404
   8.9132060  59.0904130  79.9165495   8.7956875  57.8128012  79.1129474
   8.2148404  55.3894698  56.5694081   9.0767568  55.7149596  56.8289899
   8.3998748  54.6026194  56.0567147  14.8184607  53.6628282  65.9150625
  15.3184385  53.7744816  65.1064944  15.4620215  53.3589335  66.5551433
   8.8766603  61.5706912  78.8018466   8.3933685  62.3707272  79.0082355
   8.9627542  61.5814856  77.8485910   2.1452563  63.4035291  66.7240285
   2.1223251  63.5022978  65.7722168   2.4553199  64.2500442  67.0457451
   4.8039940  65.4611446  70.8386900   5.7583194  65.4295389  70.7716831
   4.6052464  65.0002070  71.6537125   5.3939323  64.0312562  73.4057697
   6.2132212  64.5256641  73.4292534   5.6676130  63.1144530  73.3775265
  15.1505919  56.4223315  62.7685653  14.2631774  56.7072965  62.5505847
  15.5659908  56.2617078  61.9212930  18.5020455  56.4469836  66.4839992
  19.2780845  56.9366288  66.7564609  17.7768589  56.8727890  66.9411861
  20.9393014  57.1597455  67.5413933  21.5337504  56.9193191  66.8307241
  21.0119597  56.4404585  68.1687469   3.1590169  71.0031066  67.8557097
   3.0244637  70.2431467  67.2895095   2.7422231  71.7271966  67.3885886
  14.2949132  66.1867989  56.8633673  14.9984982  66.3917992  57.4791328
  13.5711781  66.7544751  57.1282756  15.1246943  61.9377851  62.9835943
  15.0682144  62.3946402  62.1443575  15.6775285  61.1768535  62.8058786
  18.9351748  57.7267582  63.8086062  18.6788683  57.3264218  64.6394270
  18.3104616  58.4411376  63.6836202  23.2464086  60.4663656  66.3157354
  22.6863644  60.5356845  67.0888916  22.6407590  60.2904640  65.5956850
   6.3159295  71.9000383  68.0675540   6.1991679  72.8445815  67.9654230
   5.4951741  71.5973944  68.4561339  16.2035830  66.6250518  58.9132133
  17.0381434  66.1931717  58.7309608  16.0420173  66.4532532  59.8409027
  15.8581722  63.1282632  60.2788472  15.8030526  62.9626903  59.3376916
  15.2327777  63.8358665  60.4350662  13.1727629  65.4331544  79.6042035
  14.0418789  65.6072196  79.2428670  12.6934380  66.2525960  79.4817764
   9.1677847  52.6290741  59.8573790   9.1556517  53.5732581  60.0142061
  10.0601269  52.4460886  59.5633252   7.3413809  72.5528645  71.2831468
   8.2441056  72.5852255  71.5997963   7.1151179  71.6229096  71.2977804
   9.0967411  71.3059631  67.9441547   8.1463042  71.3061493  67.8305919
   9.3999897  70.5592366  67.4277582  12.9829967  49.2233517  64.1119727
  12.2162363  48.6692004  64.2576410  13.3940672  49.2955386  64.9733879
   4.9871728  55.5118313  78.2024908   5.8503189  55.1555118  78.4128233
   4.4137138  55.1732208  78.8900313  24.8320105  77.1420170  69.0087310
  25.4698515  77.0226917  68.3050650  24.7140948  78.0901014  69.0675262
  21.6409811  77.0947598  68.9448834  21.3028323  76.9788662  68.0569369
  22.5099579  76.6938763  68.9249840  17.4996627  78.9483074  64.9345725
  16.9361492  78.8573011  64.1662013  17.3849022  78.1282979  65.4148218
  22.1229594  78.2482449  74.9035040  22.1118235  77.8535248  74.0315543
  22.2850233  77.5148522  75.4968811  15.0461059  80.4434266  67.7729946
  15.8382351  80.1025090  67.3576245  15.2857709  80.5529241  68.6932099
  23.0796185  82.6154042  60.2460190  22.4284165  83.2008122  59.8594204
  23.8740548  83.1460237  60.3055228  17.0051813  79.7043179  60.6447324
  17.7782689  79.1572166  60.5060200  17.3577211  80.5687428  60.8561786
  18.8436855  81.0319561  73.8514224  18.5526721  81.9365192  73.7360890
  19.4793839  81.0736089  74.5658293  19.7693062  78.4096410  70.4415583
  20.3656634  78.1852432  69.7272546  19.8268034  77.6681155  71.0441031
  19.3418090  75.8635845  58.2765774  19.5943611  75.3417366  57.5149237
  18.4042649  75.7001991  58.3792458  24.3861373  74.8671623  66.0840518
  25.1724462  74.4491047  65.7330935  24.6500078  75.7717716  66.2522166
  24.5571451  80.3044474  60.7829174  23.9217284  80.3779100  61.4950079
  24.2268857  80.8938073  60.1048254  19.0614379  77.7663951  60.4790149
  18.9450637  77.0908854  61.1471234  19.1716639  77.2796325  59.6622302
  21.4045920  77.2274098  64.1836839  21.0404127  76.7004719  64.8949760
  22.2613036  76.8372567  64.0103324  27.3095221  68.5168431  71.4468105
  26.9778545  69.3863842  71.2229320  26.7140834  68.2004715  72.1262135
  21.0451407  72.2563998  59.1798187  21.2125809  73.1244234  59.5468658
  20.8548576  72.4191280  58.2559476  23.8026740  80.7180977  70.8464017
  23.5027463  81.6206016  70.7379825  23.4577800  80.4513160  71.6985170
  17.2539222  77.1694774  66.8800722  16.3289718  77.0370988  67.0878414
  17.5023635  77.9488993  67.3770664  27.2023884  73.2363517  68.5261455
  26.2940761  73.1678925  68.2320216  27.1511480  73.7135462  69.3543280
  21.0240628  74.7121655  60.1644854  20.9040253  75.1578706  61.0030334
  20.3293216  75.0606973  59.6058392  14.6148033  76.8128047  67.7144511
  14.7440414  77.0662526  68.6283923  13.9345484  77.4055755  67.3949166
  18.7847520  87.4825297  63.8134985  18.7071550  88.4333122  63.8923466
  18.1809164  87.1371170  64.4709911  21.2764750  74.6553163  76.4696352
  20.4998084  75.2147083  76.4599217  21.9155313  75.1409945  76.9911222
  29.0685530  71.4379955  70.3039329  28.4259911  71.7312488  69.6579123
  28.5640459  71.3232876  71.1092525  26.7225694  75.1843129  60.9925188
  27.6343550  75.4170515  60.8172885  26.2135341  75.7680173  60.4300267
  19.5311122  77.4638616  76.0314319  20.2725806  78.0023660  75.7549143
  18.8248108  78.0904905  76.1885871  25.0066462  79.6067756  74.6286480
  25.4149818  79.1650167  73.8841113  24.2843723  79.0320384  74.8820673
  21.3597532  74.5440363  72.0020037  22.2058727  74.9679777  72.1454686
  21.2996169  73.8873987  72.6958601  25.3295276  80.1668947  68.3838769
  24.7004139  80.3314661  67.6814837  24.9420938  80.5810557  69.1549733
  29.2084508  81.1023385  65.7383133  28.5235546  81.4822286  65.1880166
  29.2928358  81.7118711  66.4715081  24.5096977  72.2044731  73.6601211
  24.2657909  72.9586792  73.1235487  24.7856908  72.5830079  74.4948458
  26.4635440  78.7483344  72.3378477  26.6752335  79.3915104  71.6612858
  26.4165188  77.9145660  71.8700407  24.0661669  71.3601164  69.2415049
  23.2046148  71.6582418  69.5331786  24.0924103  71.5771563  68.3096081
  20.8823238  79.9043355  65.6488854  21.3461584  80.1831058  64.8593477
  20.6180036  79.0026800  65.4661945  17.7747319  79.4514837  68.5868618
  18.3448676  79.8802105  67.9486102  18.3655431  79.1697421  69.2852803
  19.8192124  76.0266507  62.4578420  20.5216168  76.4787551  62.9252346
  19.4872753  75.3850326  63.0858313  18.2672486  74.6178264  76.8329629
  17.6371146  75.2994545  77.0665026  18.1608574  74.5061346  75.8882767
  13.5617458  74.2850060  67.7595553  12.7716512  74.5407589  67.2835664
  14.0528706  75.0998398  67.8647594  27.5781268  81.6255299  70.5100834
  28.3998712  81.2235487  70.2283516  27.5743671  81.5223533  71.4616950
  15.5132204  74.6494639  64.7179030  14.7163367  74.7613334  65.2362526
  15.2857796  74.9881292  63.8519920  21.3437871  81.1739343  72.6661544
  21.4082304  81.6359750  73.5019716  20.6348795  80.5436707  72.7943854
  11.8455161  74.5380551  70.1910544  12.0963200  75.4227560  70.4568120
  12.3814710  74.3585152  69.4185636  21.0585889  82.8407450  62.5340525
  20.9231564  83.6858986  62.9625373  21.5995701  83.0426728  61.7706459
  17.5453229  68.9199030  79.1954880  17.1520174  68.3665228  79.8702524
  18.3619369  69.2309608  79.5861398  14.5115286  80.3582888  63.1068450
  15.0239807  81.1526138  63.2574015  15.1637999  79.6609179  63.0402051
  16.3210171  83.4748644  65.1891203  16.4976799  84.3966609  65.0012187
  17.1167005  83.1607064  65.6185583  20.4621190  70.3356909  76.7875137
  21.2030903  70.9364062  76.7079599  20.6939112  69.5934547  76.2293179
  15.6062528  75.5213276  75.0653366  15.4916043  74.6198533  75.3660465
  14.7507045  75.7676973  74.7138183  22.6854365  83.4631017  76.6640867
  22.2418220  82.6767395  76.3461771  23.3471579  83.6510167  75.9984758
  17.4441486  84.9926818  71.1901545  17.9948912  84.8643881  70.4178539
  16.6052962  85.2921707  70.8396438  24.7835603  83.7433816  74.6922268
  24.7654079  84.5642698  74.2002537  25.7055523  83.6187892  74.9172409
  21.2408658  81.2577946  75.5345777  21.7736994  80.4966234  75.3045085
  20.7122739  80.9651598  76.2769931  24.4078353  66.3638012  71.0639418
  24.0642622  67.2539654  70.9878529  24.7757315  66.1739670  70.2009003
  12.4764203  78.6871542  63.8828020  13.3139425  79.0968551  63.6661728
  12.6542471  77.7470985  63.8528214  24.3728635  76.3546623  59.5711853
  23.8575259  77.1251228  59.8100241  24.1005944  75.6811759  60.1944915
  21.9575746  71.1996324  64.6297092  21.1017343  70.8103174  64.4502730
  22.3702698  71.2788285  63.7696877  23.4874893  68.7342667  69.0288652
  22.9839688  68.6972802  68.2156457  23.7805500  69.6435410  69.0885308
  19.7317779  68.8181397  68.0354833  20.5970776  68.6224205  67.6760723
  19.7995288  68.5891749  68.9624190  29.3462909  79.1078978  61.5065027
  28.5692352  78.7690137  61.0620189  30.0254390  79.1131601  60.8319992
  24.1614938  74.2273715  61.3971635  23.8565074  74.5419864  62.2481778
  25.1145381  74.3055135  61.4398968  22.6061370  80.3863938  63.0464589
  22.0782732  79.6516698  62.7337826  22.1048873  81.1638615  62.8004557
  27.5854216  78.5812959  68.1631635  26.9277891  79.2712220  68.2511763
  28.3894615  78.9709391  68.5065621  17.3380098  71.0483605  65.4071200
  17.9123850  70.8258786  64.6744393  17.9251080  71.1172299  66.1599801
  26.3959675  76.9357332  66.2135577  26.9091557  77.5687323  66.7157286
  27.0460899  76.3358527  65.8478937  17.6649685  73.0788066  59.4267085
  16.8286997  73.4162752  59.7476360  17.5254455  72.9437046  58.4894222
  19.6402766  67.9224854  64.1346269  18.9867178  67.6073871  63.5102884
  19.5983240  67.3000594  64.8606092  20.7513970  78.2044149  56.0499562
  19.8441032  77.9733402  56.2490711  21.2485002  77.4081768  56.2373543
  23.6582049  86.9141656  58.9696248  22.9843748  87.2173353  59.5781206
  24.0447871  87.7170736  58.6201705  22.8740506  74.4106787  68.4593917
  21.9563067  74.6321734  68.3015605  23.2900650  74.4853098  67.6005624
  23.6575554  75.8098203  63.5896597  24.4047373  76.3219600  63.2803719
  23.9267143  75.4882256  64.4500991  21.9302204  78.3056744  60.5723552
  21.0213423  78.0215776  60.6696021  21.9597288  78.7255822  59.7126859
  27.1621471  81.9163333  64.3414719  26.7083798  81.0754243  64.3979910
  26.5315438  82.5524731  64.6789499  26.1054391  72.8455319  65.5715387
  25.3677148  72.3332705  65.9025629  26.3581164  72.4055701  64.7598664
  25.6054411  83.7539830  65.2764537  25.8977385  84.3144887  64.5576903
  26.1153031  84.0468391  66.0317696  26.2066018  65.6231571  66.1657156
  26.5124895  64.7628935  65.8783071  26.9318623  66.2149191  65.9656150
  12.4990374  76.0262258  64.5538754  12.3014774  75.4331618  63.8289820
  11.9437038  75.7214468  65.2714693  20.4787098  75.9185364  66.6733347
  20.5335708  74.9659201  66.5975824  19.6678300  76.0744803  67.1574645
  21.6278292  79.8465487  57.9111630  21.1897722  79.1301346  57.4517268
  22.3688733  80.0741602  57.3496722  18.4179458  74.5362424  64.4323726
  17.6047323  74.8356594  64.8388918  18.9138452  74.1418113  65.1498208
  20.5688036  84.5320181  66.3657991  20.5264215  84.7581027  65.4366523
  21.4850735  84.2983555  66.5143792  24.0153670  75.0004248  73.2638620
  24.3703057  75.2275722  74.1233086  24.6625801  75.3322625  72.6415875
  29.7451406  78.1222684  63.9687949  29.6069305  78.3124280  63.0409138
  29.3887625  78.8842067  64.4256000  17.9093533  72.1080779  70.0484961
  18.5492912  71.9669539  69.3507924  17.0771063  71.8215293  69.6723563
  29.7720786  80.1899211  68.9799220  30.2057293  80.0974500  69.8282274
  30.4852367  80.1656712  68.3419236  18.6853836  81.4083210  66.1619953
  19.4794435  80.9133530  65.9602528  17.9745529  80.8801073  65.7987659
  23.5048681  83.7901305  70.5132321  23.5585703  84.3592242  71.2810037
  22.6363462  83.9603190  70.1486358  14.9936600  75.5526292  62.2379706
  14.0634188  75.4910747  62.4549668  15.0894072  75.0302244  61.4416347
  14.9122149  72.0781104  64.8257948  15.1728966  72.9926438  64.7167108
  15.7339321  71.6105547  64.9754560  16.3847074  73.4918862  71.9956772
  17.0570128  73.2836224  71.3469421  15.5576861  73.2940948  71.5562004
  30.6336336  80.2322912  71.5132106  30.8272226  81.1368722  71.7591381
  30.5336954  79.7730331  72.3470691  22.2872646  70.1180803  74.0122433
  21.6400561  70.8170752  73.9186909  23.0573662  70.5516946  74.3798681
  25.6951444  80.3829655  77.0872986  25.5436951  80.1540206  76.1703070
  25.6856124  81.3400256  77.1004331  22.4636781  77.9561567  72.0719253
  23.3928841  78.1072727  71.8988220  22.0427811  78.0445588  71.2167899
  21.2625112  81.9812232  69.8417790  21.1236198  81.6131016  70.7143729
  20.4739709  82.4959871  69.6701748  21.8573264  87.0821328  61.1843327
  22.0325020  86.6109371  61.9988950  21.1706052  87.7087095  61.4124588
  22.8130328  81.3593835  67.2306628  22.4780160  81.3194605  68.1264278
  22.3134273  80.6938550  66.7577038  16.7874572  76.7661465  72.7559209
  16.6494370  76.0341703  73.3570748  17.6979495  76.6770365  72.4743397
  25.7489519  78.7049869  57.5043688  25.1318690  77.9796697  57.4076741
  25.2806008  79.4659229  57.1610762  19.4156872  76.4781424  72.2442889
  20.1256491  75.8374616  72.2029507  19.3726180  76.7294319  73.1669070
  27.4043651  83.4148777  75.1649468  27.3456197  82.7307997  74.4980051
  27.8063169  84.1567767  74.7130094  18.1285806  73.4646642  74.0638528
  17.5923163  73.0137380  74.7160125  17.5402515  73.5992551  73.3208993
  16.4234350  90.2310691  67.9583187  16.6630948  90.8629215  68.6362206
  15.5803546  89.8798731  68.2448546  17.5388065  72.9235293  56.6264992
  16.6617532  72.8024094  56.2627239  18.0145818  72.1321371  56.3743881
  27.4061058  81.3788361  73.3963448  26.5187837  81.0414283  73.5189847
  27.9759609  80.6471392  73.6332213   9.0590205  77.7112453  66.7206499
   9.7461245  77.3974183  66.1327515   8.9038334  78.6153818  66.4473751
  13.8624927  72.6002649  71.1491523  13.7783116  71.9928319  70.4141933
  13.0407634  73.0911668  71.1501019  20.9362212  86.0389814  70.3624691
  20.8632383  86.8444785  70.8743996  20.4939605  86.2381779  69.5372712
  20.7251991  85.2761584  63.8727513  19.9419513  85.8183264  63.9665737
  21.4244736  85.7935563  64.2721754  24.0348641  71.0856213  66.5161718
  24.5317341  70.3326175  66.1962788  23.2635623  71.1220530  65.9504927
  31.8878399  76.7896579  68.1580010  31.8768275  77.6721294  67.7873943
  31.0195778  76.4368129  67.9634547  23.3960895  85.9376648  72.5182850
  24.1088867  86.5724112  72.4458751  22.9050924  86.0340514  71.7022852
  25.1178422  79.8427900  64.0900141  24.1834701  79.9629363  63.9204846
  25.2955090  78.9400367  63.8260151  20.6183610  73.2273596  66.2433403
  20.2481398  72.6744636  66.9314308  21.1142703  72.6231729  65.6908403
  28.5050973  75.6845220  64.6250176  28.9711426  76.5173211  64.5510478
  28.9558474  75.2190201  65.3295434  18.4472809  83.6871091  73.3388421
  19.1482268  84.3207574  73.4917815  17.9767924  84.0285823  72.5784060
  26.5727204  82.0289041  61.6236328  26.8487048  81.9145635  62.5330202
  25.7031703  81.6306526  61.5848501  26.4767636  68.0525806  68.6641077
  25.5630716  68.2830033  68.8323284  26.9060738  68.1364251  69.5155109
  26.2474095  76.2415698  71.1640971  25.5945545  76.4891606  70.5093424
  26.6254475  75.4279837  70.8303448  23.2081269  86.2775392  65.2669141
  23.3903663  85.4597048  65.7296894  24.0314255  86.4943084  64.8294031
  23.5423434  85.2043577  62.5284190  24.0711200  84.6936031  61.9154352
  23.8051654  84.8886107  63.3929723  22.2961668  76.9835510  77.6507008
  21.6202305  76.8829639  78.3209383  23.1189302  76.8274723  78.1143005
  14.0440527  83.2207446  70.2719523  14.6293964  82.4751134  70.4047427
  13.8465365  83.5311403  71.1556187  16.8979182  86.2558693  65.2881966
  16.2289557  86.7404821  64.8046006  16.7592052  86.5027914  66.2025344
   8.6358181  75.7913046  68.9923966   8.6742281  75.2576637  69.7861084
   8.1298474  75.2648252  68.3734944  21.0384451  88.2902437  71.8864624
  21.5902759  88.4534058  72.6513709  21.3790644  88.8806875  71.2144649
  16.0148944  70.6377587  72.4886509  16.0790270  71.4992418  72.0763906
  15.9516064  70.0251588  71.7558867  15.4901216  72.7100719  76.1359543
  16.1173255  72.3277797  76.7497067  14.6329135  72.4914921  76.5015235
  25.8895325  83.1163694  77.7413278  26.4335229  83.7293653  77.2468233
  25.3082170  83.6743273  78.2580291  12.2666759  74.5177148  62.0677898
  12.5620200  73.6087827  62.0144951  11.3654795  74.4964888  61.7458900
  24.1752838  86.2384412  68.8728306  24.0503977  85.4374152  68.3639252
  24.8331929  86.7330606  68.3842276  15.7961006  72.5933145  68.0505446
  15.0747592  73.2069113  67.9112920  16.5854262  73.1290910  67.9722092
  26.2387746  84.0393433  70.5007856  25.2918082  83.9198784  70.4286183
  26.5870519  83.1515931  70.5834118  18.5987320  69.9287571  74.3246098
  19.1221721  70.1749868  75.0872407  18.3799653  70.7607606  73.9049235
  13.9954601  72.1991246  62.1917223  13.6667307  71.3188625  62.0092329
  14.3493971  72.1438915  63.0793612  23.2434179  83.8346149  66.7012208
  23.0959142  82.9062856  66.8819779  24.0687673  83.8566240  66.2169284
  17.1096424  72.4864216  62.5592701  17.4492496  73.0150137  61.8371309
  17.5568544  72.8244622  63.3351267  26.8468301  84.6574708  67.7877081
  27.7714849  84.4517569  67.6501532  26.6783605  84.4091109  68.6966423
  19.8039865  70.8701267  72.0095769  19.4636685  70.0709080  72.4116449
  19.0978871  71.1702977  71.4372602  20.4556336  67.9550579  70.4623092
  21.2782406  67.4811057  70.3401982  20.6994400  68.7341063  70.9621778
  19.0964571  70.9838837  60.7585993  19.8172933  71.3620090  60.2549710
  18.4729875  71.7027714  60.8620971  23.2395694  71.6883986  61.6944326
  23.4559308  72.5708624  61.3933154  22.7589761  71.2970200  60.9649968
  17.9794915  74.6469700  68.2715070  17.8339496  74.9610003  69.1639352
  17.5020119  75.2654600  67.7185969  19.8391298  71.6372248  68.3195960
  19.8252867  70.7413341  67.9828258  20.5563726  71.6442911  68.9534246
  21.6917429  72.0709588  70.3649087  21.4335207  72.9926659  70.3633418
  21.1602469  71.6740022  71.0549551  26.6363618  85.1760375  63.1439173
  26.8100495  84.6106797  62.3913025  27.1292509  85.9761270  62.9618663
  12.4540577  77.1875044  71.2102731  11.9094045  77.9634852  71.3423006
  13.3319927  77.5345849  71.0521853  19.2428194  70.5186628  63.5883530
  19.3644105  69.5903274  63.7874417  18.9530236  70.5325314  62.6761845
  22.1119384  68.2041538  66.7250250  22.1341081  68.2680871  65.7702229
  22.5287443  67.3646047  66.9190756  32.4903009  77.9396798  64.7629472
  32.9334155  77.1904123  64.3648596  31.6129519  77.9306934  64.3803204
  27.6238790  84.4927139  60.2436071  28.3189695  85.1133832  60.4623386
  27.9661940  83.6422491  60.5188449  13.2406599  76.3144940  74.1032888
  12.4988335  76.4627576  74.6897519  12.9199343  76.5753206  73.2399638
  29.5230213  81.9426845  61.7723402  30.0481537  82.2814118  61.0472722
  29.4352566  81.0073860  61.5886536  21.1850262  85.8560919  73.9013278
  21.4937388  85.6110065  74.7735978  21.9825744  86.0607557  73.4132149
  21.2070874  88.0098828  66.1318655  20.7675864  87.5175207  66.8251512
  21.9578991  87.4671796  65.8910730  13.6863213  84.2010369  66.1343283
  14.5121233  83.9014141  65.7541927  13.3357265  83.4317991  66.5833072
  18.6544746  83.5536837  68.2040957  18.0324755  82.8907542  67.9043184
  19.3249613  83.5797969  67.5214604  11.8871818  82.1196696  67.0932217
  11.0503726  81.6918870  66.9116218  11.8595463  82.3129139  68.0303008
  18.7269274  72.0318625  77.7973463  18.7757429  72.9080748  77.4151232
  19.2691788  71.4896018  77.2245106  29.2124119  82.5759749  77.0774600
  28.4219663  82.5583887  76.5379099  28.9757474  83.1148042  77.8323636
  29.3321994  79.4252215  74.3907328  29.3819999  79.2602222  75.3322851
  29.2235918  78.5579474  74.0005209  18.2158253  82.1040761  61.6799417
  18.3646373  82.7876225  61.0266090  19.0224696  82.0845851  62.1948873
  26.6225757  75.4083143  75.7066635  27.5235619  75.2689608  75.4150633
  26.6973731  75.5737598  76.6464812  20.9568562  72.7849998  74.5519821
  20.0871871  73.0783564  74.2802410  21.1928042  73.3690443  75.2727085
  30.8340191  81.8449156  74.6349350  30.5424999  82.2079137  75.4712811
  30.2212322  81.1316165  74.4562682  32.0335873  79.4102036  67.1551920
  32.8682765  79.8491840  67.3189480  32.1695002  78.9340689  66.3360166
  29.0827379  76.9681771  73.1029408  29.5581501  77.1609417  72.2948259
  28.1592945  77.0240957  72.8572791  15.9710886  78.1305938  62.6860486
  15.7256928  77.2268268  62.8840696  16.1406800  78.1323089  61.7439964
  23.6607596  69.0029615  72.0685242  24.1789540  69.7390642  71.7431730
  23.3062729  69.3093608  72.9032001  15.2406533  73.8634296  60.1846647
  14.5475778  73.9378651  59.5286683  14.9958285  73.0994639  60.7068164
  23.9120190  65.4229897  67.5886138  24.1921944  64.7553086  68.2146565
  24.6970797  65.6158993  67.0760802  21.7153658  84.5988891  59.1511165
  21.1427626  85.2179078  58.6981636  22.2886452  85.1488253  59.6851086
  27.7829048  73.8447531  71.3357713  28.7346471  73.9445629  71.3569937
  27.6132499  73.0525800  71.8455798  25.8043428  70.9303114  71.5217114
  25.2093360  71.2108127  70.8263603  25.5193124  71.4197015  72.2933855
  24.9350918  84.8826041  60.2819747  25.8681591  84.8171603  60.4852622
  24.8474131  85.7182308  59.8234279  27.5638935  84.1991912  57.2423694
  27.4852566  83.8651775  58.1359452  28.3848602  84.6913679  57.2415167
  30.2617126  77.0653651  70.4500013  30.2293446  76.1269652  70.6359697
  30.8717750  77.1437688  69.7165838  22.1000457  75.9349704  56.4927217
  23.0459562  75.8055912  56.5615635  21.7214702  75.1964366  56.9696645
  30.4111615  73.8564694  70.4958296  29.8950663  73.0723151  70.3088225
  31.2951563  73.5283411  70.6604816  28.0722342  67.6005710  66.4554109
  27.8747163  67.2920798  67.3397441  28.6822047  68.3267349  66.5852039
  21.9839150  79.9867450  77.9527874  22.9042159  80.1646049  78.1467921
  21.9488733  79.0423495  77.8007573  20.2843374  73.8599680  56.4282102
  19.3774830  73.5632793  56.5044816  20.5619355  73.5629498  55.5616388
  11.2021315  75.1806044  66.8781149  10.8824099  74.3271352  66.5855523
  10.6554743  75.3954622  67.6339116  14.9801222  77.8968485  70.5950655
  15.1987232  78.8285592  70.6138689  15.3926996  77.5376459  71.3805459
  21.9005440  68.4036570  62.5826344  21.0906168  68.0583655  62.9581590
  22.5889857  68.0944114  63.1713955  23.8295988  67.4814617  64.2050640
  24.3827027  67.9010070  64.8640663  24.0666075  66.5550365  64.2473596
  19.8529087  73.4701690  79.9853404  19.7525814  74.4196047  79.9165495
  19.6350629  73.1419929  79.1129474  19.0542159  70.7186615  56.5694081
  19.9161323  71.0441514  56.8289899  19.2392503  69.9318111  56.0567147
  11.0709575  78.8008955  68.8474270  10.3773046  78.3862908  68.3344225
  11.8182566  78.8429492  68.2507689  27.2074795  69.5915142  63.7129304
  26.6273464  70.2499946  63.3307357  26.9410728  68.7692486  63.3016722
  25.6578362  68.9920200  65.9150625  26.1578140  69.1036734  65.1064944
  26.3013970  68.6881252  66.5551433  19.7160357  76.8998829  78.8018466
  19.2327439  77.6999189  79.0082355  19.8021296  76.9106774  77.8485910
  12.9846317  78.7327209  66.7240285  12.9617005  78.8314896  65.7722168
  13.2946954  79.5792360  67.0457451  15.6433695  80.7903364  70.8386900
  16.5976948  80.7587306  70.7716831  15.4446219  80.3293988  71.6537125
  16.2333077  79.3604480  73.4057697  17.0525966  79.8548559  73.4292534
  16.5069885  78.4436448  73.3775265  25.9899673  71.7515232  62.7685653
  25.1025528  72.0364883  62.5505847  26.4053662  71.5908996  61.9212930
  13.9983924  86.3322983  67.8557097  13.8638392  85.5723384  67.2895095
  13.5815986  87.0563883  67.3885886  25.1342887  81.5159907  56.8633673
  25.8378737  81.7209909  57.4791328  24.4105535  82.0836669  57.1282756
  25.9640697  77.2669768  62.9835943  25.9075898  77.7238320  62.1443575
  26.5169039  76.5060453  62.8058786  17.1553050  87.2292300  68.0675540
  17.0385434  88.1737733  67.9654230  16.3345496  86.9265862  68.4561339
  27.0429584  81.9542436  58.9132133  27.8775188  81.5223635  58.7309608
  26.8813927  81.7824450  59.8409027  26.6975476  78.4574549  60.2788472
  26.6424280  78.2918821  59.3376916  26.0721532  79.1650582  60.4350662
  11.4867991  73.6942614  74.1049894  12.1326855  73.1841568  74.5937119
  11.2785142  74.4311295  74.6793320  24.0121383  80.7623461  79.6042035
  24.8812543  80.9364114  79.2428670  23.5328135  81.5817878  79.4817764
  20.0071602  67.9582658  59.8573790  19.9950272  68.9024498  60.0142061
  20.8995024  67.7752804  59.5633252  18.1807564  87.8820562  71.2831468
  19.0834810  87.9144173  71.5997963  17.9544934  86.9521013  71.2977804
  19.9361166  86.6351549  67.9441547  18.9856797  86.6353410  67.8305919
  20.2393652  85.8884283  67.4277582  23.8223721  64.5525435  64.1119727
  23.0556117  63.9983922  64.2576410  24.2334426  64.6247304  64.9733879
  15.8265482  70.8410231  78.2024908  16.6896944  70.4847036  78.4128233
  15.2530893  70.5024126  78.8900313  35.6713859  92.4712087  69.0087310
  36.3092269  92.3518835  68.3050650  35.5534702  93.4192931  69.0675262
  32.4803565  92.4239515  68.9448834  32.1422077  92.3080580  68.0569369
  33.3493334  92.0230680  68.9249840  28.3390381  94.2774992  64.9345725
  27.7755246  94.1864929  64.1662013  28.2242776  93.4574896  65.4148218
  32.9623348  93.5774367  74.9035040  32.9511989  93.1827165  74.0315543
  33.1243988  92.8440440  75.4968811  25.8854813  95.7726183  67.7729946
  26.6776105  95.4317008  67.3576245  26.1251463  95.8821158  68.6932099
  33.9189940  97.9445959  60.2460190  33.2677920  98.5300040  59.8594204
  34.7134303  98.4752154  60.3055228  27.8445567  95.0335097  60.6447324
  28.6176443  94.4864084  60.5060200  28.1970966  95.8979346  60.8561786
  29.6830610  96.3611479  73.8514224  29.3920476  97.2657110  73.7360890
  30.3187594  96.4028007  74.5658293  30.6086816  93.7388327  70.4415583
  31.2050389  93.5144350  69.7272546  30.6661788  92.9973073  71.0441031
  30.1811845  91.1927763  58.2765774  30.4337366  90.6709284  57.5149237
  29.2436404  91.0293908  58.3792458  35.2255128  90.1963541  66.0840518
  36.0118217  89.7782964  65.7330935  35.4893832  91.1009633  66.2522166
  35.3965205  95.6336391  60.7829174  34.7611038  95.7071018  61.4950079
  35.0662611  96.2229990  60.1048254  40.6263555  90.1338774  66.9873496
  41.3588727  89.5637991  67.2211326  39.8702911  89.7460375  67.4280002
  29.9008134  93.0955869  60.4790149  29.7844392  92.4200772  61.1471234
  30.0110394  92.6088243  59.6622302  32.2439675  92.5566016  64.1836839
  31.8797882  92.0296637  64.8949760  33.1006790  92.1664485  64.0103324
  38.1488975  83.8460348  71.4468105  37.8172300  84.7155759  71.2229320
  37.5534589  83.5296632  72.1262135  31.8845162  87.5855915  59.1798187
  32.0519564  88.4536152  59.5468658  31.6942331  87.7483197  58.2559476
  34.6420495  96.0472894  70.8464017  34.3421218  96.9497933  70.7379825
  34.2971554  95.7805078  71.6985170  28.0932976  92.4986691  66.8800722
  27.1683473  92.3662905  67.0878414  28.3417389  93.2780910  67.3770664
  38.0417639  88.5655435  68.5261455  37.1334516  88.4970843  68.2320216
  37.9905234  89.0427380  69.3543280  31.8634382  90.0413573  60.1644854
  31.7434008  90.4870624  61.0030334  31.1686971  90.3898891  59.6058392
  25.4541787  92.1419965  67.7144511  25.5834168  92.3954444  68.6283923
  24.7739239  92.7347673  67.3949166  32.1158504  89.9845080  76.4696352
  31.3391838  90.5439000  76.4599217  32.7549067  90.4701863  76.9911222
  39.9079285  86.7671873  70.3039329  39.2653665  87.0604406  69.6579123
  39.4034213  86.6524793  71.1092525  37.5619449  90.5135046  60.9925188
  38.4737305  90.7462433  60.8172885  37.0529096  91.0972090  60.4300267
  30.3704877  92.7930534  76.0314319  31.1119561  93.3315578  75.7549143
  29.6641862  93.4196822  76.1885871  35.8460216  94.9359674  74.6286480
  36.2543572  94.4942085  73.8841113  35.1237478  94.3612302  74.8820673
  32.1991286  89.8732281  72.0020037  33.0452481  90.2971694  72.1454686
  32.1389924  89.2165905  72.6958601  36.1689031  95.4960865  68.3838769
  35.5397893  95.6606579  67.6814837  35.7814693  95.9102474  69.1549733
  40.0478263  96.4315302  65.7383133  39.3629301  96.8114204  65.1880166
  40.1322112  97.0410629  66.4715081  35.3490732  87.5336649  73.6601211
  35.1051663  88.2878710  73.1235487  35.6250662  87.9121997  74.4948458
  37.3029194  94.0775262  72.3378477  37.5146090  94.7207021  71.6612858
  37.2558943  93.2437578  71.8700407  34.9055423  86.6893082  69.2415049
  34.0439902  86.9874336  69.5331786  34.9317858  86.9063481  68.3096081
  31.7216993  95.2335273  65.6488854  32.1855338  95.5122976  64.8593477
  31.4573791  94.3318717  65.4661945  28.6141074  94.7806754  68.5868618
  29.1842431  95.2094023  67.9486102  29.2049186  94.4989339  69.2852803
  30.6585879  91.3558425  62.4578420  31.3609922  91.8079469  62.9252346
  30.3266507  90.7142244  63.0858313  29.1066240  89.9470182  76.8329629
  28.4764901  90.6286463  77.0665026  29.0002328  89.8353263  75.8882767
  24.4011213  89.6141978  67.7595553  23.6110267  89.8699506  67.2835664
  24.8922460  90.4290316  67.8647594  38.4175022  96.9547217  70.5100834
  39.2392466  96.5527404  70.2283516  38.4137425  96.8515451  71.4616950
  26.3525958  89.9786557  64.7179030  25.5557121  90.0905251  65.2362526
  26.1251550  90.3173209  63.8519920  32.1831626  96.5031260  72.6661544
  32.2476058  96.9651667  73.5019716  31.4742550  95.8728625  72.7943854
  22.6848916  89.8672468  70.1910544  22.9356954  90.7519478  70.4568120
  23.2208464  89.6877070  69.4185636  46.5081015  93.2985965  66.8585805
  45.7544724  92.7293363  66.7029810  46.6428557  93.2648630  67.8056440
  31.8979643  98.1699368  62.5340525  31.7625318  99.0150903  62.9625373
  32.4389456  98.3718645  61.7706459  28.3846983  84.2490948  79.1954880
  27.9913929  83.6957146  79.8702524  29.2013123  84.5601526  79.5861398
  25.3509041  95.6874806  63.1068450  25.8633561  96.4818056  63.2574015
  26.0031754  94.9901096  63.0402051  27.1603926  98.8040562  65.1891203
  27.3370554  99.7258527  65.0012187  27.9560759  98.4898981  65.6185583
  31.3014944  85.6648827  76.7875137  32.0424657  86.2655980  76.7079599
  31.5332867  84.9226464  76.2293179  26.4456282  90.8505194  75.0653366
  26.3309797  89.9490451  75.3660465  25.5900800  91.0968891  74.7138183
  33.5248120  98.7922934  76.6640867  33.0811974  98.0059313  76.3461771
  34.1865333  98.9802085  75.9984758  28.2835241 100.3218736  71.1901545
  28.8342666 100.1935799  70.4178539  27.4446717 100.6213625  70.8396438
  35.6229358  99.0725734  74.6922268  35.6047833  99.8934615  74.2002537
  36.5449278  98.9479809  74.9172409  32.0802412  96.5869864  75.5345777
  32.6130749  95.8258152  75.3045085  31.5516493  96.2943515  76.2769931
  35.2472107  81.6929930  71.0639418  34.9036376  82.5831571  70.9878529
  35.6151070  81.5031587  70.2009003  23.3157958  94.0163460  63.8828020
  24.1533180  94.4260468  63.6661728  23.4936225  93.0762902  63.8528214
  35.2122390  91.6838541  59.5711853  34.6969013  92.4543145  59.8100241
  34.9399698  91.0103677  60.1944915  32.7969501  86.5288241  64.6297092
  31.9411097  86.1395092  64.4502730  33.2096453  86.6080202  63.7696877
  34.3268647  84.0634585  69.0288652  33.8233443  84.0264720  68.2156457
  34.6199254  84.9727327  69.0885308  30.5711533  84.1473314  68.0354833
  31.4364530  83.9516123  67.6760723  30.6389042  83.9183666  68.9624190
  40.1856664  94.4370895  61.5065027  39.4086107  94.0982055  61.0620189
  40.8648145  94.4423519  60.8319992  35.0008693  89.5565633  61.3971635
  34.6958828  89.8711782  62.2481778  35.9539135  89.6347053  61.4398968
  33.4455125  95.7155856  63.0464589  32.9176486  94.9808616  62.7337826
  32.9442627  96.4930532  62.8004557  38.4247971  93.9104877  68.1631635
  37.7671645  94.6004138  68.2511763  39.2288370  94.3001309  68.5065621
  28.1773852  86.3775522  65.4071200  28.7517604  86.1550704  64.6744393
  28.7644835  86.4464217  66.1599801  37.2353430  92.2649249  66.2135577
  37.7485311  92.8979241  66.7157286  37.8854653  91.6650445  65.8478937
  28.5043439  88.4079983  59.4267085  27.6680752  88.7454670  59.7476360
  28.3648209  88.2728963  58.4894222  30.4796520  83.2516771  64.1346269
  29.8260932  82.9365788  63.5102884  30.4376994  82.6292512  64.8606092
  31.5907725  93.5336066  56.0499562  30.6834787  93.3025320  56.2490711
  32.0878757  92.7373686  56.2373543  34.4975804 102.2433574  58.9696248
  33.8237503 102.5465270  59.5781206  34.8841626 103.0462654  58.6201705
  33.7134260  89.7398705  68.4593917  32.7956822  89.9613652  68.3015605
  34.1294404  89.8145015  67.6005624  34.4969308  91.1390121  63.5896597
  35.2441127  91.6511518  63.2803719  34.7660898  90.8174173  64.4500991
  32.7695958  93.6348661  60.5723552  31.8607178  93.3507694  60.6696021
  32.7991042  94.0547740  59.7126859  38.0015226  97.2455251  64.3414719
  37.5477553  96.4046161  64.3979910  37.3709192  97.8816649  64.6789499
  36.9448145  88.1747237  65.5715387  36.2070902  87.6624623  65.9025629
  37.1974919  87.7347618  64.7598664  36.4448165  99.0831747  65.2764537
  36.7371139  99.6436805  64.5576903  36.9546786  99.3760308  66.0317696
  37.0459773  80.9523489  66.1657156  37.3518649  80.0920852  65.8783071
  37.7712377  81.5441109  65.9656150  23.3384129  91.3554175  64.5538754
  23.1408529  90.7623536  63.8289820  22.7830793  91.0506386  65.2714693
  31.3180852  91.2477282  66.6733347  31.3729462  90.2951118  66.5975824
  30.5072054  91.4036721  67.1574645  32.4672046  95.1757405  57.9111630
  32.0291476  94.4593264  57.4517268  33.2082487  95.4033520  57.3496722
  29.2573212  89.8654342  64.4323726  28.4441078  90.1648512  64.8388918
  29.7532207  89.4710030  65.1498208  31.4081790  99.8612099  66.3657991
  31.3657969 100.0872945  65.4366523  32.3244489  99.6275473  66.5143792
  34.8547424  90.3296166  73.2638620  35.2096812  90.5567639  74.1233086
  35.5019555  90.6614543  72.6415875  40.5845161  93.4514602  63.9687949
  40.4463060  93.6416198  63.0409138  40.2281380  94.2133985  64.4256000
  28.7487287  87.4372697  70.0484961  29.3886666  87.2961456  69.3507924
  27.9164818  87.1507210  69.6723563  40.6114541  95.5191129  68.9799220
  41.0451047  95.4266418  69.8282274  41.3246121  95.4948629  68.3419236
  29.5247591  96.7375128  66.1619953  30.3188189  96.2425448  65.9602528
  28.8139283  96.2092991  65.7987659  34.3442435  99.1193223  70.5132321
  34.3979458  99.6884159  71.2810037  33.4757217  99.2895108  70.1486358
  25.8330354  90.8818209  62.2379706  24.9027943  90.8202665  62.4549668
  25.9287826  90.3594162  61.4416347  25.7515903  87.4073022  64.8257948
  26.0122721  88.3218355  64.7167108  26.5733076  86.9397465  64.9754560
  27.2240829  88.8210779  71.9956772  27.8963882  88.6128141  71.3469421
  26.3970615  88.6232865  71.5562004  41.4730090  95.5614830  71.5132106
  41.6665980  96.4660640  71.7591381  41.3730708  95.1022249  72.3470691
  33.1266401  85.4472720  74.0122433  32.4794316  86.1462670  73.9186909
  33.8967416  85.8808864  74.3798681  36.5345199  95.7121572  77.0872986
  36.3830705  95.4832124  76.1703070  36.5249878  96.6692174  77.1004331
  33.3030535  93.2853485  72.0719253  34.2322595  93.4364645  71.8988220
  32.8821565  93.3737506  71.2167899  32.1018867  97.3104150  69.8417790
  31.9629953  96.9422934  70.7143729  31.3133463  97.8251789  69.6701748
  32.6967019 102.4113246  61.1843327  32.8718775 101.9401289  61.9988950
  32.0099807 103.0379012  61.4124588  33.6524082  96.6885752  67.2306628
  33.3173915  96.6486522  68.1264278  33.1528028  96.0230468  66.7577038
  27.6268326  92.0953382  72.7559209  27.4888124  91.3633621  73.3570748
  28.5373250  92.0062282  72.4743397  36.5883274  94.0341787  57.5043688
  35.9712444  93.3088615  57.4076741  36.1199762  94.7951147  57.1610762
  30.2550627  91.8073342  72.2442889  30.9650245  91.1666534  72.2029507
  30.2119935  92.0586236  73.1669070  38.2437405  98.7440695  75.1649468
  38.1849952  98.0599915  74.4980051  38.6456924  99.4859685  74.7130094
  28.9679561  88.7938559  74.0638528  28.4316918  88.3429298  74.7160125
  28.3796269  88.9284468  73.3208993  28.3781820  88.2527211  56.6264992
  27.5011286  88.1316012  56.2627239  28.8539573  87.4613289  56.3743881
  38.2454813  96.7080279  73.3963448  37.3581591  96.3706201  73.5189847
  38.8153364  95.9763310  73.6332213  19.8983960  93.0404371  66.7206499
  20.5855000  92.7266101  66.1327515  19.7432089  93.9445735  66.4473751
  24.7018682  87.9294567  71.1491523  24.6176871  87.3220237  70.4141933
  23.8801388  88.4203585  71.1501019  31.7755966 101.3681731  70.3624691
  31.7026138 102.1736703  70.8743996  31.3333359 101.5673697  69.5372712
  31.5645746 100.6053501  63.8727513  30.7813268 101.1475181  63.9665737
  32.2638491 101.1227481  64.2721754  34.8742396  86.4148131  66.5161718
  35.3711095  85.6618093  66.1962788  34.1029377  86.4512447  65.9504927
  42.7272153  92.1188496  68.1580010  42.7162029  93.0013212  67.7873943
  41.8589533  91.7660047  67.9634547  34.2354650 101.2668565  72.5182850
  34.9482622 101.9016030  72.4458751  33.7444678 101.3632431  71.7022852
  35.9572177  95.1719818  64.0900141  35.0228455  95.2921280  63.9204846
  36.1348845  94.2692285  63.8260151  31.4577365  88.5565514  66.2433403
  31.0875152  88.0036554  66.9314308  31.9536457  87.9523647  65.6908403
  39.3444728  91.0137137  64.6250176  39.8105180  91.8465129  64.5510478
  39.7952228  90.5482119  65.3295434  29.2866563  99.0163009  73.3388421
  29.9876023  99.6499492  73.4917815  28.8161678  99.3577740  72.5784060
  37.4120959  97.3580958  61.6236328  37.6880803  97.2437553  62.5330202
  36.5425458  96.9598443  61.5848501  37.3161391  83.3817724  68.6641077
  36.4024470  83.6121951  68.8323284  37.7454492  83.4656168  69.5155109
  37.0867849  91.5707616  71.1640971  36.4339299  91.8183524  70.5093424
  37.4648229  90.7571754  70.8303448  34.0475023 101.6067309  65.2669141
  34.2297418 100.7888965  65.7296894  34.8708009 101.8235002  64.8294031
  34.3817188 100.5335494  62.5284190  34.9104955 100.0227949  61.9154352
  34.6445408 100.2178025  63.3929723  33.1355422  92.3127427  77.6507008
  32.4596059  92.2121557  78.3209383  33.9583056  92.1566641  78.1143005
  24.8834281  98.5499364  70.2719523  25.4687718  97.8043052  70.4047427
  24.6859120  98.8603320  71.1556187  19.4751936  91.1204964  68.9923966
  19.5136035  90.5868555  69.7861084  18.9692229  90.5940169  68.3734944
  26.8542698  85.9669504  72.4886509  26.9184025  86.8284335  72.0763906
  26.7909818  85.3543506  71.7558867  26.3294971  88.0392637  76.1359543
  26.9567010  87.6569714  76.7497067  25.4722890  87.8206839  76.5015235
  36.7289079  98.4455612  77.7413278  37.2728983  99.0585570  77.2468233
  36.1475924  99.0035191  78.2580291  23.1060514  89.8469066  62.0677898
  23.4013955  88.9379745  62.0144951  22.2048549  89.8256806  61.7458900
  35.0146592 101.5676330  68.8728306  34.8897732 100.7666070  68.3639252
  35.6725683 102.0622524  68.3842276  26.6354761  87.9225063  68.0505446
  25.9141346  88.5361030  67.9112920  27.4248016  88.4582827  67.9722092
  37.0781501  99.3685350  70.5007856  36.1311836  99.2490701  70.4286183
  37.4264274  98.4807848  70.5834118  29.4381074  85.2579489  74.3246098
  29.9615476  85.5041786  75.0872407  29.2193407  86.0899524  73.9049235
  24.8348355  87.5283164  62.1917223  24.5061061  86.6480543  62.0092329
  25.1887726  87.4730832  63.0793612  34.0827934  99.1638066  66.7012208
  33.9352896  98.2354774  66.8819779  34.9081427  99.1858157  66.2169284
  27.9490178  87.8156134  62.5592701  28.2886251  88.3442055  61.8371309
  28.3962299  88.1536540  63.3351267  37.6862056  99.9866625  67.7877081
  38.6108603  99.7809487  67.6501532  37.5177359  99.7383026  68.6966423
  30.6433619  86.1993184  72.0095769  30.3030439  85.4000997  72.4116449
  29.9372625  86.4994895  71.4372602  31.2950091  83.2842497  70.4623092
  32.1176160  82.8102975  70.3401982  31.5388154  84.0632980  70.9621778
  29.9358325  86.3130755  60.7585993  30.6566688  86.6912008  60.2549710
  29.3123630  87.0319632  60.8620971  34.0789448  87.0175904  61.6944326
  34.2953063  87.9000542  61.3933154  33.5983515  86.6262118  60.9649968
  28.8188670  89.9761617  68.2715070  28.6733250  90.2901920  69.1639352
  28.3413873  90.5946518  67.7185969  30.6785053  86.9664165  68.3195960
  30.6646621  86.0705259  67.9828258  31.3957481  86.9734829  68.9534246
  32.5311183  87.4001506  70.3649087  32.2728961  88.3218576  70.3633418
  31.9996224  87.0031940  71.0549551  37.4757372 100.5052293  63.1439173
  37.6494250  99.9398715  62.3913025  37.9686263 101.3053188  62.9618663
  23.2934332  92.5166962  71.2102731  22.7487800  93.2926770  71.3423006
  24.1713682  92.8637766  71.0521853  30.0821948  85.8478546  63.5883530
  30.2037860  84.9195192  63.7874417  29.7923991  85.8617232  62.6761845
  32.9513139  83.5333456  66.7250250  32.9734836  83.5972789  65.7702229
  33.3681198  82.6937965  66.9190756  43.3296763  93.2688716  64.7629472
  43.7727909  92.5196041  64.3648596  42.4523273  93.2598852  64.3803204
  38.4632545  99.8219057  60.2436071  39.1583449 100.4425750  60.4623386
  38.8055695  98.9714408  60.5188449  24.0800354  91.6436858  74.1032888
  23.3382090  91.7919493  74.6897519  23.7593098  91.9045124  73.2399638
  40.3623968  97.2718763  61.7723402  40.8875292  97.6106035  61.0472722
  40.2746320  96.3365778  61.5886536  32.0244016 101.1852836  73.9013278
  32.3331143 100.9401983  74.7735978  32.8219498 101.3899475  73.4132149
  32.0464628 103.3390746  66.1318655  31.6069619 102.8467125  66.8251512
  32.7972745 102.7963714  65.8910730  24.5256967  99.5302287  66.1343283
  25.3514987  99.2306059  65.7541927  24.1751019  98.7609909  66.5833072
  29.4938501  98.8828755  68.2040957  28.8718510  98.2199460  67.9043184
  30.1643367  98.9089887  67.5214604  22.7265572  97.4488613  67.0932217
  21.8897481  97.0210788  66.9116218  22.6989218  97.6421057  68.0303008
  29.5663028  87.3610543  77.7973463  29.6151183  88.2372666  77.4151232
  30.1085542  86.8187936  77.2245106  40.0517874  97.9051666  77.0774600
  39.2613417  97.8875805  76.5379099  39.8151228  98.4439960  77.8323636
  40.1715749  94.7544133  74.3907328  40.2213754  94.5894140  75.3322851
  40.0629672  93.8871392  74.0005209  29.0552007  97.4332678  61.6799417
  29.2040128  98.1168143  61.0266090  29.8618451  97.4137768  62.1948873
  37.4619511  90.7375061  75.7066635  38.3629374  90.5981525  75.4150633
  37.5367486  90.9029515  76.6464812  31.7962316  88.1141915  74.5519821
  30.9265626  88.4075481  74.2802410  32.0321797  88.6982360  75.2727085
  41.6733946  97.1741074  74.6349350  41.3818754  97.5371055  75.4712811
  41.0606077  96.4608082  74.4562682  42.8729628  94.7393954  67.1551920
  43.7076519  95.1783758  67.3189480  43.0088757  94.2632607  66.3360166
  39.9221134  92.2973689  73.1029408  40.3975255  92.4901335  72.2948259
  38.9986699  92.3532875  72.8572791  26.8104640  93.4597856  62.6860486
  26.5650682  92.5560186  62.8840696  26.9800555  93.4615006  61.7439964
  34.5001350  84.3321532  72.0685242  35.0183294  85.0682559  71.7431730
  34.1456483  84.6385526  72.9032001  26.0800288  89.1926214  60.1846647
  25.3869533  89.2670568  59.5286683  25.8352040  88.4286557  60.7068164
  34.7513944  80.7521815  67.5886138  35.0315698  80.0845004  68.2146565
  35.5364551  80.9450910  67.0760802  32.5547413  99.9280809  59.1511165
  31.9821380 100.5470996  58.6981636  33.1280207 100.4780170  59.6851086
  38.6222803  89.1739449  71.3357713  39.5740226  89.2737547  71.3569937
  38.4526253  88.3817717  71.8455798  36.6437182  86.2595032  71.5217114
  36.0487114  86.5400045  70.8263603  36.3586879  86.7488933  72.2933855
  35.7744673 100.2117959  60.2819747  36.7075346 100.1463521  60.4852622
  35.6867886 101.0474226  59.8234279  38.4032689  99.5283829  57.2423694
  38.3246321  99.1943693  58.1359452  39.2242356 100.0205597  57.2415167
  41.1010881  92.3945569  70.4500013  41.0687201  91.4561569  70.6359697
  41.7111504  92.4729605  69.7165838  32.9394211  91.2641622  56.4927217
  33.8853316  91.1347830  56.5615635  32.5608456  90.5256283  56.9696645
  41.2505369  89.1856612  70.4958296  40.7344418  88.4015069  70.3088225
  42.1345318  88.8575329  70.6604816  38.9116096  82.9297628  66.4554109
  38.7140917  82.6212716  67.3397441  39.5215802  83.6559266  66.5852039
  46.9187430  93.4561575  69.5906050  47.6490819  93.1946863  70.1513753
  46.3094376  92.7190297  69.6308118  45.0002728  91.5969438  70.1880501
  44.2735891  91.4625403  69.5796993  44.5850014  91.9046267  70.9937219
  32.8232904  95.3159368  77.9527874  33.7435913  95.4937967  78.1467921
  32.7882487  94.3715413  77.8007573  31.1237129  89.1891598  56.4282102
  30.2168584  88.8924711  56.5044816  31.4013110  88.8921416  55.5616388
  22.0415069  90.5097961  66.8781149  21.7217853  89.6563269  66.5855523
  21.4948497  90.7246539  67.6339116  25.8194977  93.2260402  70.5950655
  26.0380986  94.1577510  70.6138689  26.2320750  92.8668377  71.3805459
  32.7399194  83.7328488  62.5826344  31.9299923  83.3875573  62.9581590
  33.4283611  83.4236031  63.1713955  34.6689743  82.8106534  64.2050640
  35.2220781  83.2301988  64.8640663  34.9059829  81.8842283  64.2473596
  30.6922842  88.7993608  79.9853404  30.5919569  89.7487965  79.9165495
  30.4744384  88.4711847  79.1129474  29.8935913  86.0478533  56.5694081
  30.7555077  86.3733431  56.8289899  30.0786257  85.2610029  56.0567147
  21.9103329  94.1300873  68.8474270  21.2166800  93.7154826  68.3344225
  22.6576320  94.1721409  68.2507689  38.0468550  84.9207060  63.7129304
  37.4667219  85.5791864  63.3307357  37.7804482  84.0984404  63.3016722
  36.4972116  84.3212117  65.9150625  36.9971894  84.4328652  65.1064944
  37.1407724  84.0173170  66.5551433  30.5554112  92.2290747  78.8018466
  30.0721194  93.0291107  79.0082355  30.6415051  92.2398692  77.8485910
  23.8240072  94.0619127  66.7240285  23.8010760  94.1606814  65.7722168
  24.1340708  94.9084277  67.0457451  26.4827449  96.1195282  70.8386900
  27.4370703  96.0879224  70.7716831  26.2839973  95.6585905  71.6537125
  27.0726832  94.6896398  73.4057697  27.8919721  95.1840476  73.4292534
  27.3463639  93.7728366  73.3775265  36.8293428  87.0807150  62.7685653
  35.9419283  87.3656801  62.5505847  37.2447417  86.9200913  61.9212930
  40.1807964  87.1053671  66.4839992  40.9568354  87.5950123  66.7564609
  39.4556098  87.5311725  66.9411861  42.6180522  87.8181290  67.5413933
  43.2125013  87.5777026  66.8307241  42.6907106  87.0988421  68.1687469
  35.9736641  96.8451825  56.8633673  36.6772491  97.0501827  57.4791328
  35.2499290  97.4128587  57.1282756  36.8034451  92.5961686  62.9835943
  36.7469653  93.0530237  62.1443575  37.3562794  91.8352370  62.8058786
  40.6139257  88.3851418  63.8086062  40.3576192  87.9848053  64.6394270
  39.9892125  89.0995212  63.6836202  44.9251595  91.1247491  66.3157354
  44.3651153  91.1940680  67.0888916  44.3195099  90.9488476  65.5956850
  37.8823339  97.2834354  58.9132133  38.7168943  96.8515552  58.7309608
  37.7207682  97.1116368  59.8409027  37.5369231  93.7866467  60.2788472
  37.4818035  93.6210739  59.3376916  36.9115286  94.4942500  60.4350662
  22.3261746  89.0234532  74.1049894  22.9720609  88.5133485  74.5937119
  22.1178897  89.7603213  74.6793320  34.8515138  96.0915379  79.6042035
  35.7206298  96.2656031  79.2428670  34.3721889  96.9109796  79.4817764
  30.8465356  83.2874576  59.8573790  30.8344026  84.2316416  60.0142061
  31.7388778  83.1044722  59.5633252  30.7754920 101.9643467  67.9441547
  29.8250551 101.9645328  67.8305919  31.0787406 101.2176201  67.4277582
  34.6617476  79.8817353  64.1119727  33.8949872  79.3275839  64.2576410
  35.0728181  79.9539222  64.9733879  26.6659237  86.1702149  78.2024908
  27.5290698  85.8138953  78.4128233  26.0924647  85.8316043  78.8900313
  41.0205599 106.5219680  58.2765774  41.2731120 106.0001202  57.5149237
  40.0830158 106.3585826  58.3792458  46.0648882 105.5255459  66.0840518
  46.8511971 105.1074882  65.7330935  46.3287587 106.4301551  66.2522166
  51.4657309 105.4630692  66.9873496  52.1982481 104.8929909  67.2211326
  50.7096665 105.0752292  67.4280002  48.9882730  99.1752266  71.4468105
  48.6566054 100.0447677  71.2229320  48.3928343  98.8588550  72.1262135
  42.7238916 102.9147833  59.1798187  42.8913318 103.7828070  59.5468658
  42.5336085 103.0775115  58.2559476  48.8811393 103.8947352  68.5261455
  47.9728270 103.8262761  68.2320216  48.8298989 104.3719297  69.3543280
  42.7028137 105.3705491  60.1644854  42.5827762 105.8162541  61.0030334
  42.0080725 105.7190808  59.6058392  42.9552259 105.3136998  76.4696352
  42.1785593 105.8730918  76.4599217  43.5942822 105.7993781  76.9911222
  50.7473039 102.0963791  70.3039329  50.1047420 102.3896324  69.6579123
  50.2427968 101.9816711  71.1092525  48.4013203 105.8426964  60.9925188
  49.3131059 106.0754351  60.8172885  47.8922850 106.4264008  60.4300267
  43.0385041 105.2024198  72.0020037  43.8846236 105.6263612  72.1454686
  42.9783678 104.5457823  72.6958601  46.1884486 102.8628567  73.6601211
  45.9445418 103.6170627  73.1235487  46.4644417 103.2413914  74.4948458
  45.7449178 102.0185000  69.2415049  44.8833657 102.3166253  69.5331786
  45.7711612 102.2355399  68.3096081  41.4979633 106.6850343  62.4578420
  42.2003677 107.1371386  62.9252346  41.1660262 106.0434162  63.0858313
  39.9459995 105.2762099  76.8329629  39.3158655 105.9578380  77.0665026
  39.8396083 105.1645181  75.8882767  57.3474770 108.6277883  66.8585805
  56.5938478 108.0585281  66.7029810  57.4822311 108.5940548  67.8056440
  39.2240738  99.5782865  79.1954880  38.8307683  99.0249064  79.8702524
  40.0406878  99.8893444  79.5861398  42.1408699 100.9940744  76.7875137
  42.8818412 101.5947897  76.7079599  42.3726621 100.2518382  76.2293179
  46.0865861  97.0221847  71.0639418  45.7430131  97.9123489  70.9878529
  46.4544824  96.8323505  70.2009003  46.0516144 107.0130458  59.5711853
  45.5362768 107.7835063  59.8100241  45.7793453 106.3395595  60.1944915
  43.6363255 101.8580159  64.6297092  42.7804852 101.4687010  64.4502730
  44.0490207 101.9372120  63.7696877  45.1662402  99.3926502  69.0288652
  44.6627197  99.3556638  68.2156457  45.4593009 100.3019245  69.0885308
  41.4105288  99.4765232  68.0354833  42.2758285  99.2808041  67.6760723
  41.4782797  99.2475584  68.9624190  51.0250418 109.7662813  61.5065027
  50.2479861 109.4273973  61.0620189  51.7041899 109.7715436  60.8319992
  45.8402447 104.8857550  61.3971635  45.5352583 105.2003700  62.2481778
  46.7932890 104.9638970  61.4398968  39.0167607 101.7067440  65.4071200
  39.5911359 101.4842622  64.6744393  39.6038589 101.7756135  66.1599801
  48.0747184 107.5941167  66.2135577  48.5879066 108.2271159  66.7157286
  48.7248408 106.9942362  65.8478937  39.3437194 103.7371901  59.4267085
  38.5074506 104.0746588  59.7476360  39.2041964 103.6020881  58.4894222
  41.3190275  98.5808689  64.1346269  40.6654687  98.2657706  63.5102884
  41.2770749  97.9584429  64.8606092  44.5528015 105.0690623  68.4593917
  43.6350576 105.2905570  68.3015605  44.9688159 105.1436933  67.6005624
  45.3363063 106.4682038  63.5896597  46.0834882 106.9803435  63.2803719
  45.6054652 106.1466091  64.4500991  47.7841900 103.5039154  65.5715387
  47.0464657 102.9916541  65.9025629  48.0368673 103.0639536  64.7598664
  47.8853527  96.2815406  66.1657156  48.1912404  95.4212770  65.8783071
  48.6106132  96.8733027  65.9656150  42.1574607 106.5769200  66.6733347
  42.2123217 105.6243036  66.5975824  41.3465809 106.7328639  67.1574645
  40.0966967 105.1946259  64.4323726  39.2834832 105.4940430  64.8388918
  40.5925961 104.8001948  65.1498208  45.6941178 105.6588084  73.2638620
  46.0490566 105.8859557  74.1233086  46.3413310 105.9906461  72.6415875
  51.4238915 108.7806520  63.9687949  51.2856814 108.9708116  63.0409138
  51.0675134 109.5425902  64.4256000  39.5881042 102.7664615  70.0484961
  40.2280421 102.6253374  69.3507924  38.7558572 102.4799128  69.6723563
  36.5909658 102.7364940  64.8257948  36.8516475 103.6510273  64.7167108
  37.4126830 102.2689382  64.9754560  38.0634583 104.1502697  71.9956772
  38.7357637 103.9420059  71.3469421  37.2364370 103.9524783  71.5562004
  43.9660155 100.7764638  74.0122433  43.3188070 101.4754588  73.9186909
  44.7361171 101.2100782  74.3798681  39.8073315 104.1230477  74.0638528
  39.2710672 103.6721216  74.7160125  39.2190024 104.2576386  73.3208993
  39.2175574 103.5819129  56.6264992  38.3405040 103.4607929  56.2627239
  39.6933327 102.7905207  56.3743881  35.5412436 103.2586485  71.1491523
  35.4570625 102.6512154  70.4141933  34.7195143 103.7495503  71.1501019
  45.7136150 101.7440048  66.5161718  46.2104850 100.9910011  66.1962788
  44.9423132 101.7804365  65.9504927  53.5665908 107.4480414  68.1580010
  53.5555784 108.3305129  67.7873943  52.6983287 107.0951965  67.9634547
  42.2971119 103.8857431  66.2433403  41.9268907 103.3328472  66.9314308
  42.7930212 103.2815565  65.6908403  50.1838482 106.3429055  64.6250176
  50.6498935 107.1757046  64.5510478  50.6345983 105.8774036  65.3295434
  48.1555145  98.7109642  68.6641077  47.2418225  98.9413869  68.8323284
  48.5848247  98.7948086  69.5155109  47.9261604 106.8999534  71.1640971
  47.2733054 107.1475441  70.5093424  48.3041984 106.0863672  70.8303448
  43.9749177 107.6419345  77.6507008  43.2989814 107.5413474  78.3209383
  44.7976811 107.4858559  78.1143005  37.6936453 101.2961422  72.4886509
  37.7577779 102.1576253  72.0763906  37.6303573 100.6835424  71.7558867
  37.1688725 103.3684555  76.1359543  37.7960764 102.9861632  76.7497067
  36.3116644 103.1498757  76.5015235  37.4748515 103.2516980  68.0505446
  36.7535101 103.8652948  67.9112920  38.2641771 103.7874745  67.9722092
  40.2774829 100.5871407  74.3246098  40.8009230 100.8333703  75.0872407
  40.0587162 101.4191442  73.9049235  35.6742110 102.8575081  62.1917223
  35.3454816 101.9772460  62.0092329  36.0281480 102.8022750  63.0793612
  38.7883933 103.1448051  62.5592701  39.1280005 103.6733972  61.8371309
  39.2356053 103.4828457  63.3351267  41.4827374 101.5285102  72.0095769
  41.1424194 100.7292915  72.4116449  40.7766380 101.8286813  71.4372602
  42.1343845  98.6134414  70.4623092  42.9569915  98.1394893  70.3401982
  42.3781909  99.3924898  70.9621778  40.7752080 101.6422673  60.7585993
  41.4960442 102.0203926  60.2549710  40.1517384 102.3611550  60.8620971
  44.9183203 102.3467822  61.6944326  45.1346817 103.2292460  61.3933154
  44.4377270 101.9554035  60.9649968  39.6582424 105.3053535  68.2715070
  39.5127005 105.6193838  69.1639352  39.1807628 105.9238435  67.7185969
  41.5178807 102.2956083  68.3195960  41.5040376 101.3997176  67.9828258
  42.2351235 102.3026747  68.9534246  43.3704938 102.7293423  70.3649087
  43.1122716 103.6510494  70.3633418  42.8389978 102.3323858  71.0549551
  40.9215703 101.1770463  63.5883530  41.0431614 100.2487109  63.7874417
  40.6317745 101.1909149  62.6761845  43.7906893  98.8625374  66.7250250
  43.8128590  98.9264707  65.7702229  44.2074952  98.0229882  66.9190756
  54.1690518 108.5980633  64.7629472  54.6121664 107.8487958  64.3648596
  53.2917028 108.5890770  64.3803204  40.4056783 102.6902461  77.7973463
  40.4544938 103.5664583  77.4151232  40.9479297 102.1479854  77.2245106
  51.0109503 110.0836050  74.3907328  51.0607508 109.9186058  75.3322851
  50.9023427 109.2163309  74.0005209  48.3013266 106.0666978  75.7066635
  49.2023128 105.9273443  75.4150633  48.3761240 106.2321433  76.6464812
  42.6356071 103.4433833  74.5519821  41.7659380 103.7367399  74.2802410
  42.8715551 104.0274278  75.2727085  53.7123382 110.0685872  67.1551920
  54.5470274 110.5075676  67.3189480  53.8482511 109.5924525  66.3360166
  50.7614888 107.6265606  73.1029408  51.2369010 107.8193253  72.2948259
  49.8380454 107.6824792  72.8572791  45.3395105  99.6613450  72.0685242
  45.8577049 100.3974477  71.7431730  44.9850238  99.9677443  72.9032001
  36.9194042 104.5218131  60.1846647  36.2263287 104.5962486  59.5286683
  36.6745794 103.7578475  60.7068164  45.5907699  96.0813733  67.5886138
  45.8709453  95.4136922  68.2146565  46.3758306  96.2742828  67.0760802
  49.4616557 104.5031367  71.3357713  50.4133980 104.6029464  71.3569937
  49.2920008 103.7109635  71.8455798  47.4830937 101.5886950  71.5217114
  46.8880869 101.8691962  70.8263603  47.1980633 102.0780851  72.2933855
  51.9404635 107.7237486  70.4500013  51.9080955 106.7853487  70.6359697
  52.5505259 107.8021523  69.7165838  43.7787966 106.5933539  56.4927217
  44.7247071 106.4639747  56.5615635  43.4002211 105.8548201  56.9696645
  52.0899124 104.5148530  70.4958296  51.5738172 103.7306986  70.3088225
  52.9739072 104.1867246  70.6604816  49.7509851  98.2589545  66.4554109
  49.5534672  97.9504633  67.3397441  50.3609556  98.9851184  66.5852039
  57.7581185 108.7853493  69.5906050  58.4884573 108.5238781  70.1513753
  57.1488130 108.0482215  69.6308118  55.8396482 106.9261356  70.1880501
  55.1129646 106.7917321  69.5796993  55.4243769 107.2338184  70.9937219
  41.9630883 104.5183516  56.4282102  41.0562339 104.2216628  56.5044816
  42.2406864 104.2213334  55.5616388  43.5792949  99.0620405  62.5826344
  42.7693677  98.7167490  62.9581590  44.2677366  98.7527949  63.1713955
  45.5083497  98.1398452  64.2050640  46.0614536  98.5593906  64.8640663
  45.7453583  97.2134200  64.2473596  41.5316596 104.1285526  79.9853404
  41.4313323 105.0779883  79.9165495  41.3138138 103.8003765  79.1129474
  40.7329668 101.3770451  56.5694081  41.5948832 101.7025349  56.8289899
  40.9180012 100.5901947  56.0567147  48.8862304 100.2498977  63.7129304
  48.3060973 100.9083781  63.3307357  48.6198237  99.4276322  63.3016722
  47.3365871  99.6504035  65.9150625  47.8365649  99.7620569  65.1064944
  47.9801479  99.3465088  66.5551433  47.6687182 102.4099068  62.7685653
  46.7813037 102.6948718  62.5505847  48.0841171 102.2492831  61.9212930
  51.0201718 102.4345589  66.4839992  51.7962108 102.9242041  66.7564609
  50.2949853 102.8603643  66.9411861  53.4574277 103.1473208  67.5413933
  54.0518768 102.9068944  66.8307241  53.5300861 102.4280338  68.1687469
  47.6428206 107.9253604  62.9835943  47.5863407 108.3822155  62.1443575
  48.1956548 107.1644288  62.8058786  51.4533012 103.7143335  63.8086062
  51.1969946 103.3139971  64.6394270  50.8285880 104.4287129  63.6836202
  55.7645350 106.4539409  66.3157354  55.2044908 106.5232598  67.0888916
  55.1588853 106.2780393  65.5956850  41.6859111  98.6166494  59.8573790
  41.6737781  99.5608334  60.0142061  42.5782533  98.4336639  59.5633252
  45.5011230  95.2109270  64.1119727  44.7343626  94.6567757  64.2576410
  45.9121935  95.2831139  64.9733879  37.5052991 101.4994066  78.2024908
  38.3684453 101.1430871  78.4128233  36.9318402 101.1607961  78.8900313
  58.7247282 111.6107324  66.1657156  59.0306158 110.7504688  65.8783071
  59.4499886 112.2024944  65.9656150  56.4301453 111.4105650  67.5886138
  56.7103207 110.7428839  68.2146565  57.2152060 111.6034746  67.0760802
  56.3404985 110.5401188  64.1119727  55.5737381 109.9859675  64.2576410
  56.7515690 110.6123057  64.9733879   3.1532597  23.4898457  55.7332616
   3.7911007  23.3705204  55.0295956   3.0353440  24.4379301  55.7920568
   1.4008678  28.9632329  46.9705497   0.7496657  29.5486409  46.5839510
   2.1953040  29.4938524  47.0300534   2.7073865  21.2149911  52.8085824
   3.4936955  20.7969334  52.4576241   2.9712570  22.1196003  52.9767473
   2.8783943  26.6522761  47.5074481   2.2429776  26.7257387  48.2195386
   2.5481349  27.2416360  46.8293560   8.1082293  21.1525144  53.7118803
   8.8407465  20.5824361  53.9456632   7.3521648  20.7646744  54.1525308
   5.6307713  14.8646718  58.1713411   5.2991038  15.7342129  57.9474626
   5.0353326  14.5483002  58.8507442   2.1239232  27.0659264  57.5709324
   1.8239956  27.9684303  57.4625131   1.7790292  26.7991447  58.4230477
   5.5236376  19.5841804  55.2506761   4.6153254  19.5157213  54.9565522
   5.4723972  20.0613749  56.0788587   7.3898023  17.7858243  57.0284635
   6.7472403  18.0790776  56.3824430   6.8852951  17.6711163  57.8337832
   5.0438186  21.5321416  47.7170495   5.9556042  21.7648802  47.5418192
   4.5347833  22.1158460  47.1545573   3.3278954  25.9546044  61.3531787
   3.7362310  25.5128454  60.6086419   2.6056216  25.3798671  61.6065980
   3.6507769  26.5147234  55.1084076   3.0216631  26.6792948  54.4060144
   3.2633431  26.9288844  55.8795040   7.5297001  27.4501672  52.4628440
   6.8448039  27.8300573  51.9125473   7.6140850  28.0596999  53.1960388
   2.8309469  18.5523019  60.3846518   2.5870401  19.3065079  59.8480793
   3.1069400  18.9308366  61.2193765   4.7847932  25.0961631  59.0623783
   4.9964827  25.7393391  58.3858164   4.7377680  24.2623948  58.5945713
   2.3874161  17.7079452  55.9660355   1.5258640  18.0060705  56.2577093
   2.4136596  17.9249851  55.0341388   5.8993760  27.9733586  57.2346141
   6.7211204  27.5713774  56.9528822   5.8956163  27.8701821  58.1862256
  13.9899753  24.3172335  53.5831112  13.2363462  23.7479733  53.4275117
  14.1247294  24.2834999  54.5301747   1.0066858  29.8109304  63.3886174
   0.5630712  29.0245682  63.0707078   1.6684071  29.9988454  62.7230064
   3.1048096  30.0912104  61.4167575   3.0866571  30.9120985  60.9247844
   4.0268016  29.9666179  61.6417716   2.6941127  22.7024910  46.2957160
   2.1787751  23.4729515  46.5345547   2.4218436  22.0290046  46.9190221
   7.6675402  25.4557265  48.2310334   6.8904844  25.1168424  47.7865496
   8.3466883  25.4609888  47.5565299   2.4827431  20.5752002  48.1216941
   2.1777566  20.8898152  48.9727084   3.4357873  20.6533422  48.1644274
   5.9066709  24.9291246  54.8876941   5.2490383  25.6190508  54.9757070
   6.7107108  25.3187678  55.2310928   4.7172167  23.2835619  52.9380883
   5.2304049  23.9165611  53.4402593   5.3673391  22.6836814  52.5724243
   1.9794542  33.2619943  45.6941554   1.3056240  33.5651640  46.3026512
   2.3660364  34.0649023  45.3447011   1.9788046  22.1576490  50.3141904
   2.7259865  22.6697887  50.0049026   2.2479636  21.8360543  51.1746298
   5.4833964  28.2641620  51.0660026   5.0296291  27.4232530  51.1225216
   4.8527930  28.9003019  51.4034806   4.4266883  19.1933606  52.2960693
   3.6889640  18.6810993  52.6270936   4.6793657  18.7533988  51.4843970
   3.9266903  30.1018117  52.0009844   4.2189877  30.6623174  51.2822210
   4.4365523  30.3946678  52.7563003   2.3366162  21.3482536  59.9883926
   2.6915550  21.5754009  60.8478392   2.9838293  21.6800912  59.3661182
   8.0663899  24.4700972  50.6933255   7.9281797  24.6602567  49.7654445
   7.7100118  25.2320354  51.1501307   8.0933278  26.5377499  55.7044527
   8.5269785  26.4452788  56.5527581   8.8064859  26.5134999  55.0664543
   1.8261173  30.1379593  57.2377628   1.8798196  30.7070529  58.0055343
   0.9575955  30.3081478  56.8731665   8.9548828  26.5801199  58.2377412
   9.1484718  27.4847010  58.4836687   8.8549446  26.1208618  59.0715997
   4.0163937  26.7307942  63.8118293   3.8649443  26.5018494  62.8948377
   4.0068616  27.6878543  63.8249638   1.1342820  27.7072122  53.9551935
   0.7992653  27.6672892  54.8509585   0.6346766  27.0416838  53.4822345
   4.0702012  25.0528156  44.2288994   3.4531182  24.3274984  44.1322047
   3.6018500  25.8137516  43.8856069   5.7256143  29.7627064  61.8894775
   5.6668689  29.0786285  61.2225358   6.1275662  30.5046054  61.4375401
   5.7273550  27.7266648  60.1208755   4.8400329  27.3892570  60.2435153
   6.2972102  26.9949680  60.3577520   2.3561134  17.4334500  53.2407025
   2.8529833  16.6804463  52.9208095   1.5848115  17.4698817  52.6750234
  10.2090891  23.1374866  54.8825316  10.1980767  24.0199581  54.5119249
   9.3408270  22.7846417  54.6879853   1.7173387  32.2854935  59.2428156
   2.4301360  32.9202400  59.1704058   1.2263416  32.3818801  58.4268158
   3.4390914  26.1906187  50.8145448   2.5047193  26.3107650  50.6450152
   3.6167583  25.2878654  50.5505458   6.8263466  22.0323507  51.3495482
   7.2923918  22.8651498  51.2755785   7.2770966  21.5668488  52.0540741
   4.8939697  28.3767328  48.3481634   5.1699541  28.2623923  49.2575508
   4.0244195  27.9784813  48.3093807   4.7980128  14.4004094  55.3886384
   3.8843208  14.6308321  55.5568590   5.2273230  14.4842538  56.2400416
   4.5686587  22.5893986  57.8886278   3.9158037  22.8369893  57.2338730
   4.9466967  21.7758124  57.5548755   1.5293761  32.6253679  51.9914448
   1.7116155  31.8075335  52.4542200   2.3526747  32.8421371  51.5539338
   1.8635926  31.5521864  49.2529496   2.3923693  31.0414319  48.6399658
   2.1264146  31.2364394  50.1175029   4.2107817  29.4641982  64.4658585
   4.7547721  30.0771940  63.9713540   3.6294662  30.0221560  64.9825598
   2.4965330  32.5862700  55.5973613   2.3716470  31.7852440  55.0884558
   3.1544421  33.0808893  55.1087583   4.5600238  30.3871720  57.2253163
   3.6130574  30.2677071  57.1531490   4.9083012  29.4994218  57.3079424
   1.5646672  30.1824436  53.4257515   1.4171634  29.2541143  53.6065085
   2.3900165  30.2044527  52.9414590   5.1680794  31.0052995  54.5122388
   6.0927341  30.7995856  54.3746839   4.9996097  30.7569396  55.4211729
   1.5608186  18.0362274  48.4189632   1.7771800  18.9186912  48.1178460
   1.0802253  17.6448487  47.6895274   4.9576110  31.5238662  49.8684479
   5.1312987  30.9585085  49.1158332   5.4505001  32.3239557  49.6863969
  10.8115501  24.2875085  51.4874779  11.2546647  23.5382410  51.0893902
   9.9342011  24.2785222  51.1048511   5.9451282  30.8405427  46.9681378
   6.6402187  31.4612119  47.1868692   6.2874432  29.9900778  47.2433755
   7.8442705  28.2905132  48.4968708   8.3694030  28.6292405  47.7718028
   7.7565058  27.3552147  48.3131843   7.5336611  28.9238036  63.8019906
   6.7432155  28.9062175  63.2624406   7.2969966  29.4626329  64.5568943
   7.6534487  25.7730502  61.1152635   7.7032491  25.6080510  62.0568158
   7.5448410  24.9057761  60.7250516   4.9438249  21.7561430  62.4311942
   5.8448112  21.6167895  62.1395939   5.0186223  21.9215885  63.3710119
   9.1552683  28.1927444  61.3594656   8.8637492  28.5557424  62.1958117
   8.5424815  27.4794452  61.1807988  10.3548366  25.7580323  53.8797227
  11.1895257  26.1970128  54.0434787  10.4907494  25.2818977  53.0605472
   7.4039872  23.3160058  59.8274714   7.8793993  23.5087705  59.0193566
   6.4805437  23.3719244  59.5818098   1.9820088  15.3507902  58.7930548
   2.5002032  16.0868929  58.4677037   1.6275221  15.6571895  59.6277307
   6.1041541  20.1925818  58.0603020   7.0558963  20.2923916  58.0815244
   5.9344991  19.4004087  58.5701104   4.1255920  17.2781402  58.2462421
   3.5305852  17.5586414  57.5508910   3.8405617  17.7675303  59.0179162
   3.2563411  31.2304328  47.0065053   4.1894084  31.1649890  47.2097929
   3.1686623  32.0660595  46.5479586   5.8851427  30.5470199  43.9669001
   5.8065059  30.2130062  44.8604759   6.7061094  31.0391967  43.9660473
   8.5829618  23.4131938  57.1745320   8.5505938  22.4747939  57.3605003
   9.1930242  23.4915975  56.4411145   8.7324107  20.2042982  57.2203603
   8.2163156  19.4201438  57.0333532   9.6164055  19.8761698  57.3850122
   6.3934834  13.9483997  53.1799415   6.1959655  13.6399085  54.0642747
   7.0034539  14.6745636  53.3097345  14.4006168  24.4747945  56.3151356
  15.1309557  24.2133233  56.8759060  13.7913114  23.7376667  56.3553424
  12.4821465  22.6155808  56.9125808  11.7554629  22.4811772  56.3042299
  12.0668752  22.9232636  57.7182526   5.5287287  15.9393429  50.4374611
   4.9485957  16.5978233  50.0552663   5.2623220  15.1170774  50.0262029
   3.9790854  15.3398487  52.6395931   4.4790632  15.4515021  51.8310250
   4.6226462  15.0359540  53.2796740   4.3112166  18.0993520  49.4930959
   3.4238021  18.3843170  49.2751154   4.7266155  17.9387283  48.6458236
   7.6626702  18.1240040  53.2085299   8.4387092  18.6136493  53.4809915
   6.9374836  18.5498095  53.6657168  10.0999260  18.8367660  54.2659239
  10.6943751  18.5963396  53.5552547  10.1725844  18.1174790  54.8932776
   3.4555379  27.8638194  43.5878979   4.1591229  28.0688197  44.2036635
   2.7318028  28.4314956  43.8528063   4.2853189  23.6148055  49.7081249
   4.2288391  24.0716607  48.8688882   4.8381532  22.8538740  49.5304092
   8.0957995  19.4037787  50.5331369   7.8394929  19.0034423  51.3639577
   7.4710863  20.1181581  50.4081508  12.4070333  22.1433861  53.0402660
  11.8469891  22.2127050  53.8134222  11.8013836  21.9674845  52.3202157
   5.3642076  28.3020723  45.6377439   6.1987680  27.8701922  45.4554914
   5.2026419  28.1302737  46.5654334   5.0187969  24.8052837  47.0033779
   4.9636772  24.6397108  46.0622223   4.3934024  25.5128870  47.1595968
   2.3333876  27.1101749  66.3287341   3.2025035  27.2842401  65.9673976
   1.8540627  27.9296165  66.2063071  13.9926351  38.8190375  55.7332616
  14.6304761  38.6997122  55.0295956  13.8747194  39.7671218  55.7920568
  10.8016058  38.7717803  55.6694141  10.4634569  38.6558867  54.7814676
  11.6705826  38.3708968  55.6495147   6.6602873  40.6253279  51.6591032
   6.0967739  40.5343216  50.8907320   6.5455269  39.8053183  52.1393524
  11.2835841  39.9252654  61.6280346  11.2724482  39.5305453  60.7560850
  11.4456480  39.1918727  62.2214118   4.2067305  42.1204471  54.4975252
   4.9988597  41.7795295  54.0821552   4.4463956  42.2299446  55.4177406
  12.2402432  44.2924247  46.9705497  11.5890412  44.8778327  46.5839510
  13.0346795  44.8230442  47.0300534   6.1658059  41.3813384  47.3692631
   6.9388935  40.8342371  47.2305507   6.5183458  42.2457633  47.5807092
   8.0043102  42.7089766  60.5759530   7.7132968  43.6135397  60.4606197
   8.6400086  42.7506294  61.2903600   8.9299309  40.0866615  57.1660890
   9.5262881  39.8622637  56.4517853   8.9874280  39.3451360  57.7686338
   8.5024337  37.5406050  45.0011081   8.7549858  37.0187571  44.2394544
   7.5648896  37.3772195  45.1037765  13.5467620  36.5441828  52.8085824
  14.3330709  36.1261252  52.4576241  13.8106324  37.4487921  52.9767473
  13.7177697  41.9814679  47.5074481  13.0823530  42.0549305  48.2195386
  13.3875104  42.5708277  46.8293560  18.9476047  36.4817062  53.7118803
  19.6801219  35.9116278  53.9456632  18.1915403  36.0938662  54.1525308
   8.2220626  39.4434156  47.2035456   8.1056884  38.7679059  47.8716540
   8.3322886  38.9566530  46.3867609  10.5652167  38.9044303  50.9082145
  10.2010374  38.3774924  51.6195067  11.4219283  38.5142772  50.7348631
  16.4701467  30.1938636  58.1713411  16.1384792  31.0634047  57.9474626
  15.8747081  29.8774920  58.8507442  10.2057654  33.9334203  45.9043494
  10.3732056  34.8014439  46.2713965  10.0154823  34.0961484  44.9804783
  12.9632987  42.3951182  57.5709324  12.6633710  43.2976220  57.4625131
  12.6184047  42.1283365  58.4230477   6.4145468  38.8464978  53.6046028
   5.4895965  38.7141193  53.8123720   6.6629882  39.6259198  54.1015971
  16.3630131  34.9133722  55.2506761  15.4547008  34.8449130  54.9565522
  16.3117727  35.3905667  56.0788587  10.1846875  36.3891860  46.8890160
  10.0646500  36.8348911  47.7275641   9.4899463  36.7377178  46.3303699
   3.7754280  38.4898252  54.4389818   3.9046661  38.7432731  55.3529229
   3.0951731  39.0825960  54.1194473   7.9453767  49.1595502  50.5380292
   7.8677796  50.1103327  50.6168772   7.3415410  48.8141374  51.1955218
  10.4370997  36.3323367  63.1941659   9.6604331  36.8917288  63.1844523
  11.0761560  36.8180150  63.7156529  18.2291777  33.1150160  57.0284635
  17.5866157  33.4082693  56.3824430  17.7246706  33.0003081  57.8337832
  15.8831941  36.8613333  47.7170495  16.7949797  37.0940720  47.5418192
  15.3741588  37.4450378  47.1545573   8.6917369  39.1408821  62.7559626
   9.4332053  39.6793865  62.4794449   7.9854354  39.7675110  62.9131177
  14.1672709  41.2837961  61.3531787  14.5756065  40.8420372  60.6086419
  13.4449970  40.7090589  61.6065980  10.5203779  36.2210568  58.7265344
  11.3664974  36.6449982  58.8699993  10.4602416  35.5644192  59.4203907
  14.4901523  41.8439152  55.1084076  13.8610386  42.0084866  54.4060144
  14.1027185  42.2580761  55.8795040  18.3690755  42.7793590  52.4628440
  17.6841793  43.1592491  51.9125473  18.4534604  43.3888916  53.1960388
  13.6703224  33.8814936  60.3846518  13.4264156  34.6356997  59.8480793
  13.9463154  34.2600284  61.2193765  15.6241687  40.4253549  59.0623783
  15.8358582  41.0685309  58.3858164  15.5771435  39.5915865  58.5945713
  13.2267916  33.0371369  55.9660355  12.3652395  33.3352623  56.2577093
  13.2530350  33.2541768  55.0341388  10.0429485  41.5813560  52.3734161
  10.5067831  41.8601263  51.5838784   9.7786283  40.6797005  52.1907252
   6.9353566  41.1285042  55.3113924   7.5054923  41.5572310  54.6731409
   7.5261678  40.8467626  56.0098110   8.9798371  37.7036712  49.1823726
   9.6822414  38.1557756  49.6497653   8.6479000  37.0620531  49.8103619
   7.4278733  36.2948469  63.5574936   6.7977393  36.9764750  63.7910332
   7.3214820  36.1831551  62.6128074   2.7223705  35.9620265  54.4840860
   1.9322759  36.2177794  54.0080970   3.2134952  36.7768603  54.5892900
  16.7387515  43.3025504  57.2346141  17.5604958  42.9005691  56.9528822
  16.7349917  43.1993738  58.1862256   4.6738450  36.3264844  51.4424336
   3.8769614  36.4383538  51.9607832   4.4464043  36.6651496  50.5765227
  10.5044118  42.8509547  59.3906851  10.5688551  43.3129955  60.2265023
   9.7955042  42.2206912  59.5189161   1.0061408  36.2150755  56.9155851
   1.2569446  37.0997765  57.1813427   1.5420956  36.0355357  56.1430942
  24.8293508  39.6464253  53.5831112  24.0757216  39.0771651  53.4275117
  24.9641049  39.6126917  54.5301747  10.2192136  44.5177655  49.2585831
  10.0837810  45.3629191  49.6870679  10.7601948  44.7196933  48.4951765
   6.7059475  30.5969235  65.9200187   6.3126421  30.0435433  66.5947831
   7.5225616  30.9079813  66.3106704   3.6721533  42.0353093  49.8313757
   4.1846054  42.8296343  49.9819321   4.3244246  41.3379383  49.7647358
   5.4816418  45.1518849  51.9136510   5.6583046  46.0736814  51.7257494
   6.2773251  44.8377268  52.3430890   9.6227436  32.0127114  63.5120443
  10.3637150  32.6134267  63.4324906   9.8545359  31.2704752  62.9538486
   4.7668774  37.1983481  61.7898673   4.6522289  36.2968738  62.0905772
   3.9113292  37.4447178  61.4383489  11.8460612  45.1401221  63.3886174
  11.4024466  44.3537600  63.0707078  12.5077826  45.3280372  62.7230064
   6.6047733  46.6697023  57.9146852   7.1555158  46.5414086  57.1423846
   5.7659209  46.9691912  57.5641745  13.9441850  45.4204021  61.4167575
  13.9260325  46.2412902  60.9247844  14.8661770  45.2958097  61.6417716
  10.4014904  42.9348151  62.2591083  10.9343241  42.1736439  62.0290391
   9.8728985  42.6421803  63.0015238  13.5684599  28.0408217  57.7884725
  13.2248869  28.9309859  57.7123836  13.9363562  27.8509874  56.9254310
   1.6370450  40.3641747  50.6073327   2.4745672  40.7738756  50.3907035
   1.8148718  39.4241189  50.5773521  13.5334882  38.0316828  46.2957160
  13.0181505  38.8021433  46.5345547  13.2612190  37.3581964  46.9190221
  11.1181993  32.8766529  51.3542398  10.2623589  32.4873379  51.1748037
  11.5308945  32.9558490  50.4942184  12.6481140  30.4112872  55.7533958
  12.1445935  30.3743007  54.9401763  12.9411747  31.3205615  55.8130615
   8.8924026  30.4951602  54.7600140   9.7577022  30.2994410  54.4006029
   8.9601534  30.2661953  55.6869497  18.5069156  40.7849183  48.2310334
  17.7298599  40.4460342  47.7865496  19.1860637  40.7901806  47.5565299
  13.3221185  35.9043920  48.1216941  13.0171321  36.2190069  48.9727084
  14.2751627  35.9825340  48.1644274  11.7667617  42.0634143  49.7709895
  11.2388979  41.3286903  49.4583133  11.2655120  42.8408820  49.5249864
  16.7460463  40.2583164  54.8876941  16.0884137  40.9482425  54.9757070
  17.5500862  40.6479596  55.2310928   6.4986345  32.7253810  52.1316507
   7.0730097  32.5028991  51.3989700   7.0857327  32.7942504  52.8845108
  15.5565922  38.6127537  52.9380883  16.0697804  39.2457528  53.4402593
  16.2067146  38.0128732  52.5724243   6.8255932  34.7558271  46.1512392
   5.9893244  35.0932957  46.4721667   6.6860701  34.6207250  45.2139529
   8.8009012  29.5995059  50.8591576   8.1473425  29.2844076  50.2348191
   8.7589486  28.9770799  51.5851399   9.9120217  39.8814354  42.7744868
   9.0047279  39.6503607  42.9736017  10.4091249  39.0851973  42.9618850
  12.8188296  48.5911861  45.6941554  12.1449995  48.8943558  46.3026512
  13.2054118  49.3940941  45.3447011  12.0346753  36.0876992  55.1839224
  11.1169314  36.3091939  55.0260912  12.4506896  36.1623303  54.3250931
  12.8181800  37.4868408  50.3141904  13.5653619  37.9989805  50.0049026
  13.0873390  37.1652460  51.1746298  11.0908451  39.9826948  47.2968858
  10.1819670  39.6985981  47.3941328  11.1203534  40.4026027  46.4372165
  16.3227718  43.5933538  51.0660026  15.8690045  42.7524448  51.1225216
  15.6921685  44.2294936  51.4034806  15.2660638  34.5225524  52.2960693
  14.5283394  34.0102910  52.6270936  15.5187411  34.0825906  51.4843970
  14.7660657  45.4310035  52.0009844  15.0583632  45.9915092  51.2822210
  15.2759278  45.7238596  52.7563003  15.3672265  27.3001776  52.8902463
  15.6731142  26.4399139  52.6028378  16.0924870  27.8919396  52.6901457
   1.6596621  37.7032463  51.2784061   1.4621021  37.1101823  50.5535127
   1.1043285  37.3984673  51.9959999   9.6393345  37.5955569  53.3978654
   9.6941954  36.6429405  53.3221130   8.8284547  37.7515008  53.8819952
  10.7884538  41.5235692  44.6356937  10.3503968  40.8071551  44.1762574
  11.5294979  41.7511807  44.0742028   7.5785705  36.2132629  51.1569033
   6.7653570  36.5126799  51.5634225   8.0744699  35.8188318  51.8743515
   9.7294282  46.2090386  53.0903297   9.6870461  46.4351232  52.1611829
  10.6456981  45.9753760  53.2389098  13.1759916  36.6774453  59.9883926
  13.5309304  36.9045926  60.8478392  13.8232047  37.0092830  59.3661182
  18.9057653  39.7992889  50.6933255  18.7675552  39.9894485  49.7654445
  18.5493872  40.5612272  51.1501307   7.0699779  33.7850984  56.7730267
   7.7099159  33.6439743  56.0753231   6.2377310  33.4985498  56.3968869
  18.9327033  41.8669416  55.7044527  19.3663539  41.7744705  56.5527581
  19.6458614  41.8426917  55.0664543   7.8460083  43.0853415  52.8865260
   8.6400682  42.5903735  52.6847835   7.1351776  42.5571278  52.5232966
  12.6654928  45.4671510  57.2377628  12.7191950  46.0362447  58.0055343
  11.7969709  45.6373395  56.8731665   4.1542847  37.2296497  48.9625013
   3.2240435  37.1680952  49.1794975   4.2500319  36.7072449  48.1661654
   4.0728396  33.7551309  51.5503254   4.3335213  34.6696643  51.4412415
   4.8945568  33.2875752  51.6999867   5.5453321  35.1689067  58.7202079
   6.2176375  34.9606429  58.0714728   4.7183108  34.9711153  58.2807311
  19.7942582  41.9093117  58.2377412  19.9878472  42.8138927  58.4836687
  19.6943201  41.4500536  59.0715997  11.4478893  31.7951007  60.7367740
  10.8006808  32.4940957  60.6432216  12.2179909  32.2287151  61.1043988
  14.8557691  42.0599860  63.8118293  14.7043197  41.8310411  62.8948377
  14.8462371  43.0170461  63.8249638  11.6243027  39.6331772  58.7964559
  12.5535087  39.7842932  58.6233527  11.2034057  39.7215793  57.9413206
  10.4231359  43.6582437  56.5663097  10.2842445  43.2901221  57.4389035
   9.6345955  44.1730076  56.3947055  11.0179511  48.7591533  47.9088634
  11.1931267  48.2879576  48.7234256  10.3312299  49.3857299  48.1369894
  11.9736574  43.0364039  53.9551935  11.6386407  42.9964809  54.8509585
  11.4740520  42.3708755  53.4822345   5.9480818  38.4431669  59.4804516
   5.8100616  37.7111908  60.0816055   6.8585742  38.3540570  59.1988704
  14.9095766  40.3820074  44.2288994  14.2924937  39.6566902  44.1322047
  14.4412255  41.1429434  43.8856069   8.5763119  38.1551629  58.9688196
   9.2862738  37.5144821  58.9274814   8.5332427  38.4064524  59.8914376
  16.5649898  45.0918982  61.8894775  16.5062444  44.4078202  61.2225358
  16.9669416  45.8337972  61.4375401   7.2892053  35.1416847  60.7883835
   6.7529410  34.6907585  61.4405431   6.7008761  35.2762756  60.0454299
   5.5840597  51.9080896  54.6828494   5.8237195  52.5399420  55.3607512
   4.7409793  51.5568936  54.9693853   6.6994312  34.6005498  43.3510299
   5.8223778  34.4794299  42.9872545   7.1752065  33.8091576  43.0989187
  16.5667305  43.0558566  60.1208755  15.6794084  42.7184488  60.2435153
  17.1365856  42.3241597  60.3577520   3.0231174  34.2772854  57.8736830
   2.9389363  33.6698524  57.1387240   2.2013881  34.7681873  57.8746326
  10.0968458  47.7160018  57.0869998  10.0238630  48.5214990  57.5989302
   9.6545851  47.9151984  56.2618019   9.8858238  46.9531788  50.5972819
   9.1025760  47.4953469  50.6911044  10.5850983  47.4705768  50.9967060
  13.1954888  32.7626418  53.2407025  13.6923588  32.0096380  52.9208095
  12.4241870  32.7990735  52.6750234  21.0484646  38.4666783  54.8825316
  21.0374522  39.3491499  54.5119249  20.1802025  38.1138334  54.6879853
  12.5567142  47.6146852  59.2428156  13.2695114  48.2494317  59.1704058
  12.0657171  47.7110718  58.4268158  14.2784669  41.5198105  50.8145448
  13.3440948  41.6399568  50.6450152  14.4561337  40.6170572  50.5505458
   9.7789857  34.9043801  52.9678709   9.4087644  34.3514841  53.6559615
  10.2748949  34.3001934  52.4153709  17.6657220  37.3615424  51.3495482
  18.1317672  38.1943416  51.2755785  18.1164721  36.8960406  52.0540741
   7.6079055  45.3641296  60.0633727   8.3088515  45.9977779  60.2163121
   7.1374170  45.7056027  59.3029366  15.7333451  43.7059246  48.3481634
  16.0093295  43.5915840  49.2575508  14.8637950  43.3076731  48.3093807
  15.6373883  29.7296011  55.3886384  14.7236963  29.9600238  55.5568590
  16.0666984  29.8134455  56.2400416  15.4080341  37.9185903  57.8886278
  14.7551792  38.1661811  57.2338730  15.7860721  37.1050042  57.5548755
  12.3687515  47.9545597  51.9914448  12.5509910  47.1367252  52.4542200
  13.1920501  48.1713289  51.5539338  12.7029681  46.8813782  49.2529496
  13.2317447  46.3706236  48.6399658  12.9657900  46.5656312  50.1175029
  11.4567914  38.6605714  64.3752315  10.7808551  38.5599844  65.0454690
  12.2795548  38.5044928  64.8388312   3.2046773  44.8977651  56.9964830
   3.7900210  44.1521339  57.1292734   3.0071612  45.2081608  57.8801494
   6.0585429  47.9328898  52.0127272   5.3895804  48.4175026  51.5291312
   5.9198298  48.1798119  52.9270651  10.1990697  49.9672642  58.6109931
  10.7509005  50.1304263  59.3759016  10.5396891  50.5577080  57.9389955
   5.1755191  32.3147792  59.2131815   5.2396517  33.1762623  58.8009213
   5.1122311  31.7021793  58.4804174   4.6507463  34.3870924  62.8604850
   5.2779502  34.0048002  63.4742374   3.7935382  34.1685126  63.2260542
  15.0501572  44.7933899  64.4658585  15.5941476  45.4063858  63.9713540
  14.4688416  45.3513478  64.9825598   1.4273006  36.1947353  48.7923204
   1.7226447  35.2858032  48.7390258   0.5261042  36.1735093  48.4704207
  13.3359085  47.9154617  55.5973613  13.2110224  47.1144357  55.0884558
  13.9938176  48.4100811  55.1087583   4.9567253  34.2703350  54.7750753
   4.2353839  34.8839318  54.6358226   5.7460509  34.8061115  54.6967399
  15.3993993  45.7163638  57.2253163  14.4524328  45.5968989  57.1531490
  15.7476766  44.8286136  57.3079424   7.7593566  31.6057776  61.0491405
   8.2827968  31.8520073  61.8117714   7.5405900  32.4377811  60.6294542
   3.1560847  33.8761451  48.9162530   2.8273554  32.9958830  48.7337635
   3.5100218  33.8209120  49.8038919  12.4040426  45.5116354  53.4257515
  12.2565389  44.5833061  53.6065085  13.2293920  45.5336444  52.9414590
   6.2702671  34.1634421  49.2838007   6.6098743  34.6920342  48.5616616
   6.7174791  34.5014827  50.0596574  16.0074548  46.3344912  54.5122388
  16.9321096  46.1287774  54.3746839  15.8389851  46.0861314  55.4211729
   8.9646111  32.5471472  58.7341075   8.6242932  31.7479285  59.1361755
   8.2585118  32.8473182  58.1617908   9.6162583  29.6320784  57.1868398
  10.4388653  29.1581262  57.0647289   9.8600647  30.4111268  57.6867085
   8.2570818  32.6609042  47.4831300   8.9779180  33.0390295  46.9795017
   7.6336122  33.3797919  47.5866278  12.4001941  33.3654191  48.4189632
  12.6165555  34.2478829  48.1178460  11.9196008  32.9740405  47.6895274
   7.1401162  36.3239905  54.9960377   6.9945743  36.6380208  55.8884658
   6.6626366  36.9424805  54.4431276   8.9997545  33.3142453  55.0441266
   8.9859114  32.4183546  54.7073564   9.7169973  33.3213116  55.6779553
  10.8523676  33.7479793  57.0894394  10.5941453  34.6696863  57.0878724
  10.3208716  33.3510227  57.7794858  15.7969864  46.8530580  49.8684479
  15.9706742  46.2877002  49.1158332  16.2898756  47.6531475  49.6863969
   1.6146824  38.8645249  57.9348038   1.0700292  39.6405057  58.0668312
   2.4926174  39.2116053  57.7767160   8.4034441  32.1956833  50.3128837
   8.5250352  31.2673479  50.5119724   8.1136483  32.2095519  49.4007152
  11.2725631  29.8811743  53.4495556  11.2947328  29.9451076  52.4947536
  11.6893690  29.0416252  53.6436063  21.6509255  39.6167003  51.4874779
  22.0940402  38.8674328  51.0893902  20.7735766  39.6077139  51.1048511
  16.7845037  46.1697344  46.9681378  17.4795941  46.7904037  47.1868692
  17.1268187  45.3192696  47.2433755   2.4012846  37.9915145  60.8278195
   1.6594582  38.1397781  61.4142825   2.0805590  38.2523411  59.9644944
  18.6836460  43.6197050  48.4968708  19.2087784  43.9584323  47.7718028
  18.5958812  42.6844065  48.3131843  10.3456509  47.5331123  60.6258585
  10.6543635  47.2880270  61.4981285  11.1431991  47.7377762  60.1377455
  10.3677121  49.6869033  52.8563962   9.9282111  49.1945412  53.5496818
  11.1185238  49.1442001  52.6156037   2.8469460  45.8780574  52.8588590
   3.6727480  45.5784346  52.4787233   2.4963512  45.1088196  53.3078378
   7.8150993  45.2307042  54.9286263   7.1931002  44.5677747  54.6288491
   8.4855860  45.2568174  54.2459911   7.8875520  33.7088830  64.5218769
   7.9363676  34.5850953  64.1396539   8.4298035  33.1666223  63.9490412
  18.3730366  44.2529953  63.8019906  17.5825910  44.2354092  63.2624406
  18.1363721  44.7918247  64.5568943  18.4928241  41.1022420  61.1152635
  18.5426246  40.9372427  62.0568158  18.3842164  40.2349679  60.7250516
   7.3764500  43.7810966  48.4044724   7.5252620  44.4646430  47.7511396
   8.1830943  43.7616056  48.9194179  15.7832003  37.0853348  62.4311942
  16.6841866  36.9459813  62.1395939  15.8579978  37.2507803  63.3710119
  10.1174809  34.4620203  61.2765128   9.2478118  34.7553769  61.0047716
  10.3534289  35.0460648  61.9972392  19.9946438  43.5219361  61.3594656
  19.7031246  43.8849342  62.1958117  19.3818569  42.8086370  61.1807988
  21.1942120  41.0872241  53.8797227  22.0289012  41.5262045  54.0434787
  21.3301249  40.6110894  53.0605472  18.2433626  38.6451976  59.8274714
  18.7187748  38.8379622  59.0193566  17.3199191  38.7011162  59.5818098
   5.1317133  39.8076143  49.4105793   4.8863175  38.9038473  49.6086003
   5.3013047  39.8093294  48.4685271  12.8213843  30.6799820  58.7930548
  13.3395786  31.4160846  58.4677037  12.4668975  30.9863813  59.6277307
   4.4012780  35.5404501  46.9091954   3.7082025  35.6148856  46.2531990
   4.1564532  34.7764844  47.4313471  13.0726437  27.1000102  54.3131445
  13.3528191  26.4323291  54.9391871  13.8577044  27.2929198  53.8006109
  10.8759905  46.2759096  45.8756471  10.3033872  46.8949283  45.4226943
  11.4492699  46.8258458  46.4096393  16.9435295  35.5217736  58.0603020
  17.8952718  35.6215834  58.0815244  16.7738746  34.7296005  58.5701104
  14.9649675  32.6073319  58.2462421  14.3699607  32.8878332  57.5508910
  14.6799371  33.0967220  59.0179162  14.0957165  46.5596246  47.0065053
  15.0287838  46.4941808  47.2097929  14.0080378  47.3952513  46.5479586
  16.7245182  45.8762116  43.9669001  16.6458813  45.5421980  44.8604759
  17.5454848  46.3683884  43.9660473  19.4223373  38.7423856  57.1745320
  19.3899693  37.8039856  57.3605003  20.0323997  38.8207892  56.4411145
  11.2606704  37.6119909  43.2172524  12.2065808  37.4826117  43.2860942
  10.8820949  36.8734571  43.6941952  19.5717861  35.5334899  57.2203603
  19.0556910  34.7493356  57.0333532  20.4557810  35.2053616  57.3850122
  17.2328588  29.2775915  53.1799415  17.0353409  28.9691003  54.0642747
  17.8428294  30.0037554  53.3097345  25.2399923  39.8039863  56.3151356
  25.9703311  39.5425151  56.8759060  24.6306868  39.0668585  56.3553424
  23.3215220  37.9447725  56.9125808  22.5948383  37.8103690  56.3042299
  22.9062507  38.2524554  57.7182526  11.1445396  41.6637655  64.6773181
  12.0648406  41.8416254  64.8713227  11.1094979  40.7193700  64.5252880
   9.4449621  35.5369885  43.1527409   8.5381076  35.2402998  43.2290122
   9.7225602  35.2399703  42.2861695   4.1407469  39.5738690  57.3195962
   4.3593479  40.5055797  57.3383996   4.5533243  39.2146664  58.1050766
  11.0611687  30.0806775  49.3071650  10.2512415  29.7353860  49.6826896
  11.7496104  29.7714319  49.8959262  12.9902235  29.1584822  50.9295947
  13.5433274  29.5780275  51.5885970  13.2272321  28.2320570  50.9718903
   9.0135334  35.1471895  66.7098711   8.9132061  36.0966252  66.6410802
   8.7956876  34.8190134  65.8374781   8.2148406  32.3956820  43.2939388
   9.0767570  32.7211719  43.5535205   8.3998750  31.6088316  42.7812454
  16.3681042  31.2685347  50.4374611  15.7879711  31.9270151  50.0552663
  16.1016975  30.4462691  50.0262029  14.8184608  30.6690405  52.6395931
  15.3184387  30.7806939  51.8310250  15.4620216  30.3651457  53.2796740
   8.8766604  38.5769034  65.5263772   8.3933686  39.3769394  65.7327661
   8.9627543  38.5876979  64.5731216   2.1452564  40.4097414  53.4485592
   2.1223252  40.5085101  52.4967475   2.4553200  41.2562565  53.7702758
   4.8039942  42.4673569  57.5632206   5.7583195  42.4357511  57.4962138
   4.6052465  42.0064193  58.3782432   5.3939324  41.0374685  60.1303004
   6.2132213  41.5318764  60.1537841   5.6676132  40.1206653  60.1020571
  15.1505920  33.4285437  49.4930959  14.2631775  33.7135088  49.2751154
  15.5659909  33.2679201  48.6458236  18.5020456  33.4531958  53.2085299
  19.2780846  33.9428411  53.4809915  17.7768590  33.8790012  53.6657168
  20.9393015  34.1659577  54.2659239  21.5337506  33.9255313  53.5552547
  21.0119598  33.4466708  54.8932776   3.1590170  48.0093188  54.5802404
   3.0244638  47.2493589  54.0140402   2.7422233  48.7334088  54.1131193
  14.2949133  43.1930112  43.5878979  14.9984984  43.3980114  44.2036635
  13.5711782  43.7606874  43.8528063  15.1246944  38.9439973  49.7081249
  15.0682145  39.4008525  48.8688882  15.6775286  38.1830658  49.5304092
  18.9351750  34.7329705  50.5331369  18.6788684  34.3326341  51.3639577
  18.3104618  35.4473499  50.4081508  23.2464088  37.4725778  53.0402660
  22.6863646  37.5418968  53.8134222  22.6407591  37.2966763  52.3202157
   6.3159296  48.9062505  54.7920847   6.1991680  49.8507938  54.6899537
   5.4951743  48.6036067  55.1806646  16.2035831  43.6312641  45.6377439
  17.0381435  43.1993840  45.4554914  16.0420174  43.4594655  46.5654334
  15.8581723  40.1344754  47.0033779  15.8030527  39.9689026  46.0622223
  15.2327778  40.8420787  47.1595968  13.1727630  42.4393666  66.3287341
  14.0418790  42.6134319  65.9673976  12.6934382  43.2588083  66.2063071
   9.1677849  29.6352863  46.5819097   9.1556518  30.5794703  46.7387368
  10.0601270  29.4523009  46.2878558   7.3413810  49.5590767  58.0076775
   8.2441057  49.5914378  58.3243270   7.1151181  48.6291218  58.0223111
   9.0967412  48.3121754  54.6686854   8.1463044  48.3123615  54.5551226
   9.3999899  47.5654488  54.1522888  12.9829968  26.2295640  50.8365034
  12.2162364  25.6754127  50.9821716  13.3940673  26.3017509  51.6979186
   4.9871729  32.5180436  64.9270215   5.8503191  32.1617241  65.1373540
   4.4137140  32.1794331  65.6145619  24.8320106  54.1482292  55.7332616
  25.4698516  54.0289040  55.0295956  24.7140949  55.0963136  55.7920568
  21.6409812  54.1009720  55.6694141  21.3028324  53.9850785  54.7814676
  22.5099580  53.7000885  55.6495147  17.4996628  55.9545197  51.6591032
  16.9361493  55.8635134  50.8907320  17.3849023  55.1345101  52.1393524
  22.1229595  55.2544572  61.6280346  22.1118236  54.8597370  60.7560850
  22.2850235  54.5210645  62.2214118  15.0461060  57.4496388  54.4975252
  15.8382352  57.1087213  54.0821552  15.2857710  57.5591363  55.4177406
  23.0796187  59.6216164  46.9705497  22.4284166  60.2070245  46.5839510
  23.8740549  60.1522359  47.0300534  17.0051814  56.7105302  47.3692631
  17.7782690  56.1634289  47.2305507  17.3577213  57.5749551  47.5807092
  18.8436856  58.0381684  60.5759530  18.5526722  58.9427315  60.4606197
  19.4793841  58.0798211  61.2903600  19.7693063  55.4158532  57.1660890
  20.3656635  55.1914555  56.4517853  19.8268035  54.6743278  57.7686338
  19.3418092  52.8697968  45.0011081  19.5943612  52.3479489  44.2394544
  18.4042651  52.7064113  45.1037765  24.3861374  51.8733746  52.8085824
  25.1724464  51.4553169  52.4576241  24.6500079  52.7779838  52.9767473
  24.5571452  57.3106596  47.5074481  23.9217285  57.3841223  48.2195386
  24.2268858  57.9000195  46.8293560  19.0614380  54.7726074  47.2035456
  18.9450638  54.0970977  47.8716540  19.1716640  54.2858448  46.3867609
  21.4045921  54.2336221  50.9082145  21.0404129  53.7066842  51.6195067
  22.2613037  53.8434690  50.7348631  21.0451408  49.2626120  45.9043494
  21.2125811  50.1306357  46.2713965  20.8548577  49.4253402  44.9804783
  23.8026741  57.7243099  57.5709324  23.5027465  58.6268138  57.4625131
  23.4577801  57.4575283  58.4230477  17.2539223  54.1756896  53.6046028
  16.3289719  54.0433110  53.8123720  17.5023636  54.9551115  54.1015971
  21.0240629  51.7183778  46.8890160  20.9040254  52.1640829  47.7275641
  20.3293218  52.0669096  46.3303699  14.6148034  53.8190170  54.4389818
  14.7440415  54.0724649  55.3529229  13.9345485  54.4117878  54.1194473
  18.7847521  64.4887420  50.5380292  18.7071551  65.4395245  50.6168772
  18.1809165  64.1433292  51.1955218  21.2764751  51.6615285  63.1941659
  20.4998085  52.2209205  63.1844523  21.9155314  52.1472068  63.7156529
  26.7225695  52.1905251  47.7170495  27.6343551  52.4232638  47.5418192
  26.2135342  52.7742295  47.1545573  19.5311123  54.4700738  62.7559626
  20.2725808  55.0085782  62.4794449  18.8248109  55.0967027  62.9131177
  25.0066463  56.6129879  61.3531787  25.4149819  56.1712289  60.6086419
  24.2843724  56.0382506  61.6065980  21.3597533  51.5502486  58.7265344
  22.2058728  51.9741899  58.8699993  21.2996171  50.8936110  59.4203907
  25.3295278  57.1731070  55.1084076  24.7004140  57.3376784  54.4060144
  24.9420940  57.5872679  55.8795040  24.5096978  49.2106854  60.3846518
  24.2657910  49.9648915  59.8480793  24.7856909  49.5892202  61.2193765
  24.0661670  48.3663287  55.9660355  23.2046149  48.6644541  56.2577093
  24.0924105  48.5833686  55.0341388  20.8823240  56.9105478  52.3734161
  21.3461585  57.1893181  51.5838784  20.6180038  56.0088922  52.1907252
  17.7747321  56.4576959  55.3113924  18.3448678  56.8864228  54.6731409
  18.3655432  56.1759544  56.0098110  19.8192126  53.0328630  49.1823726
  20.5216169  53.4849674  49.6497653  19.4872754  52.3912449  49.8103619
  18.2672487  51.6240387  63.5574936  17.6371148  52.3056667  63.7910332
  18.1608575  51.5123468  62.6128074  13.5617460  51.2912183  54.4840860
  12.7716514  51.5469711  54.0080970  14.0528707  52.1060521  54.5892900
  15.5132205  51.6556762  51.4424336  14.7163368  51.7675456  51.9607832
  15.2857797  51.9943414  50.5765227  21.3437873  58.1801465  59.3906851
  21.4082305  58.6421872  60.2265023  20.6348796  57.5498830  59.5189161
  11.8455163  51.5442673  56.9155851  12.0963201  52.4289683  57.1813427
  12.3814711  51.3647275  56.1430942  21.0585890  59.8469573  49.2585831
  20.9231565  60.6921108  49.6870679  21.5995703  60.0488850  48.4951765
  17.5453230  45.9261152  65.9200187  17.1520175  45.3727351  66.5947831
  18.3619370  46.2371731  66.3106704  14.5115288  57.3645011  49.8313757
  15.0239808  58.1588261  49.9819321  15.1638000  56.6671301  49.7647358
  16.3210172  60.4810767  51.9136510  16.4976801  61.4028732  51.7257494
  17.1167006  60.1669186  52.3430890  20.4621191  47.3419032  63.5120443
  21.2030904  47.9426185  63.4324906  20.6939114  46.5996669  62.9538486
  15.6062529  52.5275399  61.7898673  15.4916044  51.6260656  62.0905772
  14.7507047  52.7739096  61.4383489  22.6854367  60.4693139  63.3886174
  22.2418221  59.6829518  63.0707078  23.3471580  60.6572290  62.7230064
  17.4441488  61.9988941  57.9146852  17.9948913  61.8706004  57.1423846
  16.6052964  62.2983830  57.5641745  24.7835605  60.7495939  61.4167575
  24.7654080  61.5704820  60.9247844  25.7055525  60.6250014  61.6417716
  21.2408659  58.2640069  62.2591083  21.7736996  57.5028357  62.0290391
  20.7122740  57.9713720  63.0015238  24.4078354  43.3700135  57.7884725
  24.0642623  44.2601776  57.7123836  24.7757316  43.1801792  56.9254310
  12.4764204  55.6933665  50.6073327  13.3139426  56.1030673  50.3907035
  12.6542472  54.7533107  50.5773521  24.3728636  53.3608746  46.2957160
  23.8575260  54.1313350  46.5345547  24.1005945  52.6873882  46.9190221
  21.9575748  48.2058446  51.3542398  21.1017344  47.8165297  51.1748037
  22.3702699  48.2850407  50.4942184  23.4874894  45.7404790  55.7533958
  22.9839690  45.7034925  54.9401763  23.7805501  46.6497532  55.8130615
  19.7317780  45.8243519  54.7600140  20.5970777  45.6286328  54.4006029
  19.7995289  45.5953871  55.6869497  29.3462911  56.1141100  48.2310334
  28.5692353  55.7752260  47.7865496  30.0254392  56.1193723  47.5565299
  24.1614940  51.2335838  48.1216941  23.8565075  51.5481987  48.9727084
  25.1145382  51.3117258  48.1644274  22.6061372  57.3926061  49.7709895
  22.0782733  56.6578821  49.4583133  22.1048874  58.1700737  49.5249864
  17.3380099  48.0545727  52.1316507  17.9123851  47.8320909  51.3989700
  17.9251082  48.1234422  52.8845108  26.3959676  53.9419454  52.9380883
  26.9091558  54.5749446  53.4402593  27.0460900  53.3420650  52.5724243
  17.6649686  50.0850188  46.1512392  16.8286998  50.4224875  46.4721667
  17.5254456  49.9499168  45.2139529  19.6402767  44.9286976  50.8591576
  18.9867179  44.6135993  50.2348191  19.5983241  44.3062717  51.5851399
  20.7513972  55.2106271  42.7744868  19.8441033  54.9795525  42.9736017
  21.2485004  54.4143891  42.9618850  23.6582051  63.9203778  45.6941554
  22.9843749  64.2235475  46.3026512  24.0447873  64.7232859  45.3447011
  22.8740507  51.4168910  55.1839224  21.9563069  51.6383857  55.0260912
  23.2900651  51.4915220  54.3250931  23.6575555  52.8160325  50.3141904
  24.4047374  53.3281723  50.0049026  23.9267144  52.4944378  51.1746298
  21.9302205  55.3118866  47.2968858  21.0213424  55.0277899  47.3941328
  21.9597289  55.7317945  46.4372165  27.1621473  58.9225456  51.0660026
  26.7083800  58.0816366  51.1225216  26.5315439  59.5586854  51.4034806
  26.1054392  49.8517442  52.2960693  25.3677149  49.3394828  52.6270936
  26.3581166  49.4117823  51.4843970  25.6054412  60.7601952  52.0009844
  25.8977386  61.3207009  51.2822210  26.1153032  61.0530513  52.7563003
  26.2066019  42.6293694  52.8902463  26.5124896  41.7691057  52.6028378
  26.9318624  43.2211314  52.6901457  12.4990375  53.0324380  51.2784061
  12.3014775  52.4393741  50.5535127  11.9437039  52.7276590  51.9959999
  20.4787099  52.9247487  53.3978654  20.5335709  51.9721323  53.3221130
  19.6678301  53.0806926  53.8819952  21.6278293  56.8527610  44.6356937
  21.1897723  56.1363469  44.1762574  22.3688734  57.0803725  44.0742028
  18.4179459  51.5424547  51.1569033  17.6047325  51.8418717  51.5634225
  18.9138453  51.1480235  51.8743515  20.5688037  61.5382303  53.0903297
  20.5264216  61.7643150  52.1611829  21.4850736  61.3045678  53.2389098
  24.0153671  52.0066371  59.9883926  24.3703058  52.2337844  60.8478392
  24.6625802  52.3384748  59.3661182  17.9093534  49.1142902  56.7730267
  18.5492913  48.9731661  56.0753231  17.0771064  48.8277415  56.3968869
  18.6853838  58.4145332  52.8865260  19.4794436  57.9195653  52.6847835
  17.9745530  57.8863196  52.5232966  23.5048682  60.7963428  57.2377628
  23.5585704  61.3654364  58.0055343  22.6363464  60.9665313  56.8731665
  14.9936601  52.5588414  48.9625013  14.0634189  52.4972870  49.1794975
  15.0894073  52.0364367  48.1661654  14.9122150  49.0843227  51.5503254
  15.1728968  49.9988560  51.4412415  15.7339323  48.6167670  51.6999867
  16.3847076  50.4980984  58.7202079  17.0570129  50.2898346  58.0714728
  15.5576862  50.3003070  58.2807311  22.2872648  47.1242925  60.7367740
  21.6400563  47.8232875  60.6432216  23.0573663  47.5579069  61.1043988
  25.6951446  57.3891777  63.8118293  25.5436952  57.1602329  62.8948377
  25.6856125  58.3462379  63.8249638  22.4636782  54.9623690  58.7964559
  23.3928842  55.1134850  58.6233527  22.0427812  55.0507711  57.9413206
  21.2625114  58.9874354  56.5663097  21.1236199  58.6193139  57.4389035
  20.4739710  59.5021994  56.3947055  21.8573266  64.0883451  47.9088634
  22.0325021  63.6171494  48.7234256  21.1706054  64.7149217  48.1369894
  22.8130329  58.3655957  53.9551935  22.4780161  58.3256727  54.8509585
  22.3134275  57.7000673  53.4822345  16.7874573  53.7723587  59.4804516
  16.6494371  53.0403826  60.0816055  17.6979496  53.6832487  59.1988704
  25.7489521  55.7111991  44.2288994  25.1318691  54.9858820  44.1322047
  25.2806009  56.4721352  43.8856069  19.4156874  53.4843546  58.9688196
  20.1256492  52.8436739  58.9274814  19.3726182  53.7356441  59.8914376
  18.1285807  50.4708764  60.7883835  17.5923165  50.0199503  61.4405431
  17.5402516  50.6054673  60.0454299  16.4234351  67.2372814  54.6828494
  16.6630949  67.8691338  55.3607512  15.5803547  66.8860854  54.9693853
  17.5388066  49.9297416  43.3510299  16.6617533  49.8086217  42.9872545
  18.0145820  49.1383494  43.0989187   9.0590207  54.7174576  53.4451806
   9.7461246  54.4036306  52.8572821   8.9038335  55.6215940  53.1719057
  13.8624929  49.6064772  57.8736830  13.7783117  48.9990442  57.1387240
  13.0407635  50.0973790  57.8746326  20.9362213  63.0451936  57.0869998
  20.8632384  63.8506908  57.5989302  20.4939606  63.2443902  56.2618019
  20.7251992  62.2823706  50.5972819  19.9419514  62.8245386  50.6911044
  21.4244738  62.7997686  50.9967060  24.0348643  48.0918336  53.2407025
  24.5317342  47.3388298  52.9208095  23.2635624  48.1282652  52.6750234
  23.3960896  62.9438770  59.2428156  24.1088869  63.5786235  59.1704058
  22.9050925  63.0402636  58.4268158  25.1178423  56.8490023  50.8145448
  24.1834702  56.9691485  50.6450152  25.2955092  55.9462490  50.5505458
  20.6183611  50.2335719  52.9678709  20.2481399  49.6806759  53.6559615
  21.1142704  49.6293852  52.4153709  18.4472810  60.6933214  60.0633727
  19.1482269  61.3269697  60.2163121  17.9767925  61.0347945  59.3029366
  26.5727206  59.0351163  48.3481634  26.8487050  58.9207758  49.2575508
  25.7031704  58.6368648  48.3093807  23.2081270  63.2837514  51.9914448
  23.3903664  62.4659170  52.4542200  24.0314256  63.5005206  51.5539338
  23.5423435  62.2105699  49.2529496  24.0711202  61.6998154  48.6399658
  23.8051655  61.8948230  50.1175029  22.2961669  53.9897632  64.3752315
  21.6202306  53.8891761  65.0454690  23.1189303  53.8336846  64.8388312
  14.0440528  60.2269569  56.9964830  14.6293965  59.4813257  57.1292734
  13.8465366  60.5373525  57.8801494  16.8979183  63.2620816  52.0127272
  16.2289558  63.7466944  51.5291312  16.7592053  63.5090036  52.9270651
   8.6358183  52.7975169  55.7169273   8.6742282  52.2638760  56.5106391
   8.1298476  52.2710374  55.0980250  21.0384452  65.2964560  58.6109931
  21.5902760  65.4596181  59.3759016  21.3790645  65.8868997  57.9389955
  16.0148945  47.6439709  59.2131815  16.0790271  48.5054540  58.8009213
  15.9516065  47.0313711  58.4804174  15.4901218  49.7162842  62.8604850
  16.1173256  49.3339919  63.4742374  14.6329136  49.4977044  63.2260542
  25.8895326  60.1225817  64.4658585  26.4335230  60.7355775  63.9713540
  25.3082171  60.6805395  64.9825598  12.2666760  51.5239271  48.7923204
  12.5620201  50.6149949  48.7390258  11.3654796  51.5027010  48.4704207
  24.1752839  63.2446535  55.5973613  24.0503979  62.4436275  55.0884558
  24.8331930  63.7392728  55.1087583  15.7961007  49.5995268  54.7750753
  15.0747593  50.2131235  54.6358226  16.5854263  50.1353032  54.6967399
  26.2387747  61.0455555  57.2253163  25.2918083  60.9260906  57.1531490
  26.5870521  60.1578053  57.3079424  18.5987321  46.9349694  61.0491405
  19.1221723  47.1811991  61.8117714  18.3799654  47.7669729  60.6294542
  13.9954602  49.2053369  48.9162530  13.6667308  48.3250748  48.7337635
  14.3493973  49.1501037  49.8038919  23.2434181  60.8408271  53.4257515
  23.0959143  59.9124979  53.6065085  24.0687674  60.8628362  52.9414590
  17.1096425  49.4926338  49.2838007  17.4492498  50.0212260  48.5616616
  17.5568546  49.8306745  50.0596574  26.8468303  61.6636830  54.5122388
  27.7714850  61.4579691  54.3746839  26.6783606  61.4153231  55.4211729
  19.8039866  47.8763389  58.7341075  19.4636686  47.0771202  59.1361755
  19.0978872  48.1765100  58.1617908  20.4556338  44.9612702  57.1868398
  21.2782407  44.4873180  57.0647289  20.6994401  45.7403185  57.6867085
  19.0964572  47.9900960  47.4831300  19.8172935  48.3682213  46.9795017
  18.4729876  48.7089837  47.5866278  23.2395695  48.6946109  48.4189632
  23.4559309  49.5770747  48.1178460  22.7589762  48.3032322  47.6895274
  17.9794916  51.6531822  54.9960377  17.8339497  51.9672125  55.8884658
  17.5020120  52.2716723  54.4431276  19.8391299  48.6434370  55.0441266
  19.8252868  47.7475464  54.7073564  20.5563727  48.6505034  55.6779553
  21.6917430  49.0771710  57.0894394  21.4335208  49.9988781  57.0878724
  21.1602470  48.6802145  57.7794858  26.6363619  62.1822498  49.8684479
  26.8100496  61.6168920  49.1158332  27.1292510  62.9823392  49.6863969
  12.4540579  54.1937167  57.9348038  11.9094047  54.9696975  58.0668312
  13.3319928  54.5407971  57.7767160  19.2428195  47.5248751  50.3128837
  19.3644106  46.5965397  50.5119724  18.9530238  47.5387436  49.4007152
  22.1119386  45.2103661  53.4495556  22.1341082  45.2742994  52.4947536
  22.5287445  44.3708170  53.6436063  27.6238791  61.4989262  46.9681378
  28.3189696  62.1195955  47.1868692  27.9661941  60.6484613  47.2433755
  13.2406600  53.3207063  60.8278195  12.4988336  53.4689698  61.4142825
  12.9199345  53.5815329  59.9644944  29.5230214  58.9488968  48.4968708
  30.0481538  59.2876240  47.7718028  29.4352567  58.0135983  48.3131843
  21.1850263  62.8623041  60.6258585  21.4937390  62.6172188  61.4981285
  21.9825745  63.0669680  60.1377455  21.2070875  65.0160951  52.8563962
  20.7675865  64.5237329  53.5496818  21.9578992  64.4733918  52.6156037
  13.6863214  61.2072492  52.8588590  14.5121234  60.9076264  52.4787233
  13.3357266  60.4380114  53.3078378  18.6544747  60.5598960  54.9286263
  18.0324757  59.8969665  54.6288491  19.3249614  60.5860092  54.2459911
  11.8871819  59.1258818  53.8177523  11.0503727  58.6980992  53.6361524
  11.8595465  59.3191261  54.7548314  18.7269275  49.0380748  64.5218769
  18.7757430  49.9142871  64.1396539  19.2691789  48.4958141  63.9490412
  18.2158254  59.1102883  48.4044724  18.3646375  59.7938348  47.7511396
  19.0224698  59.0907973  48.9194179  20.9568563  49.7912120  61.2765128
  20.0871873  50.0845686  61.0047716  21.1928044  50.3752565  61.9972392
  15.9710887  55.1368061  49.4105793  15.7256929  54.2330391  49.6086003
  16.1406802  55.1385211  48.4685271  23.6607597  46.0091737  58.7930548
  24.1789541  46.7452764  58.4677037  23.3062730  46.3155731  59.6277307
  15.2406535  50.8696418  46.9091954  14.5475780  50.9440773  46.2531990
  14.9958287  50.1056762  47.4313471  23.9120191  42.4292020  54.3131445
  24.1921945  41.7615209  54.9391871  24.6970798  42.6221115  53.8006109
  21.7153660  61.6051014  45.8756471  21.1427627  62.2241201  45.4226943
  22.2886453  62.1550375  46.4096393  24.9350920  61.8888164  47.0065053
  25.8681593  61.8233725  47.2097929  24.8474132  62.7244431  46.5479586
  27.5638936  61.2054034  43.9669001  27.4852568  60.8713898  44.8604759
  28.3848603  61.6975802  43.9660473  22.1000458  52.9411826  43.2172524
  23.0459563  52.8118035  43.2860942  21.7214703  52.2026488  43.6941952
  28.0722343  44.6067832  53.1799415  27.8747164  44.2982921  54.0642747
  28.6822048  45.3329471  53.3097345  21.9839151  56.9929573  64.6773181
  22.9042160  57.1708172  64.8713227  21.9488734  56.0485618  64.5252880
  20.2843375  50.8661803  43.1527409  19.3774831  50.5694916  43.2290122
  20.5619356  50.5691621  42.2861695  11.2021316  52.1868166  53.6026455
  10.8824100  51.3333474  53.3100829  10.6554744  52.4016744  54.3584423
  14.9801223  54.9030607  57.3195962  15.1987233  55.8347715  57.3383996
  15.3926997  54.5438582  58.1050766  21.9005441  45.4098693  49.3071650
  21.0906169  45.0645777  49.6826896  22.5889858  45.1006236  49.8959262
  23.8295989  44.4876739  50.9295947  24.3827028  44.9072193  51.5885970
  24.0666076  43.5612487  50.9718903  19.8529089  50.4763813  66.7098711
  19.7525816  51.4258170  66.6410802  19.6350631  50.1482052  65.8374781
  19.0542160  47.7248738  43.2939388  19.9161324  48.0503636  43.5535205
  19.2392504  46.9380234  42.7812454  11.0709576  55.8071078  55.5719577
  10.3773047  55.3925030  55.0589531  11.8182567  55.8491614  54.9752996
  27.2074796  46.5977264  50.4374611  26.6273466  47.2562069  50.0552663
  26.9410729  45.7754609  50.0262029  25.6578363  45.9982322  52.6395931
  26.1578141  46.1098857  51.8310250  26.3013971  45.6943375  53.2796740
  19.7160359  53.9060952  65.5263772  19.2327440  54.7061312  65.7327661
  19.8021298  53.9168897  64.5731216  12.9846318  55.7389331  53.4485592
  12.9617006  55.8377019  52.4967475  13.2946955  56.5854482  53.7702758
  15.6433696  57.7965487  57.5632206  16.5976950  57.7649429  57.4962138
  15.4446220  57.3356110  58.3782432  16.2333078  56.3666603  60.1303004
  17.0525967  56.8610681  60.1537841  16.5069886  55.4498571  60.1020571
  25.9899675  48.7577355  49.4930959  25.1025530  49.0427005  49.2751154
  26.4053664  48.5971118  48.6458236  13.9983925  63.3385106  54.5802404
  13.8638393  62.5785507  54.0140402  13.5815987  64.0626006  54.1131193
  25.1342888  58.5222030  43.5878979  25.8378738  58.7272032  44.2036635
  24.4105537  59.0898791  43.8528063  25.9640698  54.2731891  49.7081249
  25.9075900  54.7300442  48.8688882  26.5169041  53.5122575  49.5304092
  17.1553051  64.2354423  54.7920847  17.0385435  65.1799856  54.6899537
  16.3345497  63.9327985  55.1806646  27.0429585  58.9604559  45.6377439
  27.8775189  58.5285757  45.4554914  26.8813928  58.7886572  46.5654334
  26.6975478  55.4636672  47.0033779  26.6424281  55.2980943  46.0622223
  26.0721533  56.1712705  47.1595968  11.4867993  50.7004736  60.8295201
  12.1326856  50.1903690  61.3182426  11.2785144  51.4373418  61.4038626
  24.0121385  57.7685584  66.3287341  24.8812544  57.9426236  65.9673976
  23.5328136  58.5880001  66.2063071  20.0071603  44.9644781  46.5819097
  19.9950273  45.9086621  46.7387368  20.8995025  44.7814926  46.2878558
  18.1807565  64.8882685  58.0076775  19.0834812  64.9206295  58.3243270
  17.9544935  63.9583136  58.0223111  19.9361167  63.6413671  54.6686854
  18.9856798  63.6415533  54.5551226  20.2393653  62.8946406  54.1522888
  23.8223722  41.5587558  50.8365034  23.0556118  41.0046044  50.9821716
  24.2334427  41.6309426  51.6979186  15.8265484  47.8472353  64.9270215
  16.6896945  47.4909158  65.1373540  15.2530894  47.5086248  65.6145619
  32.4803567  69.4301638  55.6694141  32.1422078  69.3142703  54.7814676
  33.3493335  69.0292803  55.6495147  28.3390382  71.2837114  51.6591032
  27.7755248  71.1927051  50.8907320  28.2242777  70.4637019  52.1393524
  32.9623350  70.5836490  61.6280346  32.9511991  70.1889288  60.7560850
  33.1243989  69.8502562  62.2214118  25.8854814  72.7788306  54.4975252
  26.6776106  72.4379131  54.0821552  26.1251465  72.8883281  55.4177406
  33.9189941  74.9508082  46.9705497  33.2677921  75.5362162  46.5839510
  34.7134304  75.4814277  47.0300534  27.8445568  72.0397219  47.3692631
  28.6176444  71.4926206  47.2305507  28.1970967  72.9041469  47.5807092
  29.6830611  73.3673601  60.5759530  29.3920477  74.2719232  60.4606197
  30.3187595  73.4090129  61.2903600  30.6086818  70.7450450  57.1660890
  31.2050390  70.5206472  56.4517853  30.6661789  70.0035195  57.7686338
  30.1811846  68.1989885  45.0011081  30.4337367  67.6771407  44.2394544
  29.2436405  68.0356031  45.1037765  35.3965206  72.6398514  47.5074481
  34.7611039  72.7133141  48.2195386  35.0662613  73.2292113  46.8293560
  29.9008135  70.1017991  47.2035456  29.7844393  69.4262895  47.8716540
  30.0110395  69.6150365  46.3867609  32.2439676  69.5628138  50.9082145
  31.8797883  69.0358759  51.6195067  33.1006792  69.1726607  50.7348631
  31.8845163  64.5918038  45.9043494  32.0519565  65.4598275  46.2713965
  31.6942332  64.7545320  44.9804783  28.0932977  69.5048814  53.6046028
  27.1683474  69.3725028  53.8123720  28.3417391  70.2843033  54.1015971
  38.0417640  65.5717557  55.2506761  37.1334517  65.5032966  54.9565522
  37.9905236  66.0489502  56.0788587  31.8634384  67.0475696  46.8890160
  31.7434009  67.4932746  47.7275641  31.1686972  67.3961013  46.3303699
  25.4541788  69.1482087  54.4389818  25.5834170  69.4016566  55.3529229
  24.7739240  69.7409795  54.1194473  29.6241276  79.8179337  50.5380292
  29.5465305  80.7687162  50.6168772  29.0202919  79.4725210  51.1955218
  30.3704878  69.7992656  62.7559626  31.1119562  70.3377700  62.4794449
  29.6641863  70.4258945  62.9131177  32.1991288  66.8794403  58.7265344
  33.0452483  67.3033817  58.8699993  32.1389925  66.2228028  59.4203907
  31.7216994  72.2397395  52.3734161  32.1855340  72.5185098  51.5838784
  31.4573792  71.3380840  52.1907252  28.6141075  71.7868877  55.3113924
  29.1842432  72.2156145  54.6731409  29.2049187  71.5051462  56.0098110
  30.6585880  68.3620548  49.1823726  31.3609923  68.8141591  49.6497653
  30.3266509  67.7204367  49.8103619  24.4011214  66.6204100  54.4840860
  23.6110268  66.8761629  54.0080970  24.8922461  67.4352438  54.5892900
  26.3525959  66.9848680  51.4424336  25.5557123  67.0967374  51.9607832
  26.1251552  67.3235332  50.5765227  32.1831627  73.5093383  59.3906851
  32.2476060  73.9713790  60.2265023  31.4742551  72.8790748  59.5189161
  22.6848917  66.8734591  56.9155851  22.9356955  67.7581601  57.1813427
  23.2208465  66.6939192  56.1430942  31.8979645  75.1761490  49.2585831
  31.7625319  76.0213026  49.6870679  32.4389457  75.3780768  48.4951765
  25.3509042  72.6936928  49.8313757  25.8633563  73.4880179  49.9819321
  26.0031755  71.9963219  49.7647358  27.1603927  75.8102685  51.9136510
  27.3370555  76.7320649  51.7257494  27.9560760  75.4961104  52.3430890
  26.4456283  67.8567317  61.7898673  26.3309798  66.9552574  62.0905772
  25.5900801  68.1031013  61.4383489  33.5248121  75.7985057  63.3886174
  33.0811975  75.0121435  63.0707078  34.1865335  75.9864207  62.7230064
  28.2835242  77.3280858  57.9146852  28.8342667  77.1997922  57.1423846
  27.4446718  77.6275747  57.5641745  32.0802413  73.5931986  62.2591083
  32.6130750  72.8320274  62.0290391  31.5516494  73.3005638  63.0015238
  23.3157959  71.0225583  50.6073327  24.1533181  71.4322591  50.3907035
  23.4936227  70.0825025  50.5773521  35.2122391  68.6900663  46.2957160
  34.6969014  69.4605268  46.5345547  34.9399699  68.0165799  46.9190221
  32.7969502  63.5350364  51.3542398  31.9411098  63.1457214  51.1748037
  33.2096454  63.6142325  50.4942184  35.0008694  66.5627755  48.1216941
  34.6958830  66.8773905  48.9727084  35.9539136  66.6409175  48.1644274
  33.4455126  72.7217979  49.7709895  32.9176488  71.9870738  49.4583133
  32.9442629  73.4992655  49.5249864  28.1773854  63.3837645  52.1316507
  28.7517606  63.1612826  51.3989700  28.7644836  63.4526339  52.8845108
  28.5043441  65.4142106  46.1512392  27.6680753  65.7516793  46.4721667
  28.3648210  65.2791086  45.2139529  31.5907726  70.5398189  42.7744868
  30.6834788  70.3087442  42.9736017  32.0878758  69.7435808  42.9618850
  34.4975805  79.2495696  45.6941554  33.8237504  79.5527393  46.3026512
  34.8841627  80.0524777  45.3447011  33.7134262  66.7460827  55.1839224
  32.7956823  66.9675774  55.0260912  34.1294405  66.8207138  54.3250931
  34.4969309  68.1452243  50.3141904  35.2441128  68.6573640  50.0049026
  34.7660899  67.8236296  51.1746298  32.7695960  70.6410784  47.2968858
  31.8607179  70.3569817  47.3941328  32.7991043  71.0609862  46.4372165
  23.3384130  68.3616298  51.2784061  23.1408530  67.7685659  50.5535127
  22.7830794  68.0568508  51.9959999  31.3180854  68.2539404  53.3978654
  31.3729463  67.3013241  53.3221130  30.5072056  68.4098844  53.8819952
  32.4672047  72.1819528  44.6356937  32.0291477  71.4655386  44.1762574
  33.2082488  72.4095642  44.0742028  29.2573214  66.8716464  51.1569033
  28.4441079  67.1710635  51.5634225  29.7532208  66.4772153  51.8743515
  31.4081791  76.8674221  53.0903297  31.3657970  77.0935067  52.1611829
  32.3244490  76.6337596  53.2389098  28.7487288  64.4434820  56.7730267
  29.3886668  64.3023579  56.0753231  27.9164819  64.1569333  56.3968869
  29.5247592  73.7437250  52.8865260  30.3188191  73.2487570  52.6847835
  28.8139285  73.2155113  52.5232966  25.8330356  67.8880332  48.9625013
  24.9027944  67.8264787  49.1794975  25.9287828  67.3656285  48.1661654
  25.7515905  64.4135145  51.5503254  26.0122722  65.3280478  51.4412415
  26.5733077  63.9459587  51.6999867  27.2240830  65.8272902  58.7202079
  27.8963884  65.6190264  58.0714728  26.3970617  65.6294988  58.2807311
  33.3030536  70.2915608  58.7964559  34.2322596  70.4426767  58.6233527
  32.8821566  70.3799628  57.9413206  32.1018868  74.3166272  56.5663097
  31.9629954  73.9485057  57.4389035  31.3133464  74.8313912  56.3947055
  32.6967020  79.4175369  47.9088634  32.8718776  78.9463412  48.7234256
  32.0099808  80.0441135  48.1369894  27.6268327  69.1015505  59.4804516
  27.4888125  68.3695744  60.0816055  28.5373251  69.0124405  59.1988704
  36.5883275  71.0403909  44.2288994  35.9712446  70.3150737  44.1322047
  36.1199763  71.8013269  43.8856069  30.2550628  68.8135464  58.9688196
  30.9650247  68.1728656  58.9274814  30.2119936  69.0648359  59.8914376
  27.2628105  82.5664731  54.6828494  27.5024704  83.1983256  55.3607512
  26.4197302  82.2152771  54.9693853  28.3781821  65.2589333  43.3510299
  27.5011287  65.1378134  42.9872545  28.8539574  64.4675412  43.0989187
  19.8983961  70.0466493  53.4451806  20.5855001  69.7328223  52.8572821
  19.7432090  70.9507858  53.1719057  24.7018683  64.9356690  57.8736830
  24.6176872  64.3282359  57.1387240  23.8801390  65.4265708  57.8746326
  31.7755967  78.3743854  57.0869998  31.7026139  79.1798825  57.5989302
  31.3333360  78.5735820  56.2618019  31.5645747  77.6115624  50.5972819
  30.7813269  78.1537304  50.6911044  32.2638492  78.1289603  50.9967060
  34.8742397  63.4210253  53.2407025  35.3711097  62.6680216  52.9208095
  34.1029379  63.4574570  52.6750234  31.4577366  65.5627636  52.9678709
  31.0875153  65.0098677  53.6559615  31.9536458  64.9585770  52.4153709
  29.2866564  76.0225131  60.0633727  29.9876024  76.6561614  60.2163121
  28.8161679  76.3639863  59.3029366  34.0475024  78.6129432  51.9914448
  34.2297419  77.7951088  52.4542200  34.8708010  78.8297124  51.5539338
  34.3817190  77.5397617  49.2529496  34.9104956  77.0290072  48.6399658
  34.6445409  77.2240147  50.1175029  24.8834282  75.5561486  56.9964830
  25.4687719  74.8105174  57.1292734  24.6859121  75.8665443  57.8801494
  27.7372938  78.5912734  52.0127272  27.0683313  79.0758861  51.5291312
  27.5985807  78.8381954  52.9270651  19.4751937  68.1267087  55.7169273
  19.5136037  67.5930677  56.5106391  18.9692230  67.6002292  55.0980250
  31.8778206  80.6256477  58.6109931  32.4296514  80.7888099  59.3759016
  32.2184400  81.2160915  57.9389955  26.8542699  62.9731627  59.2131815
  26.9184026  63.8346458  58.8009213  26.7909820  62.3605629  58.4804174
  23.1060515  66.8531189  48.7923204  23.4013956  65.9441867  48.7390258
  22.2048551  66.8318928  48.4704207  35.0146594  78.5738453  55.5973613
  34.8897733  77.7728193  55.0884558  35.6725685  79.0684646  55.1087583
  26.6354762  64.9287185  54.7750753  25.9141348  65.5423153  54.6358226
  27.4248018  65.4644950  54.6967399  24.8348356  64.5345286  48.9162530
  24.5061063  63.6542665  48.7337635  25.1887727  64.4792955  49.8038919
  34.0827935  76.1700189  53.4257515  33.9352898  75.2416896  53.6065085
  34.9081429  76.1920280  52.9414590  27.9490180  64.8218256  49.2838007
  28.2886252  65.3504177  48.5616616  28.3962300  65.1598662  50.0596574
  29.9358327  63.3192878  47.4831300  30.6566689  63.6974131  46.9795017
  29.3123631  64.0381755  47.5866278  28.8188671  66.9823740  54.9960377
  28.6733252  67.2964043  55.8884658  28.3413875  67.6008640  54.4431276
  30.6785054  63.9726288  55.0441266  30.6646623  63.0767381  54.7073564
  31.3957482  63.9796952  55.6779553  32.5311185  64.4063628  57.0894394
  32.2728962  65.3280699  57.0878724  31.9996225  64.0094063  57.7794858
  23.2934333  69.5229084  57.9348038  22.7487801  70.2988892  58.0668312
  24.1713683  69.8699889  57.7767160  30.0821950  62.8540668  50.3128837
  30.2037861  61.9257314  50.5119724  29.7923992  62.8679354  49.4007152
  24.0800355  68.6498981  60.8278195  23.3382091  68.7981616  61.4142825
  23.7593099  68.9107246  59.9644944  32.0244018  78.1914959  60.6258585
  32.3331144  77.9464106  61.4981285  32.8219500  78.3961597  60.1377455
  32.0464630  80.3452868  52.8563962  31.6069620  79.8529247  53.5496818
  32.7972747  79.8025836  52.6156037  24.5256969  76.5364409  52.8588590
  25.3514989  76.2368181  52.4787233  24.1751021  75.7672032  53.3078378
  29.4938502  75.8890878  54.9286263  28.8718511  75.2261583  54.6288491
  30.1643369  75.9152009  54.2459911  22.7265574  74.4550736  53.8177523
  21.8897482  74.0272910  53.6361524  22.6989219  74.6483179  54.7548314
  29.0552009  74.4394801  48.4044724  29.2040129  75.1230265  47.7511396
  29.8618452  74.4199891  48.9194179  26.8104642  70.4659979  49.4105793
  26.5650684  69.5622309  49.6086003  26.9800556  70.4677129  48.4685271
  26.0800289  66.1988336  46.9091954  25.3869534  66.2732691  46.2531990
  25.8352041  65.4348680  47.4313471  32.5547414  76.9342931  45.8756471
  31.9821381  77.5533118  45.4226943  33.1280208  77.4842293  46.4096393
  38.6222804  66.1801571  58.0603020  39.5740227  66.2799669  58.0815244
  38.4526254  65.3879840  58.5701104  35.7744674  77.2180081  47.0065053
  36.7075347  77.1525643  47.2097929  35.6867887  78.0536348  46.5479586
  32.9394213  68.2703744  43.2172524  33.8853317  68.1409952  43.2860942
  32.5608458  67.5318406  43.6941952  31.1237130  66.1953720  43.1527409
  30.2168585  65.8986833  43.2290122  31.4013111  65.8983539  42.2861695
  22.0415070  67.5160084  53.6026455  21.7217855  66.6625392  53.3100829
  21.4948498  67.7308662  54.3584423  25.8194978  70.2322525  57.3195962
  26.0380988  71.1639633  57.3383996  26.2320752  69.8730499  58.1050766
  29.8935915  63.0540656  43.2939388  30.7555079  63.3795554  43.5535205
  30.0786259  62.2672152  42.7812454  21.9103330  71.1362995  55.5719577
  21.2166802  70.7216948  55.0589531  22.6576321  71.1783532  54.9752996
  23.8240073  71.0681249  53.4485592  23.8010761  71.1668936  52.4967475
  24.1340709  71.9146400  53.7702758  26.4827451  73.1257404  57.5632206
  27.4370704  73.0941347  57.4962138  26.2839974  72.6648028  58.3782432
  27.0726833  71.6958520  60.1303004  27.8919722  72.1902599  60.1537841
  27.3463641  70.7790488  60.1020571  24.8377679  78.6677024  54.5802404
  24.7032147  77.9077425  54.0140402  24.4209742  79.3917924  54.1131193
  35.9736642  73.8513947  43.5878979  36.6772493  74.0563950  44.2036635
  35.2499291  74.4190709  43.8528063  27.9946805  79.5646341  54.7920847
  27.8779189  80.5091773  54.6899537  27.1739252  79.2619902  55.1806646
  22.3261747  66.0296654  60.8295201  22.9720611  65.5195608  61.3182426
  22.1178898  66.7665336  61.4038626  30.8465358  60.2936699  46.5819097
  30.8344027  61.2378539  46.7387368  31.7388779  60.1106844  46.2878558
  29.0201319  80.2174603  58.0076775  29.9228566  80.2498213  58.3243270
  28.7938690  79.2875054  58.0223111  30.7754921  78.9705589  54.6686854
  29.8250552  78.9707451  54.5551226  31.0787408  78.2238324  54.1522888
  39.1784137  86.6129032  51.6591032  38.6149002  86.5218969  50.8907320
  39.0636532  85.7928937  52.1393524  43.8017104  85.9128407  61.6280346
  43.7905745  85.5181206  60.7560850  43.9637744  85.1794480  62.2214118
  36.7248569  88.1080224  54.4975252  37.5169861  87.7671048  54.0821552
  36.9645219  88.2175199  55.4177406  44.7583696  90.2800000  46.9705497
  44.1071675  90.8654080  46.5839510  45.5528058  90.8106195  47.0300534
  38.6839323  87.3689137  47.3692631  39.4570199  86.8218124  47.2305507
  39.0364722  88.2333386  47.5807092  40.5224365  88.6965519  60.5759530
  40.2314231  89.6011150  60.4606197  41.1581350  88.7382047  61.2903600
  41.4480572  86.0742368  57.1660890  42.0444144  85.8498390  56.4517853
  41.5055544  85.3327113  57.7686338  41.0205601  83.5281803  45.0011081
  41.2731121  83.0063324  44.2394544  40.0830160  83.3647948  45.1037765
  46.2358961  87.9690432  47.5074481  45.6004794  88.0425058  48.2195386
  45.9056367  88.5584031  46.8293560  40.7401889  85.4309909  47.2035456
  40.6238147  84.7554812  47.8716540  40.8504149  84.9442283  46.3867609
  43.0833430  84.8920056  50.9082145  42.7191638  84.3650677  51.6195067
  43.9400546  84.5018525  50.7348631  38.9326732  84.8340732  53.6046028
  38.0077228  84.7016946  53.8123720  39.1811145  85.6134951  54.1015971
  36.2935543  84.4774005  54.4389818  36.4227924  84.7308484  55.3529229
  35.6132994  85.0701713  54.1194473  40.4635030  95.1471255  50.5380292
  40.3859060  96.0979080  50.6168772  39.8596674  94.8017128  51.1955218
  41.2098632  85.1284574  62.7559626  41.9513317  85.6669618  62.4794449
  40.5035618  85.7550863  62.9131177  42.5610748  87.5689313  52.3734161
  43.0249094  87.8477016  51.5838784  42.2967547  86.6672758  52.1907252
  39.4534830  87.1160795  55.3113924  40.0236187  87.5448063  54.6731409
  40.0442941  86.8343379  56.0098110  41.4979635  83.6912465  49.1823726
  42.2003678  84.1433509  49.6497653  41.1660263  83.0496284  49.8103619
  35.2404969  81.9496018  54.4840860  34.4504022  82.2053547  54.0080970
  35.7316216  82.7644356  54.5892900  37.1919714  82.3140597  51.4424336
  36.3950877  82.4259292  51.9607832  36.9645306  82.6527249  50.5765227
  43.0225382  88.8385300  59.3906851  43.0869814  89.3005708  60.2265023
  42.3136305  88.2082665  59.5189161  33.5242671  82.2026508  56.9155851
  33.7750710  83.0873518  57.1813427  34.0602220  82.0231110  56.1430942
  42.7373399  90.5053408  49.2585831  42.6019074  91.3504944  49.6870679
  43.2783212  90.7072686  48.4951765  36.1902797  88.0228846  49.8313757
  36.7027317  88.8172096  49.9819321  36.8425509  87.3255136  49.7647358
  37.9997681  91.1394602  51.9136510  38.1764310  92.0612567  51.7257494
  38.7954515  90.8253022  52.3430890  37.2850038  83.1859234  61.7898673
  37.1703553  82.2844491  62.0905772  36.4294556  83.4322931  61.4383489
  44.3641876  91.1276974  63.3886174  43.9205730  90.3413353  63.0707078
  45.0259089  91.3156125  62.7230064  39.1228997  92.6572776  57.9146852
  39.6736422  92.5289839  57.1423846  38.2840473  92.9567665  57.5641745
  46.4623114  91.4079774  61.4167575  46.4441589  92.2288655  60.9247844
  47.3843034  91.2833850  61.6417716  42.9196168  88.9223904  62.2591083
  43.4524505  88.1612192  62.0290391  42.3910249  88.6297556  63.0015238
  34.1551713  86.3517500  50.6073327  34.9926935  86.7614509  50.3907035
  34.3329981  85.4116942  50.5773521  44.2848880  88.0509896  49.7709895
  43.7570242  87.3162656  49.4583133  43.7836383  88.8284573  49.5249864
  39.0167608  78.7129563  52.1316507  39.5911360  78.4904744  51.3989700
  39.6038591  78.7818257  52.8845108  39.3437195  80.7434024  46.1512392
  38.5074507  81.0808710  46.4721667  39.2041965  80.6083003  45.2139529
  42.4301481  85.8690107  42.7744868  41.5228542  85.6379360  42.9736017
  42.9272513  85.0727726  42.9618850  45.3369560  94.5787614  45.6941554
  44.6631258  94.8819311  46.3026512  45.7235382  95.3816694  45.3447011
  43.6089714  85.9702702  47.2968858  42.7000933  85.6861734  47.3941328
  43.6384798  86.3901780  46.4372165  48.8408982  89.5809291  51.0660026
  48.3871309  88.7400201  51.1225216  48.2102948  90.2170689  51.4034806
  47.2841921  91.4185788  52.0009844  47.5764895  91.9790845  51.2822210
  47.7940541  91.7114349  52.7563003  34.1777884  83.6908216  51.2784061
  33.9802284  83.0977576  50.5535127  33.6224548  83.3860426  51.9959999
  43.3065802  87.5111445  44.6356937  42.8685232  86.7947304  44.1762574
  44.0476243  87.7387560  44.0742028  42.2475546  92.1966139  53.0903297
  42.2051725  92.4226985  52.1611829  43.1638245  91.9629513  53.2389098
  40.3641347  89.0729168  52.8865260  41.1581945  88.5779488  52.6847835
  39.6533039  88.5447031  52.5232966  45.1836191  91.4547263  57.2377628
  45.2373213  92.0238200  58.0055343  44.3150973  91.6249148  56.8731665
  36.6724110  83.2172250  48.9625013  35.7421698  83.1556705  49.1794975
  36.7681582  82.6948202  48.1661654  36.5909659  79.7427062  51.5503254
  36.8516477  80.6572396  51.4412415  37.4126832  79.2751505  51.6999867
  38.0634585  81.1564820  58.7202079  38.7357638  80.9482182  58.0714728
  37.2364371  80.9586906  58.2807311  42.9412623  89.6458190  56.5663097
  42.8023708  89.2776974  57.4389035  42.1527219  90.1605829  56.3947055
  43.5360775  94.7467286  47.9088634  43.7112530  94.2755329  48.7234256
  42.8493563  95.3733052  48.1369894  38.4662082  84.4307423  59.4804516
  38.3281880  83.6987661  60.0816055  39.3767005  84.3416323  59.1988704
  41.0944382  84.1427382  58.9688196  41.8044001  83.5020574  58.9274814
  41.0513691  84.3940277  59.8914376  38.1021860  97.8956649  54.6828494
  38.3418458  98.5275173  55.3607512  37.2591056  97.5444689  54.9693853
  39.2175575  80.5881251  43.3510299  38.3405042  80.4670052  42.9872545
  39.6933328  79.7967329  43.0989187  30.7377716  85.3758411  53.4451806
  31.4248755  85.0620141  52.8572821  30.5825844  86.2799776  53.1719057
  35.5412438  80.2648607  57.8736830  35.4570626  79.6574277  57.1387240
  34.7195144  80.7557626  57.8746326  42.6149722  93.7035771  57.0869998
  42.5419893  94.5090743  57.5989302  42.1727115  93.9027737  56.2618019
  42.4039501  92.9407541  50.5972819  41.6207023  93.4829222  50.6911044
  43.1032247  93.4581521  50.9967060  45.0748405  93.6022605  59.2428156
  45.7876378  94.2370070  59.1704058  44.5838434  93.6986471  58.4268158
  40.1260319  91.3517049  60.0633727  40.8269778  91.9853532  60.2163121
  39.6555434  91.6931781  59.3029366  48.2514715  89.6934999  48.3481634
  48.5274559  89.5791593  49.2575508  47.3819213  89.2952484  48.3093807
  44.8868779  93.9421350  51.9914448  45.0691173  93.1243006  52.4542200
  45.7101765  94.1589042  51.5539338  45.2210944  92.8689535  49.2529496
  45.7498711  92.3581989  48.6399658  45.4839164  92.5532065  50.1175029
  35.7228037  90.8853404  56.9964830  36.3081474  90.1397092  57.1292734
  35.5252875  91.1957361  57.8801494  38.5766692  93.9204651  52.0127272
  37.9077067  94.4050779  51.5291312  38.4379562  94.1673872  52.9270651
  30.3145692  83.4559004  55.7169273  30.3529791  82.9222595  56.5106391
  29.8085985  82.9294210  55.0980250  42.7171961  95.9548395  58.6109931
  43.2690269  96.1180016  59.3759016  43.0578154  96.5452833  57.9389955
  33.9454269  82.1823106  48.7923204  34.2407710  81.2733785  48.7390258
  33.0442305  82.1610846  48.4704207  45.8540348  93.9030370  55.5973613
  45.7291487  93.1020110  55.0884558  46.5119439  94.3976564  55.1087583
  37.4748516  80.2579103  54.7750753  36.7535102  80.8715071  54.6358226
  38.2641772  80.7936868  54.6967399  47.9175256  91.7039391  57.2253163
  46.9705592  91.5844742  57.1531490  48.2658030  90.8161889  57.3079424
  35.6742111  79.8637204  48.9162530  35.3454817  78.9834583  48.7337635
  36.0281482  79.8084873  49.8038919  44.9221690  91.4992107  53.4257515
  44.7746652  90.5708814  53.6065085  45.7475183  91.5212197  52.9414590
  38.7883934  80.1510174  49.2838007  39.1280007  80.6796095  48.5616616
  39.2356054  80.4890580  50.0596574  48.5255812  92.3220665  54.5122388
  49.4502359  92.1163527  54.3746839  48.3571115  92.0737067  55.4211729
  41.4827375  78.5347225  58.7341075  41.1424195  77.7355038  59.1361755
  40.7766381  78.8348935  58.1617908  40.7752081  78.6484795  47.4831300
  41.4960444  79.0266048  46.9795017  40.1517385  79.3673672  47.5866278
  39.6582425  82.3115658  54.9960377  39.5127006  82.6255961  55.8884658
  39.1807629  82.9300558  54.4431276  41.5178808  79.3018206  55.0441266
  41.5040377  78.4059299  54.7073564  42.2351236  79.3088869  55.6779553
  43.3704939  79.7355546  57.0894394  43.1122717  80.6572616  57.0878724
  42.8389979  79.3385980  57.7794858  48.3151128  92.8406333  49.8684479
  48.4888005  92.2752755  49.1158332  48.8080019  93.6407228  49.6863969
  34.1328088  84.8521002  57.9348038  33.5881556  85.6280810  58.0668312
  35.0107437  85.1991806  57.7767160  40.9215704  78.1832586  50.3128837
  41.0431615  77.2549232  50.5119724  40.6317747  78.1971272  49.4007152
  49.3026300  92.1573097  46.9681378  49.9977205  92.7779790  47.1868692
  49.6449450  91.3068449  47.2433755  34.9194109  83.9790898  60.8278195
  34.1775845  84.1273534  61.4142825  34.5986854  84.2399164  59.9644944
  51.2017723  89.6072803  48.4968708  51.7269047  89.9460076  47.7718028
  51.1140076  88.6719818  48.3131843  42.8637772  93.5206877  60.6258585
  43.1724899  93.2756023  61.4981285  43.6613254  93.7253515  60.1377455
  42.8858384  95.6744786  52.8563962  42.4463374  95.1821165  53.5496818
  43.6366501  95.1317754  52.6156037  35.3650723  91.8656327  52.8588590
  36.1908743  91.5660099  52.4787233  35.0144775  91.0963949  53.3078378
  40.3332256  91.2182795  54.9286263  39.7112266  90.5553500  54.6288491
  41.0037123  91.2443927  54.2459911  33.5659328  89.7842653  53.8177523
  32.7291236  89.3564828  53.6361524  33.5382974  89.9775097  54.7548314
  39.8945763  89.7686719  48.4044724  40.0433884  90.4522183  47.7511396
  40.7012207  89.7491809  48.9194179  53.7123384  87.0747994  53.8797227
  54.5470275  87.5137798  54.0434787  53.8482512  86.5986647  53.0605472
  37.6498396  85.7951896  49.4105793  37.4044438  84.8914226  49.6086003
  37.8194311  85.7969047  48.4685271  36.9194044  81.5280254  46.9091954
  36.2263289  81.6024609  46.2531990  36.6745796  80.7640597  47.4313471
  43.3941169  92.2634849  45.8756471  42.8215136  92.8825036  45.4226943
  43.9673962  92.8134211  46.4096393  46.6138429  92.5471999  47.0065053
  47.5469102  92.4817561  47.2097929  46.5261641  93.3828266  46.5479586
  49.2426445  91.8637869  43.9669001  49.1640077  91.5297733  44.8604759
  50.0636112  92.3559637  43.9660473  43.7787967  83.5995662  43.2172524
  44.7247072  83.4701870  43.2860942  43.4002212  82.8610324  43.6941952
  43.6626660  87.6513408  64.6773181  44.5829669  87.8292007  64.8713227
  43.6276243  86.7069453  64.5252880  41.9630884  81.5245638  43.1527409
  41.0562340  81.2278751  43.2290122  42.2406865  81.2275456  42.2861695
  32.8808825  82.8452002  53.6026455  32.5611609  81.9917310  53.3100829
  32.3342253  83.0600580  54.3584423  36.6588732  85.5614443  57.3195962
  36.8774742  86.4931550  57.3383996  37.0714506  85.2022417  58.1050766
  32.7497085  86.4654913  55.5719577  32.0560556  86.0508866  55.0589531
  33.4970076  86.5075450  54.9752996  41.3947868  84.5644787  65.5263772
  40.9114949  85.3645147  65.7327661  41.4808807  84.5752732  64.5731216
  34.6633827  86.3973167  53.4485592  34.6404515  86.4960854  52.4967475
  34.9734464  87.2438318  53.7702758  37.3221205  88.4549322  57.5632206
  38.2764459  88.4233264  57.4962138  37.1233729  87.9939946  58.3782432
  37.9120587  87.0250438  60.1303004  38.7313476  87.5194517  60.1537841
  38.1857395  86.1082406  60.1020571  35.6771434  93.9968941  54.5802404
  35.5425902  93.2369342  54.0140402  35.2603496  94.7209841  54.1131193
  46.8130397  89.1805865  43.5878979  47.5166247  89.3855867  44.2036635
  46.0893046  89.7482627  43.8528063  38.8340560  94.8938258  54.7920847
  38.7172944  95.8383691  54.6899537  38.0133006  94.5911820  55.1806646
  48.7217094  89.6188394  45.6377439  49.5562698  89.1869593  45.4554914
  48.5601437  89.4470408  46.5654334  33.1655502  81.3588572  60.8295201
  33.8114365  80.8487526  61.3182426  32.9572653  82.0957253  61.4038626
  39.8595074  95.5466520  58.0076775  40.7622321  95.5790131  58.3243270
  39.6332444  94.6166971  58.0223111  41.6148676  94.2997507  54.6686854
  40.6644307  94.2999368  54.5551226  41.9181162  93.5530241  54.1522888
  57.3501369 100.1358045  55.7332616  57.9879779 100.0164793  55.0295956
  57.2322212 101.0838889  55.7920568  54.1591076 100.0885473  55.6694141
  53.8209587  99.9726538  54.7814676  55.0280844  99.6876638  55.6495147
  50.0177891 101.9420950  51.6591032  49.4542757 101.8510887  50.8907320
  49.9030286 101.1220854  52.1393524  54.6410859 101.2420325  61.6280346
  54.6299499 100.8473123  60.7560850  54.8031498 100.5086398  62.2214118
  47.5642323 103.4372141  54.4975252  48.3563615 103.0962966  54.0821552
  47.8038974 103.5467116  55.4177406  55.5977450 105.6091917  46.9705497
  54.9465430 106.1945998  46.5839510  56.3921813 106.1398112  47.0300534
  49.5233077 102.6981055  47.3692631  50.2963953 102.1510042  47.2305507
  49.8758476 103.5625304  47.5807092  51.3618120 104.0257437  60.5759530
  51.0707986 104.9303068  60.4606197  51.9975104 104.0673964  61.2903600
  52.2874327 101.4034285  57.1660890  52.8837899 101.1790308  56.4517853
  52.3449298 100.6619031  57.7686338  51.8599355  98.8573721  45.0011081
  52.1124876  98.3355242  44.2394544  50.9223914  98.6939866  45.1037765
  56.9042638  97.8609499  52.8085824  57.6905727  97.4428922  52.4576241
  57.1681342  98.7655591  52.9767473  57.0752715 103.2982349  47.5074481
  56.4398548 103.3716976  48.2195386  56.7450122 103.8875948  46.8293560
  62.3051065  97.7984732  53.7118803  63.0376237  97.2283949  53.9456632
  61.5490421  97.4106333  54.1525308  51.5795644 100.7601827  47.2035456
  51.4631902 100.0846730  47.8716540  51.6897904 100.2734201  46.3867609
  53.9227185 100.2211974  50.9082145  53.5585392  99.6942595  51.6195067
  54.7794301  99.8310443  50.7348631  59.8276485  91.5106306  58.1713411
  59.4959810  92.3801717  57.9474626  59.2322099  91.1942590  58.8507442
  53.5632672  95.2501873  45.9043494  53.7307074  96.1182110  46.2713965
  53.3729841  95.4129155  44.9804783  56.3208005 103.7118852  57.5709324
  56.0208728 104.6143891  57.4625131  55.9759064 103.4451036  58.4230477
  49.7720486 100.1632649  53.6046028  48.8470983 100.0308863  53.8123720
  50.0204900 100.9426868  54.1015971  59.7205149  96.2301393  55.2506761
  58.8122026  96.1616801  54.9565522  59.6692745  96.7073337  56.0788587
  53.5421893  97.7059531  46.8890160  53.4221518  98.1516582  47.7275641
  52.8474481  98.0544849  46.3303699  47.1329297  99.8065923  54.4389818
  47.2621679 100.0600402  55.3529229  46.4526749 100.3993631  54.1194473
  53.7946015  97.6491038  63.1941659  53.0179349  98.2084958  63.1844523
  54.4336578  98.1347821  63.7156529  61.5866795  94.4317831  57.0284635
  60.9441175  94.7250364  56.3824430  61.0821724  94.3170751  57.8337832
  59.2406959  98.1781004  47.7170495  60.1524815  98.4108391  47.5418192
  58.7316606  98.7618048  47.1545573  52.0492387 100.4576491  62.7559626
  52.7907071 100.9961535  62.4794449  51.3429372 101.0842780  62.9131177
  57.5247726 102.6005632  61.3531787  57.9331082 102.1588042  60.6086419
  56.8024988 102.0258259  61.6065980  53.8778797  97.5378239  58.7265344
  54.7239992  97.9617652  58.8699993  53.8177434  96.8811863  59.4203907
  57.8476541 103.1606823  55.1084076  57.2185404 103.3252537  54.4060144
  57.4602203 103.5748432  55.8795040  61.7265773 104.0961260  52.4628440
  61.0416811 104.4760162  51.9125473  61.8109622 104.7056587  53.1960388
  57.0278242  95.1982607  60.3846518  56.7839174  95.9524668  59.8480793
  57.3038172  95.5767955  61.2193765  58.9816705 101.7421219  59.0623783
  59.1933600 102.3852979  58.3858164  58.9346453 100.9083536  58.5945713
  56.5842934  94.3539040  55.9660355  55.7227413  94.6520294  56.2577093
  56.6105368  94.5709439  55.0341388  53.4004503 102.8981231  52.3734161
  53.8642849 103.1768934  51.5838784  53.1361301 101.9964675  52.1907252
  50.2928584 102.4452712  55.3113924  50.8629941 102.8739981  54.6731409
  50.8836696 102.1635297  56.0098110  52.3373389  99.0204383  49.1823726
  53.0397432  99.4725427  49.6497653  52.0054018  98.3788202  49.8103619
  50.7853751  97.6116140  63.5574936  50.1552411  98.2932421  63.7910332
  50.6789838  97.4999221  62.6128074  46.0798723  97.2787936  54.4840860
  45.2897777  97.5345464  54.0080970  46.5709970  98.0936274  54.5892900
  60.0962533 104.6193175  57.2346141  60.9179976 104.2173362  56.9528822
  60.0924935 104.5161409  58.1862256  48.0313468  97.6432515  51.4424336
  47.2344632  97.7551209  51.9607832  47.8039061  97.9819167  50.5765227
  53.8619136 104.1677218  59.3906851  53.9263569 104.6297625  60.2265023
  53.1530060 103.5374583  59.5189161  44.3636426  97.5318426  56.9155851
  44.6144464  98.4165436  57.1813427  44.8995974  97.3523028  56.1430942
  68.1868526 100.9631923  53.5831112  67.4332234 100.3939321  53.4275117
  68.3216067 100.9294588  54.5301747  53.5767154 105.8345326  49.2585831
  53.4412828 106.6796861  49.6870679  54.1176966 106.0364603  48.4951765
  47.0296551 103.3520764  49.8313757  47.5421072 104.1464014  49.9819321
  47.6819264 102.6547054  49.7647358  48.8391436 106.4686520  51.9136510
  49.0158064 107.3904485  51.7257494  49.6348269 106.1544939  52.3430890
  52.9802454  93.3294785  63.5120443  53.7212168  93.9301938  63.4324906
  53.2120377  92.5872422  62.9538486  48.1243792  98.5151152  61.7898673
  48.0097307  97.6136409  62.0905772  47.2688310  98.7614849  61.4383489
  55.2035630 106.4568892  63.3886174  54.7599484 105.6705271  63.0707078
  55.8652844 106.6448043  62.7230064  49.9622751 107.9864694  57.9146852
  50.5130176 107.8581757  57.1423846  49.1234227 108.2859583  57.5641745
  57.3016868 106.7371692  61.4167575  57.2835343 107.5580573  60.9247844
  58.2236788 106.6125767  61.6417716  53.7589922 104.2515822  62.2591083
  54.2918259 103.4904110  62.0290391  53.2304003 103.9589473  63.0015238
  44.9945468 101.6809418  50.6073327  45.8320690 102.0906426  50.3907035
  45.1723736 100.7408860  50.5773521  56.8909900  99.3484499  46.2957160
  56.3756523 100.1189103  46.5345547  56.6187208  98.6749635  46.9190221
  54.4757011  94.1934199  51.3542398  53.6198607  93.8041050  51.1748037
  54.8883963  94.2726160  50.4942184  56.0056158  91.7280543  55.7533958
  55.5020953  91.6910678  54.9401763  56.2986764  92.6373285  55.8130615
  52.2499044  91.8119272  54.7600140  53.1152040  91.6162081  54.4006029
  52.3176552  91.5829624  55.6869497  61.8644174 102.1016853  48.2310334
  61.0873617 101.7628013  47.7865496  62.5435655 102.1069476  47.5565299
  56.6796203  97.2211591  48.1216941  56.3746339  97.5357740  48.9727084
  57.6326645  97.2993011  48.1644274  55.1242635 103.3801814  49.7709895
  54.5963997 102.6454574  49.4583133  54.6230138 104.1576490  49.5249864
  60.1035481 101.5750835  54.8876941  59.4459155 102.2650096  54.9757070
  60.9075880 101.9647266  55.2310928  49.8561363  94.0421480  52.1316507
  50.4305114  93.8196662  51.3989700  50.4432345  94.1110175  52.8845108
  58.9140940  99.9295207  52.9380883  59.4272822 100.5625199  53.4402593
  59.5642164  99.3296403  52.5724243  50.1830950  96.0725941  46.1512392
  49.3468262  96.4100628  46.4721667  50.0435719  95.9374921  45.2139529
  52.1584030  90.9162729  50.8591576  51.5048443  90.6011746  50.2348191
  52.1164504  90.2938470  51.5851399  53.2695235 101.1982024  42.7744868
  52.3622297 100.9671278  42.9736017  53.7666267 100.4019644  42.9618850
  56.1763314 109.9079532  45.6941554  55.5025013 110.2111228  46.3026512
  56.5629136 110.7108612  45.3447011  55.3921771  97.4044663  55.1839224
  54.4744332  97.6259610  55.0260912  55.8081914  97.4790973  54.3250931
  56.1756818  98.8036078  50.3141904  56.9228637  99.3157476  50.0049026
  56.4448408  98.4820131  51.1746298  54.4483469 101.2994619  47.2968858
  53.5394688 101.0153652  47.3941328  54.4778552 101.7193698  46.4372165
  59.6802736 104.9101209  51.0660026  59.2265063 104.0692119  51.1225216
  59.0496703 105.5462607  51.4034806  58.6235656  95.8393195  52.2960693
  57.8858412  95.3270581  52.6270936  58.8762429  95.3993576  51.4843970
  58.1235675 106.7477705  52.0009844  58.4158650 107.3082762  51.2822210
  58.6334296 107.0406266  52.7563003  58.7247283  88.6169447  52.8902463
  59.0306160  87.7566810  52.6028378  59.4499888  89.2087067  52.6901457
  45.0171639  99.0200133  51.2784061  44.8196039  98.4269494  50.5535127
  44.4618303  98.7152344  51.9959999  52.9968363  98.9123240  53.3978654
  53.0516972  97.9597076  53.3221130  52.1859565  99.0682679  53.8819952
  54.1459556 102.8403363  44.6356937  53.7078986 102.1239222  44.1762574
  54.8869997 103.0679478  44.0742028  50.9360723  97.5300300  51.1569033
  50.1228588  97.8294470  51.5634225  51.4319717  97.1355988  51.8743515
  53.0869300 107.5258056  53.0903297  53.0445479 107.7518903  52.1611829
  54.0031999 107.2921431  53.2389098  56.5334934  97.9942124  59.9883926
  56.8884322  98.2213597  60.8478392  57.1807065  98.3260501  59.3661182
  62.2632671 101.1160560  50.6933255  62.1250570 101.3062156  49.7654445
  61.9068890 101.8779943  51.1501307  50.4274797  95.1018655  56.7730267
  51.0674177  94.9607414  56.0753231  49.5952328  94.8153168  56.3968869
  62.2902051 103.1837087  55.7044527  62.7238557 103.0912376  56.5527581
  63.0033631 103.1594587  55.0664543  51.2035101 104.4021085  52.8865260
  51.9975700 103.9071406  52.6847835  50.4926794 103.8738949  52.5232966
  56.0229946 106.7839181  57.2377628  56.0766968 107.3530117  58.0055343
  55.1544727 106.9541066  56.8731665  47.5117865  98.5464167  48.9625013
  46.5815453  98.4848623  49.1794975  47.6075337  98.0240120  48.1661654
  47.4303414  95.0718980  51.5503254  47.6910231  95.9864313  51.4412415
  48.2520586  94.6043423  51.6999867  48.9028339  96.4856737  58.7202079
  49.5751392  96.2774099  58.0714728  48.0758126  96.2878823  58.2807311
  63.1517600 103.2260788  58.2377412  63.3453490 104.1306598  58.4836687
  63.0518219 102.7668207  59.0715997  54.8053911  93.1118678  60.7367740
  54.1581826  93.8108628  60.6432216  55.5754926  93.5454822  61.1043988
  58.2132709 103.3767530  63.8118293  58.0618215 103.1478082  62.8948377
  58.2037388 104.3338132  63.8249638  54.9818045 100.9499443  58.7964559
  55.9110105 101.1010603  58.6233527  54.5609075 101.0383464  57.9413206
  53.7806377 104.9750107  56.5663097  53.6417463 104.6068892  57.4389035
  52.9920973 105.4897747  56.3947055  54.3754529 110.0759204  47.9088634
  54.5506285 109.6047247  48.7234256  53.6887317 110.7024970  48.1369894
  55.3311592 104.3531710  53.9551935  54.9961425 104.3132480  54.8509585
  54.8315538 103.6876426  53.4822345  49.3055836  99.7599340  59.4804516
  49.1675634  99.0279579  60.0816055  50.2160760  99.6708240  59.1988704
  58.2670784 101.6987745  44.2288994  57.6499955 100.9734573  44.1322047
  57.7987272 102.4597105  43.8856069  51.9338137  99.4719300  58.9688196
  52.6437756  98.8312492  58.9274814  51.8907445  99.7232194  59.8914376
  59.9224916 106.4086653  61.8894775  59.8637462 105.7245873  61.2225358
  60.3244434 107.1505643  61.4375401  50.6467071  96.4584517  60.7883835
  50.1104428  96.0075256  61.4405431  50.0583779  96.5930426  60.0454299
  50.0569330  95.9173169  43.3510299  49.1798796  95.7961970  42.9872545
  50.5327083  95.1259247  43.0989187  59.9242323 104.3726237  60.1208755
  59.0369102 104.0352159  60.2435153  60.4940874 103.6409268  60.3577520
  41.5771470 100.7050329  53.4451806  42.2642510 100.3912059  52.8572821
  41.4219599 101.6091693  53.1719057  46.3806192  95.5940525  57.8736830
  46.2964381  94.9866195  57.1387240  45.5588899  96.0849543  57.8746326
  53.4543476 109.0327689  57.0869998  53.3813648 109.8382661  57.5989302
  53.0120869 109.2319655  56.2618019  53.2433256 108.2699459  50.5972819
  52.4600778 108.8121139  50.6911044  53.9426001 108.7873439  50.9967060
  56.5529906  94.0794089  53.2407025  57.0498606  93.3264051  52.9208095
  55.7816888  94.1158405  52.6750234  64.4059663  99.7834454  54.8825316
  64.3949540 100.6659170  54.5119249  63.5377043  99.4306005  54.6879853
  55.9142160 108.9314523  59.2428156  56.6270132 109.5661988  59.1704058
  55.4232188 109.0278389  58.4268158  57.6359687 102.8365776  50.8145448
  56.7015965 102.9567238  50.6450152  57.8136355 101.9338243  50.5505458
  53.1364875  96.2211472  52.9678709  52.7662662  95.6682512  53.6559615
  53.6323967  95.6169605  52.4153709  61.0232238  98.6783095  51.3495482
  61.4892690  99.5111087  51.2755785  61.4739739  98.2128077  52.0540741
  50.9654073 106.6808967  60.0633727  51.6663533 107.3145450  60.2163121
  50.4949188 107.0223698  59.3029366  59.0908469 105.0226916  48.3481634
  59.3668313 104.9083511  49.2575508  58.2212968 104.6244401  48.3093807
  58.9948901  91.0463682  55.3886384  58.0811981  91.2767909  55.5568590
  59.4242002  91.1302126  56.2400416  58.7655359  99.2353574  57.8886278
  58.1126810  99.4829482  57.2338730  59.1435739  98.4217712  57.5548755
  55.7262533 109.2713267  51.9914448  55.9084928 108.4534923  52.4542200
  56.5495519 109.4880960  51.5539338  56.0604699 108.1981452  49.2529496
  56.5892465 107.6873907  48.6399658  56.3232918 107.8823983  50.1175029
  54.8142932  99.9773385  64.3752315  54.1383569  99.8767514  65.0454690
  55.6370566  99.8212599  64.8388312  46.5621791 106.2145322  56.9964830
  47.1475228 105.4689010  57.1292734  46.3646630 106.5249278  57.8801494
  41.1539446  98.7850922  55.7169273  41.1923546  98.2514513  56.5106391
  40.6479739  98.2586127  55.0980250  48.5330208  93.6315462  59.2131815
  48.5971535  94.4930293  58.8009213  48.4697329  93.0189464  58.4804174
  48.0082481  95.7038595  62.8604850  48.6354520  95.3215672  63.4742374
  47.1510400  95.4852797  63.2260542  58.4076590 106.1101570  64.4658585
  58.9516494 106.7231528  63.9713540  57.8263434 106.6681149  64.9825598
  44.7848024  97.5115024  48.7923204  45.0801465  96.6025702  48.7390258
  43.8836060  97.4902763  48.4704207  56.6934103 109.2322288  55.5973613
  56.5685242 108.4312028  55.0884558  57.3513194 109.7268481  55.1087583
  48.3142271  95.5871021  54.7750753  47.5928857  96.2006988  54.6358226
  49.1035527  96.1228785  54.6967399  58.7569011 107.0331308  57.2253163
  57.8099346 106.9136659  57.1531490  59.1051784 106.1453806  57.3079424
  51.1168584  92.9225447  61.0491405  51.6402986  93.1687744  61.8117714
  50.8980918  93.7545482  60.6294542  46.5135865  95.1929122  48.9162530
  46.1848571  94.3126501  48.7337635  46.8675236  95.1376790  49.8038919
  55.7615444 106.8284024  53.4257515  55.6140407 105.9000732  53.6065085
  56.5868938 106.8504115  52.9414590  49.6277689  95.4802092  49.2838007
  49.9673761  96.0088013  48.5616616  50.0749809  95.8182498  50.0596574
  59.3649566 107.6512583  54.5122388  60.2896114 107.4455444  54.3746839
  59.1964869 107.4028984  55.4211729  52.3221129  93.8639142  58.7341075
  51.9817950  93.0646955  59.1361755  51.6160136  94.1640853  58.1617908
  52.9737601  90.9488455  57.1868398  53.7963670  90.4748933  57.0647289
  53.2175665  91.7278938  57.6867085  51.6145836  93.9776713  47.4831300
  52.3354198  94.3557966  46.9795017  50.9911140  94.6965590  47.5866278
  55.7576959  94.6821862  48.4189632  55.9740573  95.5646500  48.1178460
  55.2771026  94.2908075  47.6895274  50.4976180  97.6407575  54.9960377
  50.3520761  97.9547878  55.8884658  50.0201384  98.2592476  54.4431276
  52.3572563  94.6310123  55.0441266  52.3434132  93.7351217  54.7073564
  53.0744991  94.6380787  55.6779553  54.2098694  95.0647463  57.0894394
  53.9516471  95.9864534  57.0878724  53.6783734  94.6677898  57.7794858
  59.1544882 108.1698251  49.8684479  59.3281760 107.6044673  49.1158332
  59.6473773 108.9699145  49.6863969  44.9721842 100.1812920  57.9348038
  44.4275310 100.9572728  58.0668312  45.8501192 100.5283724  57.7767160
  51.7609459  93.5124504  50.3128837  51.8825370  92.5841150  50.5119724
  51.4711501  93.5263190  49.4007152  54.6300649  91.1979414  53.4495556
  54.6522346  91.2618747  52.4947536  55.0468708  90.3583923  53.6436063
  65.0084273 100.9334674  51.4874779  65.4515419 100.1841999  51.0893902
  64.1310784 100.9244810  51.1048511  60.1420055 107.4865015  46.9681378
  60.8370959 108.1071708  47.1868692  60.4843205 106.6360366  47.2433755
  45.7587864  99.3082816  60.8278195  45.0169600  99.4565451  61.4142825
  45.4380608  99.5691082  59.9644944  62.0411478 104.9364721  48.4968708
  62.5662802 105.2751993  47.7718028  61.9533830 104.0011736  48.3131843
  53.7031527 108.8498794  60.6258585  54.0118653 108.6047941  61.4981285
  54.5007009 109.0545433  60.1377455  53.7252139 111.0036704  52.8563962
  53.2857129 110.5113083  53.5496818  54.4760256 110.4609671  52.6156037
  46.2044478 107.1948245  52.8588590  47.0302498 106.8952017  52.4787233
  45.8538530 106.4255867  53.3078378  51.1726011 106.5474713  54.9286263
  50.5506020 105.8845418  54.6288491  51.8430878 106.5735845  54.2459911
  44.4053083 105.1134571  53.8177523  43.5684991 104.6856745  53.6361524
  44.3776728 105.3067014  54.7548314  51.2450538  95.0256501  64.5218769
  51.2938694  95.9018624  64.1396539  51.7873052  94.4833894  63.9490412
  61.7305384 105.5697624  63.8019906  60.9400928 105.5521763  63.2624406
  61.4938739 106.1085918  64.5568943  61.8503259 102.4190091  61.1152635
  61.9001264 102.2540098  62.0568158  61.7417182 101.5517350  60.7250516
  50.7339518 105.0978636  48.4044724  50.8827638 105.7814101  47.7511396
  51.5405961 105.0783726  48.9194179  59.1407021  98.4021019  62.4311942
  60.0416884  98.2627483  62.1395939  59.2154996  98.5675473  63.3710119
  53.4749827  95.7787873  61.2765128  52.6053136  96.0721439  61.0047716
  53.7109307  96.3628318  61.9972392  63.3521456 104.8387032  61.3594656
  63.0606264 105.2017013  62.1958117  62.7393587 104.1254040  61.1807988
  64.5517138 102.4039912  53.8797227  65.3864030 102.8429716  54.0434787
  64.6876267 101.9278565  53.0605472  61.6008644  99.9619647  59.8274714
  62.0762766 100.1547293  59.0193566  60.6774209 100.0178833  59.5818098
  48.4892151 101.1243814  49.4105793  48.2438193 100.2206144  49.6086003
  48.6588065 101.1260964  48.4685271  56.1788861  91.9967490  58.7930548
  56.6970804  92.7328517  58.4677037  55.8243993  92.3031484  59.6277307
  47.7587798  96.8572171  46.9091954  47.0657043  96.9316526  46.2531990
  47.5139550  96.0932515  47.4313471  56.4301455  88.4167773  54.3131445
  56.7103208  87.7490962  54.9391871  57.2152062  88.6096868  53.8006109
  54.2334923 107.5926767  45.8756471  53.6608890 108.2116954  45.4226943
  54.8067717 108.1426128  46.4096393  60.3010313  96.8385407  58.0603020
  61.2527736  96.9383504  58.0815244  60.1313763  96.0463675  58.5701104
  58.3224693  93.9240990  58.2462421  57.7274625  94.2046003  57.5508910
  58.0374389  94.4134891  59.0179162  57.4532183 107.8763917  47.0065053
  58.3862856 107.8109479  47.2097929  57.3655396 108.7120184  46.5479586
  60.0820200 107.1929787  43.9669001  60.0033831 106.8589651  44.8604759
  60.9029866 107.6851555  43.9660473  62.7798391 100.0591526  57.1745320
  62.7474711  99.1207527  57.3605003  63.3899014 100.1375563  56.4411145
  54.6181722  98.9287579  43.2172524  55.5640826  98.7993788  43.2860942
  54.2395967  98.1902241  43.6941952  62.9292879  96.8502570  57.2203603
  62.4131928  96.0661027  57.0333532  63.8132828  96.5221287  57.3850122
  60.5903606  90.5943585  53.1799415  60.3928427  90.2858674  54.0642747
  61.2003312  91.3205224  53.3097345  68.5974941 101.1207533  56.3151356
  69.3278329 100.8592821  56.8759060  67.9881886 100.3836255  56.3553424
  66.6790238  99.2615396  56.9125808  65.9523401  99.1271361  56.3042299
  66.2637525  99.5692225  57.7182526  54.5020414 102.9805326  64.6773181
  55.4223424 103.1583925  64.8713227  54.4669997 102.0361371  64.5252880
  52.8024639  96.8537556  43.1527409  51.8956094  96.5570669  43.2290122
  53.0800620  96.5567374  42.2861695  43.7202579  98.1743919  53.6026455
  43.4005364  97.3209227  53.3100829  43.1736007  98.3892497  54.3584423
  47.4982487 100.8906360  57.3195962  47.7168497 101.8223468  57.3383996
  47.9108261 100.5314335  58.1050766  54.4186705  91.3974446  49.3071650
  53.6087433  91.0521531  49.6826896  55.1071122  91.0881989  49.8959262
  56.3477253  90.4752492  50.9295947  56.9008291  90.8947946  51.5885970
  56.5847339  89.5488240  50.9718903  52.3710352  96.4639566  66.7098711
  52.2707079  97.4133923  66.6410802  52.1531894  96.1357805  65.8374781
  51.5723423  93.7124491  43.2939388  52.4342587  94.0379389  43.5535205
  51.7573768  92.9255987  42.7812454  43.5890839 101.7946831  55.5719577
  42.8954311 101.3800784  55.0589531  44.3363830 101.8367367  54.9752996
  59.7256060  92.5853018  50.4374611  59.1454729  93.2437822  50.0552663
  59.4591993  91.7630362  50.0262029  58.1759626  91.9858075  52.6395931
  58.6759405  92.0974610  51.8310250  58.8195234  91.6819128  53.2796740
  52.2341622  99.8936705  65.5263772  51.7508704 100.6937065  65.7327661
  52.3202561  99.9044650  64.5731216  45.5027582 101.7265085  53.4485592
  45.4798270 101.8252772  52.4967475  45.8128218 102.5730235  53.7702758
  48.1614960 103.7841240  57.5632206  49.1158213 103.7525182  57.4962138
  47.9627483 103.3231863  58.3782432  48.7514342 102.3542356  60.1303004
  49.5707231 102.8486434  60.1537841  49.0251149 101.4374324  60.1020571
  58.5080938  94.7453108  49.4930959  57.6206793  95.0302759  49.2751154
  58.9234927  94.5846871  48.6458236  61.8595474  94.7699629  53.2085299
  62.6355864  95.2596081  53.4809915  61.1343608  95.1957683  53.6657168
  64.2968033  95.4827248  54.2659239  64.8912524  95.2422984  53.5552547
  64.3694616  94.7634379  54.8932776  57.6524151 104.5097783  43.5878979
  58.3560002 104.7147785  44.2036635  56.9286800 105.0774544  43.8528063
  58.4821962 100.2607644  49.7081249  58.4257163 100.7176195  48.8688882
  59.0350304  99.4998328  49.5304092  62.2926768  96.0497376  50.5331369
  62.0363702  95.6494011  51.3639577  61.6679636  96.7641170  50.4081508
  66.6039105  98.7893449  53.0402660  66.0438663  98.8586638  53.8134222
  65.9982609  98.6134434  52.3202157  59.5610849 104.9480312  45.6377439
  60.3956453 104.5161510  45.4554914  59.3995192 104.7762325  46.5654334
  59.2156741 101.4512425  47.0033779  59.1605545 101.2856697  46.0622223
  58.5902796 102.1588458  47.1595968  44.0049256  96.6880489  60.8295201
  44.6508120  96.1779443  61.3182426  43.7966407  97.4249171  61.4038626
  56.5302648 103.7561337  66.3287341  57.3993808 103.9301989  65.9673976
  56.0509400 104.5755754  66.2063071  52.5252866  90.9520534  46.5819097
  52.5131536  91.8962374  46.7387368  53.4176288  90.7690679  46.2878558
  52.4542430 109.6289424  54.6686854  51.5038061 109.6291286  54.5551226
  52.7574917 108.8822159  54.1522888  56.3404986  87.5463311  50.8365034
  55.5737382  86.9921797  50.9821716  56.7515691  87.6185179  51.6979186
  48.3446747  93.8348107  64.9270215  49.2078209  93.4784911  65.1373540
  47.7712158  93.4962001  65.6145619  62.6993110 114.1865638  45.0011081
  62.9518630 113.6647160  44.2394544  61.7617669 114.0231784  45.1037765
  67.7436392 113.1901417  52.8085824  68.5299482 112.7720840  52.4576241
  68.0075097 114.0947509  52.9767473  73.1444820 113.1276650  53.7118803
  73.8769992 112.5575867  53.9456632  72.3884175 112.7398250  54.1525308
  70.6670240 106.8398224  58.1713411  70.3353565 107.7093635  57.9474626
  70.0715853 106.5234508  58.8507442  64.4026426 110.5793791  45.9043494
  64.5700829 111.4474028  46.2713965  64.2123595 110.7421073  44.9804783
  70.5598903 111.5593310  55.2506761  69.6515781 111.4908719  54.9565522
  70.5086499 112.0365255  56.0788587  64.3815647 113.0351449  46.8890160
  64.2615272 113.4808499  47.7275641  63.6868236 113.3836766  46.3303699
  64.6339769 112.9782956  63.1941659  63.8573103 113.5376876  63.1844523
  65.2730332 113.4639739  63.7156529  72.4260550 109.7609749  57.0284635
  71.7834930 110.0542282  56.3824430  71.9215478 109.6462669  57.8337832
  70.0800713 113.5072922  47.7170495  70.9918569 113.7400309  47.5418192
  69.5710360 114.0909966  47.1545573  64.7172551 112.8670156  58.7265344
  65.5633746 113.2909570  58.8699993  64.6571189 112.2103781  59.4203907
  67.8671996 110.5274525  60.3846518  67.6232928 111.2816585  59.8480793
  68.1431927 110.9059872  61.2193765  67.4236688 109.6830958  55.9660355
  66.5621167 109.9812211  56.2577093  67.4499123 109.9001357  55.0341388
  63.1767144 114.3496301  49.1823726  63.8791187 114.8017344  49.6497653
  62.8447772 113.7080120  49.8103619  61.6247505 112.9408057  63.5574936
  60.9946166 113.6224338  63.7910332  61.5183593 112.8291139  62.6128074
  60.9028248 107.2428823  65.9200187  60.5095193 106.6895022  66.5947831
  61.7194388 107.5539402  66.3106704  63.8196209 108.6586702  63.5120443
  64.5605922 109.2593855  63.4324906  64.0514132 107.9164340  62.9538486
  67.7653372 104.6867805  57.7884725  67.4217641 105.5769447  57.7123836
  68.1332334 104.4969463  56.9254310  67.7303654 114.6776416  46.2957160
  67.2150278 115.4481021  46.5345547  67.4580963 114.0041552  46.9190221
  65.3150765 109.5226117  51.3542398  64.4592362 109.1332967  51.1748037
  65.7277717 109.6018078  50.4942184  66.8449912 107.0572460  55.7533958
  66.3414708 107.0202596  54.9401763  67.1380519 107.9665203  55.8130615
  63.0892798 107.1411190  54.7600140  63.9545795 106.9453999  54.4006029
  63.1570307 106.9121542  55.6869497  67.5189958 112.5503508  48.1216941
  67.2140093 112.8649658  48.9727084  68.4720400 112.6284928  48.1644274
  60.6955117 109.3713398  52.1316507  61.2698869 109.1488580  51.3989700
  61.2826100 109.4402093  52.8845108  69.7534694 115.2587125  52.9380883
  70.2666576 115.8917117  53.4402593  70.4035918 114.6588320  52.5724243
  61.0224704 111.4017859  46.1512392  60.1862016 111.7392546  46.4721667
  60.8829474 111.2666839  45.2139529  62.9977785 106.2454647  50.8591576
  62.3442197 105.9303664  50.2348191  62.9558259 105.6230387  51.5851399
  66.2315525 112.7336580  55.1839224  65.3138087 112.9551527  55.0260912
  66.6475669 112.8082891  54.3250931  67.0150573 114.1327996  50.3141904
  67.7622392 114.6449393  50.0049026  67.2842162 113.8112049  51.1746298
  69.4629410 111.1685112  52.2960693  68.7252167 110.6562499  52.6270936
  69.7156184 110.7285494  51.4843970  69.5641037 103.9461364  52.8902463
  69.8699914 103.0858728  52.6028378  70.2893642 104.5378985  52.6901457
  63.8362117 114.2415157  53.3978654  63.8910727 113.2888994  53.3221130
  63.0253319 114.3974597  53.8819952  61.7754477 112.8592217  51.1569033
  60.9622343 113.1586388  51.5634225  62.2713471 112.4647906  51.8743515
  67.3728689 113.3234042  59.9883926  67.7278076 113.5505515  60.8478392
  68.0200820 113.6552418  59.3661182  73.1026426 116.4452478  50.6933255
  72.9644324 116.6354074  49.7654445  72.7462644 117.2071860  51.1501307
  61.2668552 110.4310573  56.7730267  61.9067931 110.2899332  56.0753231
  60.4346082 110.1445086  56.3968869  58.2697168 110.4010898  51.5503254
  58.5303986 111.3156231  51.4412415  59.0914341 109.9335340  51.6999867
  59.7422094 111.8148655  58.7202079  60.4145147 111.6066017  58.0714728
  58.9151880 111.6170741  58.2807311  65.6447666 108.4410596  60.7367740
  64.9975581 109.1400545  60.6432216  66.4148681 108.8746740  61.1043988
  61.4860825 111.7876435  60.7883835  60.9498182 111.3367174  61.4405431
  60.8977534 111.9222344  60.0454299  60.8963084 111.2465086  43.3510299
  60.0192551 111.1253887  42.9872545  61.3720837 110.4551165  43.0989187
  57.2199947 110.9232443  57.8736830  57.1358135 110.3158112  57.1387240
  56.3982653 111.4141461  57.8746326  67.3923661 109.4086006  53.2407025
  67.8892360 108.6555969  52.9208095  66.6210642 109.4450323  52.6750234
  63.9758629 111.5503389  52.9678709  63.6056417 110.9974430  53.6559615
  64.4717722 110.9461523  52.4153709  71.8625993 114.0075013  51.3495482
  72.3286445 114.8403004  51.2755785  72.3133493 113.5419994  52.0540741
  69.8342655 106.3755600  55.3886384  68.9205735 106.6059827  55.5568590
  70.2635757 106.4594044  56.2400416  69.6049114 114.5645492  57.8886278
  68.9520564 114.8121399  57.2338730  69.9829494 113.7509630  57.5548755
  65.6536687 115.3065303  64.3752315  64.9777324 115.2059432  65.0454690
  66.4764321 115.1504517  64.8388312  59.3723963 108.9607380  59.2131815
  59.4365289 109.8222211  58.8009213  59.3091083 108.3481382  58.4804174
  58.8476235 111.0330513  62.8604850  59.4748274 110.6507590  63.4742374
  57.9904154 110.8144715  63.2260542  59.1536025 110.9162938  54.7750753
  58.4322611 111.5298906  54.6358226  59.9429281 111.4520703  54.6967399
  61.9562339 108.2517365  61.0491405  62.4796741 108.4979661  61.8117714
  61.7374672 109.0837400  60.6294542  57.3529620 110.5221039  48.9162530
  57.0242326 109.6418418  48.7337635  57.7068991 110.4668708  49.8038919
  60.4671443 110.8094009  49.2838007  60.8067515 111.3379930  48.5616616
  60.9143563 111.1474415  50.0596574  63.1614884 109.1931060  58.7341075
  62.8211704 108.3938873  59.1361755  62.4553890 109.4932771  58.1617908
  63.8131356 106.2780372  57.1868398  64.6357425 105.8040851  57.0647289
  64.0569419 107.0570856  57.6867085  62.4539590 109.3068631  47.4831300
  63.1747953 109.6849884  46.9795017  61.8304894 110.0257508  47.5866278
  66.5970713 110.0113780  48.4189632  66.8134327 110.8938418  48.1178460
  66.1164780 109.6199993  47.6895274  61.3369934 112.9699493  54.9960377
  61.1914515 113.2839796  55.8884658  60.8595138 113.5884393  54.4431276
  63.1966317 109.9602041  55.0441266  63.1827886 109.0643134  54.7073564
  63.9138745 109.9672705  55.6779553  65.0492448 110.3939381  57.0894394
  64.7910226 111.3156452  57.0878724  64.5177488 109.9969816  57.7794858
  62.6003213 108.8416421  50.3128837  62.7219124 107.9133067  50.5119724
  62.3105256 108.8555107  49.4007152  65.4694404 106.5271332  53.4495556
  65.4916100 106.5910665  52.4947536  65.8862463 105.6875840  53.6436063
  62.0844293 110.3548419  64.5218769  62.1332448 111.2310541  64.1396539
  62.6266807 109.8125812  63.9490412  69.9800776 113.7312936  62.4311942
  70.8810639 113.5919401  62.1395939  70.0548750 113.8967391  63.3710119
  64.3143581 111.1079791  61.2765128  63.4446891 111.4013357  61.0047716
  64.5503062 111.6920236  61.9972392  72.4402399 115.2911564  59.8274714
  72.9156520 115.4839211  59.0193566  71.5167964 115.3470750  59.5818098
  67.0182615 107.3259408  58.7930548  67.5364559 108.0620435  58.4677037
  66.6637748 107.6323401  59.6277307  58.5981553 112.1864089  46.9091954
  57.9050798 112.2608444  46.2531990  58.3533305 111.4224433  47.4313471
  67.2695209 103.7459690  54.3131445  67.5496963 103.0782880  54.9391871
  68.0545816 103.9388786  53.8006109  71.1404068 112.1677324  58.0603020
  72.0921490 112.2675422  58.0815244  70.9707518 111.3755593  58.5701104
  69.1618447 109.2532908  58.2462421  68.5668379 109.5337920  57.5508910
  68.8768144 109.7426809  59.0179162  73.6192145 115.3883444  57.1745320
  73.5868465 114.4499445  57.3605003  74.2292769 115.4667481  56.4411145
  65.4575476 114.2579497  43.2172524  66.4034581 114.1285705  43.2860942
  65.0789721 113.5194159  43.6941952  73.7686634 112.1794488  57.2203603
  73.2525682 111.3952944  57.0333532  74.6526582 111.8513204  57.3850122
  71.4297361 105.9235503  53.1799415  71.2322182 105.6150591  54.0642747
  72.0397066 106.6497142  53.3097345  63.6418393 112.1829474  43.1527409
  62.7349849 111.8862586  43.2290122  63.9194374 111.8859292  42.2861695
  65.2580459 106.7266363  49.3071650  64.4481187 106.3813448  49.6826896
  65.9464876 106.4173907  49.8959262  67.1871007 105.8044410  50.9295947
  67.7402046 106.2239863  51.5885970  67.4241094 104.8780158  50.9718903
  63.2104107 111.7931484  66.7098711  63.1100833 112.7425841  66.6410802
  62.9925649 111.4649723  65.8374781  62.4117178 109.0416409  43.2939388
  63.2736342 109.3671307  43.5535205  62.5967522 108.2547905  42.7812454
  70.5649814 107.9144935  50.4374611  69.9848484 108.5729739  50.0552663
  70.2985747 107.0922280  50.0262029  69.0153381 107.3149993  52.6395931
  69.5153159 107.4266527  51.8310250  69.6588989 107.0111046  53.2796740
  69.3474692 110.0745026  49.4930959  68.4600547 110.3594676  49.2751154
  69.7628682 109.9138789  48.6458236  72.6989229 110.0991547  53.2085299
  73.4749619 110.5887999  53.4809915  71.9737363 110.5249601  53.6657168
  75.1361787 110.8119166  54.2659239  75.7306278 110.5714902  53.5552547
  75.2088371 110.0926296  54.8932776  69.3215716 115.5899562  49.7081249
  69.2650918 116.0468113  48.8688882  69.8744059 114.8290246  49.5304092
  73.1320522 111.3789293  50.5331369  72.8757456 110.9785929  51.3639577
  72.5073390 112.0933087  50.4081508  77.4432860 114.1185367  53.0402660
  76.8832418 114.1878556  53.8134222  76.8376363 113.9426351  52.3202157
  63.3646621 106.2812452  46.5819097  63.3525291 107.2254292  46.7387368
  64.2570043 106.0982597  46.2878558  67.1798740 102.8755228  50.8365034
  66.4131136 102.3213715  50.9821716  67.5909445 102.9477097  51.6979186
  59.1840502 109.1640024  64.9270215  60.0471963 108.8076829  65.1373540
  58.6105912 108.8253919  65.6145619  13.9926353  15.8252497  42.4577923
  14.6304763  15.7059244  41.7541263  13.8747196  16.7733341  42.5165875
  10.8016059  15.7779925  42.3939447  10.4634571  15.6620990  41.5059982
  11.6705827  15.3771090  42.3740454   6.6602875  17.6315402  38.3836338
   6.0967740  17.5405339  37.6152626   6.5455270  16.8115306  38.8638831
  11.2835842  16.9314777  48.3525653  11.2724483  16.5367575  47.4806157
  11.4456481  16.1980850  48.9459424   4.2067307  19.1266593  41.2220559
   4.9988599  18.7857418  40.8066858   4.4463957  19.2361568  42.1422712
  12.2402433  21.2986369  33.6950803  11.5890413  21.8840450  33.3084817
  13.0346796  21.8292564  33.7545841   6.1658061  18.3875506  34.0937938
   6.9388937  17.8404494  33.9550813   6.5183459  19.2519756  34.3052399
   8.0043103  19.7151889  47.3004837   7.7132969  20.6197520  47.1851503
   8.6400088  19.7568416  48.0148907   8.9299310  17.0928737  43.8906197
   9.5262882  16.8684760  43.1763160   8.9874282  16.3513483  44.4931644
   8.5024338  14.5468173  31.7256388   8.7549859  14.0249694  30.9639851
   7.5648898  14.3834318  31.8283071  13.5467621  13.5503951  39.5331131
  14.3330710  13.1323374  39.1821548  13.8106326  14.4550043  39.7012779
  13.7177699  18.9876801  34.2319788  13.0823532  19.0611428  34.9440692
  13.3875105  19.5770400  33.5538867  18.9476048  13.4879184  40.4364109
  19.6801220  12.9178401  40.6701939  18.1915404  13.1000785  40.8770615
   8.2220627  16.4496279  33.9280763   8.1056885  15.7741182  34.5961847
   8.3322887  15.9628652  33.1112916  10.5652168  15.9106426  37.6327452
  10.2010375  15.3837047  38.3440373  11.4219284  15.5204895  37.4593937
  16.4701469   7.2000758  44.8958718  16.1384793   8.0696169  44.6719933
  15.8747082   6.8837042  45.5752748  10.2057655  10.9396325  32.6288800
  10.3732057  11.8076562  32.9959271  10.0154824  11.1023607  31.7050090
  12.9632988  19.4013304  44.2954631  12.6633711  20.3038343  44.1870438
  12.6184048  19.1345487  45.1475784   6.4145470  15.8527101  40.3291335
   5.4895966  15.7203315  40.5369027   6.6629883  16.6321320  40.8261277
  16.3630132  11.9195844  41.9752068  15.4547009  11.8511253  41.6810829
  16.3117728  12.3967789  42.8033893  10.1846876  13.3953983  33.6135467
  10.0646501  13.8411034  34.4520947   9.4899464  13.7439301  33.0549005
   3.7754281  15.4960375  41.1635124   3.9046662  15.7494854  42.0774536
   3.0951732  16.0888083  40.8439779   7.9453768  26.1657625  37.2625598
   7.8677798  27.1165450  37.3414079   7.3415412  25.8203497  37.9200525
  10.4370998  13.3385490  49.9186965   9.6604332  13.8979410  49.9089830
  11.0761561  13.8242273  50.4401835  18.2291778  10.1212283  43.7529942
  17.5866159  10.4144816  43.1069736  17.7246707  10.0065203  44.5583139
  15.8831942  13.8675456  34.4415801  16.7949798  14.1002843  34.2663499
  15.3741589  14.4512500  33.8790880   8.6917370  16.1470943  49.4804932
   9.4332054  16.6855987  49.2039756   7.9854356  16.7737232  49.6376484
  14.1672710  18.2900084  48.0777094  14.5756066  17.8482494  47.3331726
  13.4449971  17.7152711  48.3311287  10.5203780  13.2272691  45.4510651
  11.3664975  13.6512104  45.5945300  10.4602417  12.5706315  46.1449214
  14.4901524  18.8501274  41.8329383  13.8610387  19.0146989  41.1305450
  14.1027186  19.2642884  42.6040347  18.3690756  19.7855712  39.1873746
  17.6841794  20.1654614  38.6370780  18.4534606  20.3951039  39.9205694
  13.6703225  10.8877059  47.1091824  13.4264157  11.6419120  46.5726100
  13.9463156  11.2662407  47.9439071  15.6241688  17.4315671  45.7869090
  15.8358583  18.0747431  45.1103471  15.5771436  16.5977988  45.3191020
  13.2267917  10.0433492  42.6905662  12.3652396  10.3414746  42.9822400
  13.2530352  10.2603891  41.7586695  10.0429486  18.5875683  39.0979468
  10.5067832  18.8663386  38.3084090   9.7786284  17.6859127  38.9152558
   6.9353567  18.1347164  42.0359231   7.5054924  18.5634432  41.3976715
   7.5261679  17.8529749  42.7343417   8.9798372  14.7098835  35.9069033
   9.6822416  15.1619879  36.3742959   8.6479001  14.0682654  36.5348926
   7.4278734  13.3010592  50.2820242   6.7977394  13.9826872  50.5155639
   7.3214822  13.1893673  49.3373381  16.7387516  20.3087627  43.9591447
  17.5604960  19.9067814  43.6774129  16.7349919  20.2055861  44.9107563
  10.5044119  19.8571670  46.1152158  10.5688552  20.3192077  46.9510330
   9.7955043  19.2269035  46.2434468  24.8293509  16.6526375  40.3076419
  24.0757217  16.0833773  40.1520423  24.9641050  16.6189040  41.2547053
  10.2192137  21.5239778  35.9831138  10.0837812  22.3691313  36.4115986
  10.7601949  21.7259055  35.2197072   3.6721534  19.0415216  36.5559063
   4.1846055  19.8358466  36.7064628   4.3244247  18.3441506  36.4892665
   5.4816419  22.1580972  38.6381816   5.6583047  23.0798937  38.4502800
   6.2773253  21.8439391  39.0676196   4.7668776  14.2045604  48.5143980
   4.6522291  13.3030861  48.8151078   3.9113293  14.4509301  48.1628796
  11.8460613  22.1463344  50.1131480  11.4024468  21.3599723  49.7952385
  12.5077827  22.3342495  49.4475371   6.6047735  23.6759146  44.6392159
   7.1555160  23.5476209  43.8669153   5.7659210  23.9754035  44.2887051
  13.9441851  22.4266144  48.1412881  13.9260327  23.2475025  47.6493151
  14.8661771  22.3020219  48.3663023  10.4014906  19.9410273  48.9836390
  10.9343242  19.1798562  48.7535698   9.8728987  19.6483925  49.7260544
   1.6370451  17.3703870  37.3318634   2.4745673  17.7800878  37.1152341
   1.8148719  16.4303312  37.3018828  13.5334883  15.0378951  33.0202467
  13.0181507  15.8083555  33.2590854  13.2612192  14.3644087  33.6435528
  11.1181994   9.8828651  38.0787705  10.2623591   9.4935502  37.8993344
  11.5308946   9.9620612  37.2187491  18.5069157  17.7911305  34.9555640
  17.7298600  17.4522465  34.5110802  19.1860638  17.7963928  34.2810605
  13.3221186  12.9106043  34.8462248  13.0171322  13.2252192  35.6972391
  14.2751629  12.9887463  34.8889581  11.7667618  19.0696266  36.4955202
  11.2388980  18.3349026  36.1828439  11.2655121  19.8470942  36.2495170
  16.7460464  17.2645286  41.6122248  16.0884139  17.9544548  41.7002377
  17.5500863  17.6541718  41.9556234  15.5565923  15.6189659  39.6626190
  16.0697805  16.2519651  40.1647900  16.2067147  15.0190855  39.2969550
   9.9120218  16.8876476  29.4990175   9.0047280  16.6565730  29.6981324
  10.4091250  16.0914095  29.6864156  12.8188297  25.5973983  32.4186861
  12.1449996  25.9005680  33.0271819  13.2054119  26.4003064  32.0692318
  12.0346754  13.0939115  41.9084530  11.1169315  13.3154062  41.7506218
  12.4506898  13.1685425  41.0496238  12.8181802  14.4930530  37.0387211
  13.5653621  15.0051928  36.7294333  13.0873391  14.1714583  37.8991604
  11.0908452  16.9889071  34.0214165  10.1819671  16.7048104  34.1186635
  11.1203536  17.4088150  33.1617472  16.3227719  20.5995661  37.7905333
  15.8690046  19.7586570  37.8470523  15.6921686  21.2357059  38.1280113
  15.2660639  11.5287647  39.0206000  14.5283396  11.0165033  39.3516243
  15.5187412  11.0888028  38.2089277  14.7660659  22.4372157  38.7255151
  15.0583633  22.9977214  38.0067516  15.2759279  22.7300718  39.4808310
   9.6393346  14.6017692  40.1223960   9.6941956  13.6491528  40.0466437
   8.8284548  14.7577131  40.6065259  10.7884540  18.5297815  31.3602244
  10.3503970  17.8133674  30.9007881  11.5294981  18.7573930  30.7987335
   7.5785706  13.2194751  37.8814339   6.7653571  13.5188922  38.2879531
   8.0744700  12.8250440  38.5988821   9.7294284  23.2152508  39.8148604
   9.6870463  23.4413355  38.8857136  10.6456983  22.9815883  39.9634405
  13.1759918  13.6836576  46.7129233  13.5309305  13.9108049  47.5723699
  13.8232049  14.0154953  46.0906488  18.9057654  16.8055012  37.4178562
  18.7675553  16.9956608  36.4899751  18.5493873  17.5674395  37.8746613
  18.9327034  18.8731539  42.4289834  19.3663541  18.7806828  43.2772888
  19.6458615  18.8489039  41.7909850   7.8460085  20.0915537  39.6110567
   8.6400683  19.5965858  39.4093142   7.1351777  19.5633401  39.2478272
  12.6654929  22.4733633  43.9622934  12.7191951  23.0424569  44.7300650
  11.7969710  22.6435518  43.5976971  19.7942584  18.9155239  44.9622719
  19.9878474  19.8201050  45.2081994  19.6943202  18.4562659  45.7961304
  11.4478894   8.8013130  47.4613046  10.8006809   9.5003080  47.3677523
  12.2179910   9.2349274  47.8289295  14.8557692  19.0661982  50.5363600
  14.7043199  18.8372534  49.6193683  14.8462372  20.0232584  50.5494945
  11.6243029  16.6393895  45.5209866  12.5535089  16.7905055  45.3478833
  11.2034059  16.7277916  44.6658513  10.4231361  20.6644559  43.2908404
  10.2842446  20.2963344  44.1634342   9.6345957  21.1792199  43.1192361
  11.0179512  25.7653656  34.6333940  11.1931268  25.2941699  35.4479563
  10.3312301  26.3919422  34.8615201  11.9736576  20.0426162  40.6797241
  11.6386408  20.0026932  41.5754891  11.4740521  19.3770878  40.2067652
   5.9480820  15.4493792  46.2049823   5.8100618  14.7174031  46.8061362
   6.8585743  15.3602692  45.9234010  14.9095767  17.3882196  30.9534301
  14.2924938  16.6629025  30.8567354  14.4412256  18.1491557  30.6101375
   8.5763120  15.1613751  45.6933502   9.2862739  14.5206944  45.6520121
   8.5332428  15.4126646  46.6159683  16.5649899  22.0981105  48.6140081
  16.5062445  21.4140325  47.9470664  16.9669417  22.8400095  48.1620707
   7.2892054  12.1478969  47.5129142   6.7529411  11.6969708  48.1650738
   6.7008763  12.2824878  46.7699606   5.5840598  28.9143019  41.4073800
   5.8237196  29.5461543  42.0852819   4.7409794  28.5631059  41.6939160
  16.5667306  20.0620689  46.8454061  15.6794085  19.7246610  46.9680460
  17.1365857  19.3303720  47.0822827  10.0968460  24.7222141  43.8115304
  10.0238631  25.5277113  44.3234609   9.6545853  24.9214107  42.9863326
   9.8858239  23.9593911  37.3218126   9.1025761  24.5015591  37.4156350
  10.5850984  24.4767891  37.7212367  13.1954889   9.7688541  39.9652331
  13.6923589   9.0158503  39.6453402  12.4241871   9.8052857  39.3995541
  21.0484647  15.4728906  41.6070623  21.0374523  16.3553621  41.2364556
  20.1802026  15.1200457  41.4125160  12.5567143  24.6208975  45.9673463
  13.2695115  25.2556440  45.8949364  12.0657172  24.7172841  45.1513465
  14.2784670  18.5260228  37.5390755  13.3440949  18.6461690  37.3695459
  14.4561339  17.6232695  37.2750765   9.7789858  11.9105924  39.6924016
   9.4087646  11.3576964  40.3804921  10.2748951  11.3064057  39.1399016
  17.6657221  14.3677547  38.0740789  18.1317674  15.2005539  38.0001091
  18.1164722  13.9022529  38.7786047   7.6079057  22.3703419  46.7879034
   8.3088516  23.0039901  46.9408428   7.1374172  22.7118150  46.0274673
  15.7333453  20.7121368  35.0726941  16.0093296  20.5977963  35.9820815
  14.8637951  20.3138853  35.0339114  15.6373884   6.7358134  42.1131690
  14.7236964   6.9662361  42.2813897  16.0666986   6.8196578  42.9645723
  15.4080343  14.9248026  44.6131584  14.7551793  15.1723933  43.9584037
  15.7860723  14.1112164  44.2794061  12.3687517  24.9607719  38.7159754
  12.5509911  24.1429375  39.1787507  13.1920503  25.1775411  38.2784644
  12.7029682  23.8875904  35.9774803  13.2317448  23.3768359  35.3644965
  12.9657902  23.5718434  36.8420336  11.4567916  15.6667837  51.0997621
  10.7808553  15.5661966  51.7699996  12.2795550  15.5107051  51.5633618
   3.2046775  21.9039774  43.7210137   3.7900212  21.1583461  43.8538041
   3.0071613  22.2143730  44.6046800   6.0585430  24.9391021  38.7372579
   5.3895805  25.4237149  38.2536619   5.9198300  25.1860241  39.6515957
  10.1990699  26.9734764  45.3355237  10.7509007  27.1366386  46.1004322
  10.5396892  27.5639202  44.6635262  15.0501573  21.7996022  51.1903892
  15.5941477  22.4125980  50.6958846  14.4688418  22.3575600  51.7070905
  13.3359086  24.9216740  42.3218919  13.2110225  24.1206480  41.8129865
  13.9938177  25.4162933  41.8332889  15.3993994  22.7225760  43.9498470
  14.4524330  22.6031111  43.8776796  15.7476767  21.8348258  44.0324731
  12.4040428  22.5178476  40.1502822  12.2565390  21.5895184  40.3310392
  13.2293921  22.5398567  39.6659897  16.0074549  23.3407035  41.2367694
  16.9321097  23.1349896  41.0992146  15.8389853  23.0923436  42.1457036
  12.4001942  10.3716314  35.1434939  12.6165556  11.2540952  34.8423767
  11.9196009   9.9802527  34.4140581   7.1401163  13.3302027  41.7205684
   6.9945744  13.6442330  42.6129965   6.6626367  13.9486928  41.1676582
  10.8523677  10.7541915  43.8139701  10.5941455  11.6758986  43.8124031
  10.3208717  10.3572350  44.5040165  15.7969866  23.8592702  36.5929786
  15.9706743  23.2939125  35.8403638  16.2898757  24.6593597  36.4109276
   1.6146825  15.8707372  44.6593345   1.0700293  16.6467180  44.7913619
   2.4926175  16.2178176  44.5012466  21.6509257  16.6229125  38.2120086
  22.0940403  15.8736451  37.8139209  20.7735767  16.6139262  37.8293818
  16.7845038  23.1759467  33.6926684  17.4795943  23.7966160  33.9113999
  17.1268188  22.3254818  33.9679062  18.6836461  20.6259172  35.2214015
  19.2087785  20.9646445  34.4963335  18.5958814  19.6906188  35.0377150
  10.3456510  24.5393246  47.3503892  10.6543636  24.2942393  48.2226591
  11.1431992  24.7439885  46.8622762  10.3677122  26.6931156  39.5809268
   9.9282112  26.2007534  40.2742125  11.1185239  26.1504123  39.3401343
   2.8469461  22.8842697  39.5833896   3.6727481  22.5846468  39.2032540
   2.4963513  22.1150319  40.0323685   7.8150994  22.2369165  41.6531570
   7.1931003  21.5739870  41.3533798   8.4855861  22.2630297  40.9705218
  18.3730367  21.2592076  50.5265213  17.5825911  21.2416215  49.9869712
  18.1363722  21.7980370  51.2814250  18.4928242  18.1084542  47.8397941
  18.5426247  17.9434550  48.7813464  18.3842166  17.2411801  47.4495822
   7.3764501  20.7873088  35.1290030   7.5252621  21.4708553  34.4756703
   8.1830944  20.7678178  35.6439486  15.7832005  14.0915470  49.1557248
  16.6841867  13.9521935  48.8641246  15.8579979  14.2569925  50.0955426
  10.1174810  11.4682325  48.0010435   9.2478119  11.7615891  47.7293023
  10.3534290  12.0522770  48.7217698  19.9946439  20.5281484  48.0839963
  19.7031247  20.8911465  48.9203424  19.3818570  19.8148492  47.9053295
  21.1942121  18.0934364  40.6042533  22.0289013  18.5324168  40.7680094
  21.3301250  17.6173017  39.7850779  18.2433627  15.6514099  46.5520021
  18.7187749  15.8441745  45.7438872  17.3199193  15.7073284  46.3063405
   5.1317134  16.8138266  36.1351099   4.8863176  15.9100596  36.3331309
   5.3013048  16.8155416  35.1930577  12.8213844   7.6861942  45.5175855
  13.3395788   8.4222969  45.1922343  12.4668977   7.9925935  46.3522614
  10.8759907  23.2821219  32.6001778  10.3033874  23.9011406  32.1472250
  11.4492700  23.8320580  33.1341700  16.9435296  12.5279859  44.7848327
  17.8952719  12.6277956  44.8060551  16.7738747  11.7358127  45.2946411
  14.9649676   9.6135442  44.9707728  14.3699608   9.8940455  44.2754216
  14.6799373  10.1029343  45.7424469  14.0957166  23.5658369  33.7310360
  15.0287839  23.5003930  33.9343236  14.0080379  24.4014636  33.2724893
  16.7245183  22.8824239  30.6914308  16.6458814  22.5484103  31.5850066
  17.5454850  23.3746007  30.6905780  19.4223374  15.7485978  43.8990626
  19.3899694  14.8101979  44.0850310  20.0323998  15.8270015  43.1656451
  11.2606705  14.6182031  29.9417830  12.2065810  14.4888239  30.0106248
  10.8820950  13.8796693  30.4187258  19.5717863  12.5397022  43.9448909
  19.0556911  11.7555478  43.7578838  20.4557811  12.2115738  44.1095429
  17.2328590   6.2838037  39.9044722  17.0353411   5.9753126  40.7888054
  17.8428295   7.0099676  40.0342652  25.2399924  16.8101985  43.0396663
  25.9703312  16.5487273  43.6004366  24.6306869  16.0730707  43.0798731
  23.3215221  14.9509848  43.6371114  22.5948385  14.8165813  43.0287606
  22.9062508  15.2586676  44.4427832  11.1445398  18.6699777  51.4018487
  12.0648407  18.8478376  51.5958534  11.1094981  17.7255823  51.2498187
   4.1407470  16.5800812  44.0441268   4.3593480  17.5117920  44.0629302
   4.5533244  16.2208787  44.8296072   9.0135335  12.1534018  53.4344017
   8.9132062  13.1028375  53.3656108   8.7956877  11.8252257  52.5620087
  16.3681043   8.2747469  37.1619918  15.7879712   8.9332273  36.7797970
  16.1016976   7.4524814  36.7507335  14.8184610   7.6752527  39.3641238
  15.3184388   7.7869062  38.5555557  15.4620218   7.3713580  40.0042046
   8.8766605  15.5831157  52.2509079   8.3933687  16.3831517  52.4572968
   8.9627544  15.5939102  51.2976523   2.1452565  17.4159536  40.1730898
   2.1223253  17.5147224  39.2212781   2.4553202  18.2624687  40.4948065
   4.8039943  19.4735691  44.2877513   5.7583196  19.4419634  44.2207444
   4.6052467  19.0126315  45.1027739   5.3939325  18.0436807  46.8548310
   6.2132214  18.5380886  46.8783148   5.6676133  17.1268776  46.8265878
  15.1505921  10.4347560  36.2176266  14.2631776  10.7197210  35.9996461
  15.5659910  10.2741323  35.3703543  18.5020457  10.4594081  39.9330605
  19.2780848  10.9490533  40.2055222  17.7768592  10.8852135  40.3902475
  20.9393016  11.1721700  40.9904546  21.5337507  10.9317436  40.2797854
  21.0119600  10.4528831  41.6178082   3.1590172  25.0155311  41.3047711
   3.0244640  24.2555712  40.7385709   2.7422234  25.7396211  40.8376500
  14.2949135  20.1992234  30.3124286  14.9984985  20.4042237  30.9281942
  13.5711784  20.7668996  30.5773369  15.1246945  15.9502096  36.4326556
  15.0682146  16.4070647  35.5934189  15.6775287  15.1892780  36.2549399
  18.9351751  11.7391828  37.2576676  18.6788685  11.3388463  38.0884883
  18.3104619  12.4535622  37.1326815  23.2464089  14.4787901  39.7647967
  22.6863647  14.5481090  40.5379529  22.6407592  14.3028885  39.0447463
   6.3159298  25.9124628  41.5166153   6.1991682  26.8570060  41.4144844
   5.4951744  25.6098189  41.9051953  16.2035832  20.6374764  32.3622746
  17.0381436  20.2055962  32.1800221  16.0420175  20.4656777  33.2899641
  15.8581724  17.1406877  33.7279085  15.8030528  16.9751148  32.7867529
  15.2327780  17.8482910  33.8841275  13.1727632  19.4455789  53.0532648
  14.0418791  19.6196441  52.6919283  12.6934383  20.2650206  52.9308377
   7.3413812  26.5652890  44.7322082   8.2441058  26.5976500  45.0488577
   7.1151182  25.6353341  44.7468418   9.0967414  25.3183876  41.3932160
   8.1463045  25.3185738  41.2796533   9.3999900  24.5716611  40.8768195
  24.8320107  31.1544415  42.4577923  25.4698517  31.0351162  41.7541263
  24.7140950  32.1025259  42.5165875  21.6409814  31.1071843  42.3939447
  21.3028325  30.9912908  41.5059982  22.5099582  30.7063008  42.3740454
  17.4996629  32.9607319  38.3836338  16.9361494  32.8697256  37.6152626
  17.3849024  32.1407224  38.8638831  22.1229597  32.2606695  48.3525653
  22.1118237  31.8659493  47.4806157  22.2850236  31.5272767  48.9459424
  15.0461061  34.4558511  41.2220559  15.8382353  34.1149336  40.8066858
  15.2857711  34.5653486  42.1422712  23.0796188  36.6278287  33.6950803
  22.4284168  37.2132367  33.3084817  23.8740551  37.1584482  33.7545841
  17.0051815  33.7167424  34.0937938  17.7782691  33.1696411  33.9550813
  17.3577214  34.5811673  34.3052399  18.8436858  35.0443806  47.3004837
  18.5526724  35.9489437  47.1851503  19.4793842  35.0860334  48.0148907
  19.7693065  32.4220655  43.8906197  20.3656637  32.1976677  43.1763160
  19.8268036  31.6805400  44.4931644  19.3418093  29.8760090  31.7256388
  19.5943614  29.3541612  30.9639851  18.4042652  29.7126236  31.8283071
  24.3861376  28.8795869  39.5331131  25.1724465  28.4615292  39.1821548
  24.6500080  29.7841961  39.7012779  24.5571453  34.3168719  34.2319788
  23.9217286  34.3903345  34.9440692  24.2268859  34.9062318  33.5538867
  29.7869803  28.8171102  40.4364109  30.5194975  28.2470319  40.6701939
  29.0309159  28.4292702  40.8770615  19.0614382  31.7788196  33.9280763
  18.9450640  31.1033100  34.5961847  19.1716642  31.2920570  33.1112916
  21.4045923  31.2398343  37.6327452  21.0404130  30.7128964  38.3440373
  22.2613038  30.8496812  37.4593937  27.3095223  22.5292676  44.8958718
  26.9778548  23.3988087  44.6719933  26.7140837  22.2128960  45.5752748
  21.0451410  26.2688243  32.6288800  21.2125812  27.1368479  32.9959271
  20.8548579  26.4315525  31.7050090  23.8026743  34.7305222  44.2954631
  23.5027466  35.6330261  44.1870438  23.4577802  34.4637405  45.1475784
  17.2539224  31.1819019  40.3291335  16.3289721  31.0495233  40.5369027
  17.5023637  31.9613238  40.8261277  27.2023887  27.2487762  41.9752068
  26.2940764  27.1803171  41.6810829  27.1511482  27.7259707  42.8033893
  21.0240630  28.7245901  33.6135467  20.9040256  29.1702951  34.4520947
  20.3293219  29.0731218  33.0549005  14.6148035  30.8252292  41.1635124
  14.7440416  31.0786771  42.0774536  13.9345487  31.4180000  40.8439779
  18.7847523  41.4949542  37.2625598  18.7071552  42.4457367  37.3414079
  18.1809166  41.1495415  37.9200525  21.2764752  28.6677408  49.9186965
  20.4998086  29.2271328  49.9089830  21.9155315  29.1534191  50.4401835
  29.0685533  25.4504201  43.7529942  28.4259913  25.7436734  43.1069736
  28.5640461  25.3357121  44.5583139  26.7225697  29.1967374  34.4415801
  27.6343553  29.4294760  34.2663499  26.2135344  29.7804418  33.8790880
  19.5311125  31.4762861  49.4804932  20.2725809  32.0147905  49.2039756
  18.8248110  32.1029150  49.6376484  25.0066464  33.6192002  48.0777094
  25.4149820  33.1774412  47.3331726  24.2843726  33.0444629  48.3311287
  21.3597534  28.5564608  45.4510651  22.2058729  28.9804022  45.5945300
  21.2996172  27.8998233  46.1449214  25.3295279  34.1793192  41.8329383
  24.7004141  34.3438906  41.1305450  24.9420941  34.5934802  42.6040347
  29.2084511  35.1147630  39.1873746  28.5235549  35.4946531  38.6370780
  29.2928360  35.7242957  39.9205694  24.5096980  26.2168977  47.1091824
  24.2657912  26.9711037  46.5726100  24.7856910  26.5954324  47.9439071
  26.4635442  32.7607589  45.7869090  26.6752338  33.4039349  45.1103471
  26.4165191  31.9269906  45.3191020  24.0661671  25.3725410  42.6905662
  23.2046150  25.6706663  42.9822400  24.0924106  25.5895809  41.7586695
  20.8823241  33.9167600  39.0979468  21.3461586  34.1955303  38.3084090
  20.6180039  33.0151045  38.9152558  17.7747322  33.4639082  42.0359231
  18.3448679  33.8926350  41.3976715  18.3655434  33.1821666  42.7343417
  19.8192127  30.0390753  35.9069033  20.5216170  30.4911796  36.3742959
  19.4872755  29.3974571  36.5348926  18.2672488  28.6302509  50.2820242
  17.6371149  29.3118790  50.5155639  18.1608576  28.5185591  49.3373381
  13.5617461  28.2974305  41.2086166  12.7716515  28.5531834  40.7326277
  14.0528708  29.1122643  41.3138207  27.5781270  35.6379544  43.9591447
  28.3998714  35.2359732  43.6774129  27.5743673  35.5347779  44.9107563
  15.5132206  28.6618885  38.1669643  14.7163369  28.7737579  38.6853139
  15.2857798  29.0005537  37.3010534  21.3437874  35.1863588  46.1152158
  21.4082306  35.6483995  46.9510330  20.6348798  34.5560953  46.2434468
  11.8455164  28.5504796  43.6401157  12.0963202  29.4351806  43.9058733
  12.3814712  28.3709397  42.8676249  35.6687263  31.9818293  40.3076419
  34.9150972  31.4125691  40.1520423  35.8034805  31.9480957  41.2547053
  21.0585891  36.8531695  35.9831138  20.9231566  37.6983231  36.4115986
  21.5995704  37.0550973  35.2197072  17.5453231  22.9323275  52.6445493
  17.1520177  22.3789474  53.3193138  18.3619371  23.2433854  53.0352011
  14.5115289  34.3707133  36.5559063  15.0239809  35.1650384  36.7064628
  15.1638002  33.6733424  36.4892665  16.3210174  37.4872890  38.6381816
  16.4976802  38.4090854  38.4502800  17.1167007  37.1731309  39.0676196
  20.4621192  24.3481154  50.2365750  21.2030905  24.9488307  50.1570212
  20.6939115  23.6058792  49.6783792  15.6062530  29.5337521  48.5143980
  15.4916045  28.6322779  48.8151078  14.7507048  29.7801218  48.1628796
  22.6854368  37.4755262  50.1131480  22.2418222  36.6891640  49.7952385
  23.3471581  37.6634412  49.4475371  17.4441489  39.0051063  44.6392159
  17.9948914  38.8768127  43.8669153  16.6052965  39.3045952  44.2887051
  24.7835606  37.7558062  48.1412881  24.7654081  38.5766943  47.6493151
  25.7055526  37.6312137  48.3663023  21.2408660  35.2702191  48.9836390
  21.7736997  34.5090479  48.7535698  20.7122741  34.9775843  49.7260544
  24.4078355  20.3762257  44.5130032  24.0642624  21.2663899  44.4369142
  24.7757318  20.1863915  43.6499617  12.4764206  32.6995788  37.3318634
  13.3139428  33.1092796  37.1152341  12.6542473  31.7595230  37.3018828
  24.3728638  30.3670868  33.0202467  23.8575261  31.1375473  33.2590854
  24.1005946  29.6936004  33.6435528  21.9575749  25.2120569  38.0787705
  21.1017345  24.8227419  37.8993344  22.3702701  25.2912530  37.2187491
  23.4874895  22.7466912  42.4779265  22.9839691  22.7097047  41.6647070
  23.7805502  23.6559655  42.5375921  19.7317781  22.8305642  41.4845447
  20.5970778  22.6348451  41.1251336  19.7995290  22.6015994  42.4114803
  29.3462912  33.1203223  34.9555640  28.5692355  32.7814382  34.5110802
  30.0254393  33.1255846  34.2810605  24.1614941  28.2397960  34.8462248
  23.8565076  28.5544109  35.6972391  25.1145383  28.3179380  34.8889581
  22.6061373  34.3988184  36.4955202  22.0782734  33.6640943  36.1828439
  22.1048875  35.1762860  36.2495170  27.5854219  32.5937204  41.6122248
  26.9277893  33.2836466  41.7002377  28.3894618  32.9833636  41.9556234
  17.3380100  25.0607850  38.8561813  17.9123852  24.8383031  38.1235006
  17.9251083  25.1296544  39.6090415  26.3959678  30.9481577  39.6626190
  26.9091559  31.5811569  40.1647900  27.0460901  30.3482772  39.2969550
  17.6649687  27.0912311  32.8757699  16.8287000  27.4286997  33.1966973
  17.5254457  26.9561291  31.9384836  19.6402768  21.9349099  37.5836883
  18.9867180  21.6198116  36.9593498  19.5983242  21.3124839  38.3096706
  20.7513973  32.2168394  29.4990175  19.8441035  31.9857647  29.6981324
  21.2485005  31.4206013  29.6864156  23.6582052  40.9265901  32.4186861
  22.9843751  41.2297598  33.0271819  24.0447874  41.7294981  32.0692318
  22.8740508  28.4231032  41.9084530  21.9563070  28.6445979  41.7506218
  23.2900652  28.4977343  41.0496238  23.6575556  29.8222448  37.0387211
  24.4047375  30.3343845  36.7294333  23.9267146  29.5006501  37.8991604
  21.9302206  32.3180989  34.0214165  21.0213426  32.0340022  34.1186635
  21.9597290  32.7380067  33.1617472  27.1621474  35.9287578  37.7905333
  26.7083801  35.0878488  37.8470523  26.5315441  36.5648977  38.1280113
  26.1054393  26.8579564  39.0206000  25.3677150  26.3456950  39.3516243
  26.3581167  26.4179946  38.2089277  25.6054413  37.7664075  38.7255151
  25.8977387  38.3269132  38.0067516  26.1153034  38.0592636  39.4808310
  26.2066021  19.6355816  39.6147769  26.5124897  18.7753180  39.3273684
  26.9318625  20.2273436  39.4146763  12.4990377  30.0386503  38.0029367
  12.3014777  29.4455864  37.2780434  11.9437041  29.7338713  38.7205306
  20.4787100  29.9309609  40.1223960  20.5335710  28.9783446  40.0466437
  19.6678302  30.0869048  40.6065259  21.6278294  33.8589732  31.3602244
  21.1897724  33.1425591  30.9007881  22.3688735  34.0865847  30.7987335
  18.4179460  28.5486669  37.8814339  17.6047326  28.8480840  38.2879531
  18.9138455  28.1542358  38.5988821  20.5688038  38.5444426  39.8148604
  20.5264217  38.7705272  38.8857136  21.4850737  38.3107801  39.9634405
  24.0153672  29.0128494  46.7129233  24.3703060  29.2399967  47.5723699
  24.6625803  29.3446870  46.0906488  29.7451409  32.1346929  37.4178562
  29.6069308  32.3248525  36.4899751  29.3887628  32.8966312  37.8746613
  17.9093535  26.1205025  43.4975574  18.5492914  25.9793784  42.7998537
  17.0771066  25.8339538  43.1214176  29.7720789  34.2023456  42.4289834
  30.2057295  34.1098746  43.2772888  30.4852369  34.1780957  41.7909850
  18.6853839  35.4207455  39.6110567  19.4794437  34.9257775  39.4093142
  17.9745531  34.8925318  39.2478272  23.5048683  37.8025551  43.9622934
  23.5585706  38.3716487  44.7300650  22.6363465  37.9727436  43.5976971
  14.9936602  29.5650537  35.6870319  14.0634191  29.5034992  35.9040281
  15.0894074  29.0426490  34.8906961  14.9122152  26.0905350  38.2748561
  15.1728969  27.0050683  38.1657721  15.7339324  25.6229792  38.4245174
  16.3847077  27.5043107  45.4447385  17.0570130  27.2960469  44.7960034
  15.5576863  27.3065193  45.0052618  30.6336338  34.2447157  44.9622719
  30.8272228  35.1492968  45.2081994  30.5336956  33.7854576  45.7961304
  22.2872649  24.1305048  47.4613046  21.6400564  24.8294997  47.3677523
  23.0573664  24.5641192  47.8289295  25.6951447  34.3953900  50.5363600
  25.5436953  34.1664452  49.6193683  25.6856126  35.3524501  50.5494945
  22.4636783  31.9685813  45.5209866  23.3928843  32.1196972  45.3478833
  22.0427813  32.0569833  44.6658513  21.2625115  35.9936477  43.2908404
  21.1236201  35.6255261  44.1634342  20.4739711  36.5084116  43.1192361
  21.8573267  41.0945573  34.6333940  22.0325023  40.6233617  35.4479563
  21.1706055  41.7211340  34.8615201  22.8130330  35.3718080  40.6797241
  22.4780163  35.3318850  41.5754891  22.3134276  34.7062796  40.2067652
  16.7874574  30.7785710  46.2049823  16.6494372  30.0465949  46.8061362
  17.6979498  30.6894610  45.9234010  25.7489522  32.7174114  30.9534301
  25.1318692  31.9920942  30.8567354  25.2806010  33.4783474  30.6101375
  19.4156875  30.4905669  45.6933502  20.1256493  29.8498861  45.6520121
  19.3726183  30.7418564  46.6159683  27.4043653  37.4273022  48.6140081
  27.3456200  36.7432243  47.9470664  27.8063172  38.1692012  48.1620707
  18.1285809  27.4770887  47.5129142  17.5923166  27.0261625  48.1650738
  17.5402517  27.6116796  46.7699606  16.4234352  44.2434936  41.4073800
  16.6630950  44.8753460  42.0852819  15.5803549  43.8922976  41.6939160
  17.5388068  26.9359538  30.0755605  16.6617534  26.8148339  29.7117852
  18.0145821  26.1445617  29.8234494  27.4061061  35.3912606  46.8454061
  26.5187839  35.0538528  46.9680460  27.9759612  34.6595638  47.0822827
   9.0590208  31.7236698  40.1697113   9.7461248  31.4098428  39.5818128
   8.9038337  32.6278063  39.8964364  13.8624930  26.6126895  44.5982136
  13.7783119  26.0052564  43.8632546  13.0407636  27.1035913  44.5991633
  20.9362214  40.0514059  43.8115304  20.8632386  40.8569030  44.3234609
  20.4939607  40.2506025  42.9863326  20.7251994  39.2885829  37.3218126
  19.9419516  39.8307509  37.4156350  21.4244739  39.8059808  37.7212367
  24.0348644  25.0980458  39.9652331  24.5317343  24.3450421  39.6453402
  23.2635625  25.1344775  39.3995541  31.8878401  30.8020824  41.6070623
  31.8768277  31.6845539  41.2364556  31.0195781  30.4492375  41.4125160
  23.3960898  39.9500893  45.9673463  24.1088870  40.5848358  45.8949364
  22.9050926  40.0464759  45.1513465  25.1178425  33.8552145  37.5390755
  24.1834703  33.9753608  37.3695459  25.2955093  32.9524612  37.2750765
  20.6183613  27.2397841  39.6924016  20.2481400  26.6868882  40.3804921
  21.1142705  26.6355975  39.1399016  28.5050976  29.6969465  38.0740789
  28.9711428  30.5297456  38.0001091  28.9558476  29.2314446  38.7786047
  18.4472811  37.6995336  46.7879034  19.1482271  38.3331819  46.9408428
  17.9767926  38.0410068  46.0274673  26.5727207  36.0413286  35.0726941
  26.8487051  35.9269881  35.9820815  25.7031706  35.6430771  35.0339114
  26.4767639  22.0650052  42.1131690  25.5630718  22.2954279  42.2813897
  26.9060740  22.1488496  42.9645723  26.2474097  30.2539944  44.6131584
  25.5945547  30.5015851  43.9584037  26.6254477  29.4404082  44.2794061
  23.2081271  40.2899637  38.7159754  23.3903666  39.4721293  39.1787507
  24.0314257  40.5067329  38.2784644  23.5423437  39.2167822  35.9774803
  24.0711203  38.7060277  35.3644965  23.8051656  38.9010352  36.8420336
  22.2961670  30.9959755  51.0997621  21.6202307  30.8953884  51.7699996
  23.1189304  30.8398968  51.5633618  14.0440529  37.2331691  43.7210137
  14.6293966  36.4875379  43.8538041  13.8465368  37.5435648  44.6046800
  16.8979184  40.2682939  38.7372579  16.2289560  40.7529066  38.2536619
  16.7592054  40.5152159  39.6515957   8.6358184  29.8037291  42.4414580
   8.6742283  29.2700882  43.2351698   8.1298477  29.2772497  41.8225557
  21.0384453  42.3026682  45.3355237  21.5902761  42.4658304  46.1004322
  21.3790646  42.8931120  44.6635262  16.0148946  24.6501832  45.9377122
  16.0790273  25.5116663  45.5254520  15.9516067  24.0375834  45.2049480
  15.4901219  26.7224965  49.5850156  16.1173258  26.3402042  50.1987681
  14.6329138  26.5039166  49.9505849  25.8895327  37.1287940  51.1903892
  26.4335231  37.7417898  50.6958846  25.3082172  37.6867518  51.7070905
  12.2666762  28.5301394  35.5168511  12.5620203  27.6212072  35.4635565
  11.3654797  28.5089133  35.1949513  24.1752840  40.2508658  42.3218919
  24.0503980  39.4498398  41.8129865  24.8331931  40.7454851  41.8332889
  15.7961009  26.6057390  41.4996060  15.0747594  27.2193358  41.3603533
  16.5854264  27.1415155  41.4212706  26.2387749  38.0517678  43.9498470
  25.2918084  37.9323029  43.8776796  26.5870522  37.1640176  44.0324731
  18.5987322  23.9411817  47.7736711  19.1221724  24.1874113  48.5363021
  18.3799655  24.7731852  47.3539849  13.9954603  26.2115491  35.6407836
  13.6667309  25.3312870  35.4582942  14.3493974  26.1563160  36.5284225
  23.2434182  37.8470394  40.1502822  23.0959144  36.9187101  40.3310392
  24.0687676  37.8690485  39.6659897  17.1096426  26.4988461  36.0083314
  17.4492499  27.0274382  35.2861922  17.5568547  26.8368867  36.7841880
  26.8468304  38.6698953  41.2367694  27.7714851  38.4641814  41.0992146
  26.6783607  38.4215354  42.1457036  19.8039867  24.8825512  45.4586382
  19.4636687  24.0833325  45.8607062  19.0978873  25.1827223  44.8863215
  20.4556339  21.9674824  43.9113705  21.2782408  21.4935302  43.7892595
  20.6994402  22.7465308  44.4112391  19.0964573  24.9963083  34.2076607
  19.8172936  25.3744335  33.7040323  18.4729878  25.7151959  34.3111585
  23.2395696  25.7008232  35.1434939  23.4559311  26.5832870  34.8423767
  22.7589763  25.3094445  34.4140581  17.9794918  28.6593945  41.7205684
  17.8339498  28.9734248  42.6129965  17.5020121  29.2778845  41.1676582
  19.8391301  25.6496493  41.7686573  19.8252869  24.7537586  41.4318871
  20.5563729  25.6567157  42.4024859  21.6917431  26.0833833  43.8139701
  21.4335209  27.0050904  43.8124031  21.1602472  25.6864268  44.5040165
  26.6363620  39.1884620  36.5929786  26.8100498  38.6231043  35.8403638
  27.1292511  39.9885515  36.4109276  12.4540580  31.1999289  44.6593345
  11.9094048  31.9759097  44.7913619  13.3319930  31.5470094  44.5012466
  19.2428197  24.5310873  37.0374143  19.3644108  23.6027519  37.2365031
  18.9530239  24.5449559  36.1252459  22.1119387  22.2165784  40.1740863
  22.1341084  22.2805117  39.2192843  22.5287446  21.3770292  40.3681369
  32.4903011  31.9521043  38.2120086  32.9334157  31.2028368  37.8139209
  31.6129522  31.9431179  37.8293818  27.6238793  38.5051385  33.6926684
  28.3189697  39.1258077  33.9113999  27.9661943  37.6546736  33.9679062
  13.2406602  30.3269186  47.5523502  12.4988338  30.4751821  48.1388132
  12.9199346  30.5877451  46.6890251  29.5230216  35.9551090  35.2214015
  30.0481540  36.2938363  34.4963335  29.4352568  35.0198105  35.0377150
  21.1850264  39.8685164  47.3503892  21.4937391  39.6234311  48.2226591
  21.9825746  40.0731802  46.8622762  21.2070876  42.0223073  39.5809268
  20.7675867  41.5299452  40.2742125  21.9578993  41.4796041  39.3401343
  13.6863215  38.2134614  39.5833896  14.5121235  37.9138386  39.2032540
  13.3357267  37.4442237  40.0323685  18.6544749  37.5661082  41.6531570
  18.0324758  36.9031787  41.3533798  19.3249615  37.5922214  40.9705218
  11.8871820  36.1320941  40.5422830  11.0503729  35.7043115  40.3606831
  11.8595466  36.3253384  41.4793621  18.7269276  26.0442870  51.2464076
  18.7757432  26.9204993  50.8641845  19.2691790  25.5020264  50.6735719
  29.2124122  36.5883994  50.5265213  28.4219665  36.5708133  49.9869712
  28.9757476  37.1272287  51.2814250  29.3321997  33.4376460  47.8397941
  29.3820002  33.2726468  48.7813464  29.2235920  32.5703719  47.4495822
  18.2158255  36.1165006  35.1290030  18.3646376  36.8000470  34.4756703
  19.0224699  36.0970096  35.6439486  26.6225759  29.4207388  49.1557248
  27.5235622  29.2813853  48.8641246  26.6973734  29.5861843  50.0955426
  20.9568564  26.7974243  48.0010435  20.0871874  27.0907809  47.7293023
  21.1928045  27.3814688  48.7217698  30.8340194  35.8573402  48.0839963
  30.5425002  36.2203382  48.9203424  30.2212325  35.1440410  47.9053295
  32.0335876  33.4226281  40.6042533  32.8682767  33.8616085  40.7680094
  32.1695005  32.9464935  39.7850779  29.0827382  30.9806016  46.5520021
  29.5581503  31.1733663  45.7438872  28.1592947  31.0365202  46.3063405
  15.9710888  32.1430183  36.1351099  15.7256930  31.2392513  36.3331309
  16.1406803  32.1447334  35.1930577  23.6607598  23.0153860  45.5175855
  24.1789542  23.7514887  45.1922343  23.3062731  23.3217853  46.3522614
  15.2406536  27.8758541  33.6337261  14.5475781  27.9502896  32.9777297
  14.9958288  27.1118885  34.1558778  23.9120192  19.4354142  41.0376752
  24.1921946  18.7677331  41.6637178  24.6970799  19.6283238  40.5251415
  21.7153661  38.6113136  32.6001778  21.1427628  39.2303323  32.1472250
  22.2886455  39.1612498  33.1341700  27.7829051  27.8571776  44.7848327
  28.7346474  27.9569874  44.8060551  27.6132501  27.0650045  45.2946411
  25.8043430  24.9427360  44.9707728  25.2093362  25.2232372  44.2754216
  25.5193127  25.4321260  45.7424469  24.9350921  38.8950286  33.7310360
  25.8681594  38.8295848  33.9343236  24.8474134  39.7306553  33.2724893
  27.5638937  38.2116157  30.6914308  27.4852569  37.8776020  31.5850066
  28.3848604  38.7037925  30.6905780  30.2617129  31.0777896  43.8990626
  30.2293449  30.1393897  44.0850310  30.8717752  31.1561933  43.1656451
  22.1000459  29.9473949  29.9417830  23.0459564  29.8180157  30.0106248
  21.7214704  29.2088611  30.4187258  30.4111617  27.8688939  43.9448909
  29.8950666  27.0847396  43.7578838  31.2951566  27.5407656  44.1095429
  28.0722344  21.6129955  39.9044722  27.8747165  21.3045043  40.7888054
  28.6822050  22.3391594  40.0342652  36.0793678  32.1393903  43.0396663
  36.8097067  31.8779191  43.6004366  35.4700624  31.4022625  43.0798731
  34.1608976  30.2801765  43.6371114  33.4342139  30.1457730  43.0287606
  33.7456262  30.5878594  44.4427832  21.9839152  33.9991695  51.4018487
  22.9042161  34.1770294  51.5958534  21.9488735  33.0547740  51.2498187
  20.2843377  27.8723925  29.8772716  19.3774832  27.5757038  29.9535429
  20.5619358  27.5753743  29.0107002  11.2021317  29.1930289  40.3271762
  10.8824101  28.3395597  40.0346136  10.6554745  29.4078867  41.0829729
  14.9801225  31.9092730  44.0441268  15.1987234  32.8409838  44.0629302
  15.3926998  31.5500704  44.8296072  21.9005442  22.4160815  36.0316957
  21.0906171  22.0707900  36.4072203  22.5889859  22.1068359  36.6204568
  23.8295991  21.4938862  37.6541253  24.3827029  21.9134315  38.3131277
  24.0666077  20.5674610  37.6964209  19.8529090  27.4825936  53.4344017
  19.7525817  28.4320293  53.3656108  19.6350632  27.1544174  52.5620087
  19.0542161  24.7310861  30.0184695  19.9161325  25.0565759  30.2780512
  19.2392505  23.9442357  29.5057761  11.0709577  32.8133200  42.2964884
  10.3773048  32.3987153  41.7834838  11.8182568  32.8553737  41.6998302
  27.2074798  23.6039387  37.1619918  26.6273467  24.2624191  36.7797970
  26.9410730  22.7816732  36.7507335  25.6578364  23.0044445  39.3641238
  26.1578142  23.1160979  38.5555557  26.3013972  22.7005498  40.0042046
  19.7160360  30.9123074  52.2509079  19.2327442  31.7123435  52.4572968
  19.8021299  30.9231019  51.2976523  12.9846320  32.7451454  40.1730898
  12.9617008  32.8439141  39.2212781  13.2946956  33.5916605  40.4948065
  15.6433697  34.8027609  44.2877513  16.5976951  34.7711551  44.2207444
  15.4446221  34.3418233  45.1027739  16.2333080  33.3728725  46.8548310
  17.0525969  33.8672804  46.8783148  16.5069887  32.4560693  46.8265878
  25.9899676  25.7639477  36.2176266  25.1025531  26.0489128  35.9996461
  26.4053665  25.6033241  35.3703543  29.3414212  25.7885998  39.9330605
  30.1174602  26.2782451  40.2055222  28.6162346  26.2144053  40.3902475
  31.7786771  26.5013618  40.9904546  32.3731261  26.2609354  40.2797854
  31.8513354  25.7820748  41.6178082  13.9983926  40.3447229  41.3047711
  13.8638394  39.5847629  40.7385709  13.5815988  41.0688128  40.8376500
  25.1342889  35.5284152  30.3124286  25.8378739  35.7334155  30.9281942
  24.4105538  36.0960914  30.5773369  25.9640700  31.2794013  36.4326556
  25.9075901  31.7362565  35.5934189  26.5169042  30.5184698  36.2549399
  29.7745505  27.0683745  37.2576676  29.5182440  26.6680381  38.0884883
  29.1498373  27.7827539  37.1326815  34.0857843  29.8079819  39.7647967
  33.5257401  29.8773008  40.5379529  33.4801347  29.6320803  39.0447463
  17.1553052  41.2416546  41.5166153  17.0385436  42.1861978  41.4144844
  16.3345498  40.9390107  41.9051953  27.0429587  35.9666681  32.3622746
  27.8775191  35.5347880  32.1800221  26.8813930  35.7948695  33.2899641
  26.6975479  32.4698795  33.7279085  26.6424283  32.3043066  32.7867529
  26.0721534  33.1774828  33.8841275  11.4867994  27.7066859  47.5540508
  12.1326857  27.1965813  48.0427733  11.2785145  28.4435541  48.1283933
  24.0121386  34.7747706  53.0532648  24.8812546  34.9488359  52.6919283
  23.5328137  35.5942123  52.9308377  20.0071604  21.9706904  33.3064404
  19.9950274  22.9148744  33.4632675  20.8995026  21.7877049  33.0123865
  18.1807566  41.8944808  44.7322082  19.0834813  41.9268418  45.0488577
  17.9544936  40.9645258  44.7468418  19.9361168  40.6475794  41.3932160
  18.9856799  40.6477656  41.2796533  20.2393654  39.9008529  40.8768195
  23.8223724  18.5649680  37.5610341  23.0556120  18.0108167  37.7067023
  24.2334429  18.6371549  38.4224492  15.8265485  24.8534476  51.6515522
  16.6896946  24.4971281  51.8618846  15.2530895  24.5148371  52.3390926
  32.4803568  46.4363761  42.3939447  32.1422080  46.3204825  41.5059982
  33.3493336  46.0354926  42.3740454  28.3390384  48.2899237  38.3836338
  27.7755249  48.1989174  37.6152626  28.2242779  47.4699141  38.8638831
  25.8854816  49.7850429  41.2220559  26.6776108  49.4441253  40.8066858
  26.1251466  49.8945404  42.1422712  33.9189942  51.9570205  33.6950803
  33.2677922  52.5424285  33.3084817  34.7134305  52.4876400  33.7545841
  27.8445570  49.0459342  34.0937938  28.6176446  48.4988329  33.9550813
  28.1970968  49.9103591  34.3052399  29.6830612  50.3735724  47.3004837
  29.3920478  51.2781355  47.1851503  30.3187596  50.4152252  48.0148907
  30.6086819  47.7512573  43.8906197  31.2050391  47.5268595  43.1763160
  30.6661791  47.0097318  44.4931644  30.1811847  45.2052008  31.7256388
  30.4337368  44.6833529  30.9639851  29.2436406  45.0418153  31.8283071
  35.2255130  44.2087786  39.5331131  36.0118219  43.7907209  39.1821548
  35.4893835  45.1133878  39.7012779  35.3965208  49.6460637  34.2319788
  34.7611041  49.7195263  34.9440692  35.0662614  50.2354235  33.5538867
  29.9008136  47.1080114  33.9280763  29.7844394  46.4325017  34.5961847
  30.0110396  46.6212488  33.1112916  32.2439677  46.5690261  37.6327452
  31.8797884  46.0420882  38.3440373  33.1006793  46.1788730  37.4593937
  31.8845164  41.5980161  32.6288800  32.0519566  42.4660397  32.9959271
  31.6942333  41.7607442  31.7050090  28.0932979  46.5110936  40.3291335
  27.1683475  46.3787151  40.5369027  28.3417392  47.2905156  40.8261277
  31.8634385  44.0537818  33.6135467  31.7434010  44.4994869  34.4520947
  31.1686973  44.4023136  33.0549005  25.4541790  46.1544210  41.1635124
  25.5834171  46.4078689  42.0774536  24.7739241  46.7471918  40.8439779
  29.6241277  56.8241460  37.2625598  29.5465307  57.7749285  37.3414079
  29.0202921  56.4787332  37.9200525  36.1689033  49.5085110  41.8329383
  35.5397896  49.6730824  41.1305450  35.7814695  49.9226719  42.6040347
  34.9055426  40.7017327  42.6905662  34.0439905  40.9998581  42.9822400
  34.9317861  40.9187726  41.7586695  31.7216995  49.2459518  39.0979468
  32.1855341  49.5247221  38.3084090  31.4573793  48.3442962  38.9152558
  28.6141076  48.7930999  42.0359231  29.1842433  49.2218268  41.3976715
  29.2049188  48.5113584  42.7343417  30.6585881  45.3682670  35.9069033
  31.3609925  45.8203714  36.3742959  30.3266510  44.7266489  36.5348926
  29.1066243  43.9594427  50.2820242  28.4764903  44.6410708  50.5155639
  29.0002331  43.8477509  49.3373381  24.4011215  43.6266223  41.2086166
  23.6110269  43.8823751  40.7326277  24.8922463  44.4414561  41.3138207
  26.3525961  43.9910802  38.1669643  25.5557124  44.1029496  38.6853139
  26.1251553  44.3297454  37.3010534  32.1831628  50.5155505  46.1152158
  32.2476061  50.9775913  46.9510330  31.4742552  49.8852870  46.2434468
  22.6848918  43.8796713  43.6401157  22.9356957  44.7643723  43.9058733
  23.2208467  43.7001315  42.8676249  31.8979646  52.1823613  35.9831138
  31.7625321  53.0275149  36.4115986  32.4389458  52.3842891  35.2197072
  28.3846986  38.2615193  52.6445493  27.9913931  37.7081391  53.3193138
  29.2013126  38.5725771  53.0352011  25.3509043  49.6999051  36.5559063
  25.8633564  50.4942301  36.7064628  26.0031756  49.0025341  36.4892665
  27.1603928  52.8164807  38.6381816  27.3370556  53.7382772  38.4502800
  27.9560762  52.5023226  39.0676196  31.3014947  39.6773072  50.2365750
  32.0424660  40.2780225  50.1570212  31.5332869  38.9350710  49.6783792
  26.4456285  44.8629439  48.5143980  26.3309800  43.9614696  48.8151078
  25.5900802  45.1093136  48.1628796  28.2835243  54.3342981  44.6392159
  28.8342669  54.2060044  43.8669153  27.4446719  54.6337870  44.2887051
  23.3157960  48.0287705  37.3318634  24.1533182  48.4384714  37.1152341
  23.4936228  47.0887147  37.3018828  35.2122392  45.6962786  33.0202467
  34.6969016  46.4667391  33.2590854  34.9399701  45.0227922  33.6435528
  32.7969503  40.5412487  38.0787705  31.9411100  40.1519337  37.8993344
  33.2096455  40.6204447  37.2187491  34.3268650  38.0758830  42.4779265
  33.8233445  38.0388965  41.6647070  34.6199257  38.9851573  42.5375921
  30.5711536  38.1597560  41.4845447  31.4364533  37.9640368  41.1251336
  30.6389045  37.9307911  42.4114803  35.0008695  43.5689878  34.8462248
  34.6958831  43.8836027  35.6972391  35.9539138  43.6471298  34.8889581
  33.4455127  49.7280101  36.4955202  32.9176489  48.9932861  36.1828439
  32.9442630  50.5054778  36.2495170  28.1773855  40.3899768  38.8561813
  28.7517607  40.1674949  38.1235006  28.7644837  40.4588462  39.6090415
  37.2353432  46.2773494  39.6626190  37.7485314  46.9103486  40.1647900
  37.8854656  45.6774690  39.2969550  28.5043442  42.4204229  32.8757699
  27.6680754  42.7578915  33.1966973  28.3648212  42.2853208  31.9384836
  30.4796523  37.2641016  37.5836883  29.8260935  36.9490034  36.9593498
  30.4376997  36.6416757  38.3096706  31.5907727  47.5460312  29.4990175
  30.6834789  47.3149565  29.6981324  32.0878759  46.7497931  29.6864156
  34.4975806  56.2557819  32.4186861  33.8237505  56.5589516  33.0271819
  34.8841628  57.0586899  32.0692318  33.7134263  43.7522950  41.9084530
  32.7956824  43.9737897  41.7506218  34.1294407  43.8269261  41.0496238
  34.4969311  45.1514366  37.0387211  35.2441130  45.6635763  36.7294333
  34.7660900  44.8298418  37.8991604  32.7695961  47.6472906  34.0214165
  31.8607180  47.3631939  34.1186635  32.7991045  48.0671985  33.1617472
  38.0015228  51.2579496  37.7905333  37.5477555  50.4170406  37.8470523
  37.3709195  51.8940894  38.1280113  36.9448148  42.1871482  39.0206000
  36.2070905  41.6748868  39.3516243  37.1974921  41.7471864  38.2089277
  36.4448168  53.0955993  38.7255151  36.7371142  53.6561050  38.0067516
  36.9546788  53.3884554  39.4808310  37.0459775  34.9647734  39.6147769
  37.3518652  34.1045097  39.3273684  37.7712380  35.5565354  39.4146763
  23.3384131  45.3678421  38.0029367  23.1408531  44.7747781  37.2780434
  22.7830795  45.0630631  38.7205306  31.3180855  45.2601527  40.1223960
  31.3729465  44.3075363  40.0466437  30.5072057  45.4160966  40.6065259
  32.4672049  49.1881650  31.3602244  32.0291479  48.4717509  30.9007881
  33.2082490  49.4157765  30.7987335  29.2573215  43.8778587  37.8814339
  28.4441080  44.1772757  38.2879531  29.7532209  43.4834276  38.5988821
  31.4081793  53.8736344  39.8148604  31.3657972  54.0997190  38.8857136
  32.3244492  53.6399718  39.9634405  28.7487290  41.4496942  43.4975574
  29.3886669  41.3085701  42.7998537  27.9164820  41.1631456  43.1214176
  29.5247593  50.7499373  39.6110567  30.3188192  50.2549693  39.4093142
  28.8139286  50.2217236  39.2478272  34.3442438  53.1317468  43.9622934
  34.3979460  53.7008405  44.7300650  33.4757219  53.3019353  43.5976971
  25.8330357  44.8942454  35.6870319  24.9027945  44.8326910  35.9040281
  25.9287829  44.3718407  34.8906961  25.7515906  41.4197267  38.2748561
  26.0122723  42.3342601  38.1657721  26.5733078  40.9521710  38.4245174
  27.2240831  42.8335024  45.4447385  27.8963885  42.6252387  44.7960034
  26.3970618  42.6357110  45.0052618  32.1018869  51.3228395  43.2908404
  31.9629955  50.9547179  44.1634342  31.3133466  51.8376034  43.1192361
  32.6967021  56.4237491  34.6333940  32.8718777  55.9525534  35.4479563
  32.0099809  57.0503257  34.8615201  33.6524085  50.7009997  40.6797241
  33.3173917  50.6610767  41.5754891  33.1528030  50.0354713  40.2067652
  27.6268329  46.1077627  46.2049823  27.4888127  45.3757866  46.8061362
  28.5373252  46.0186528  45.9234010  36.5883276  48.0466032  30.9534301
  35.9712447  47.3212860  30.8567354  36.1199765  48.8075392  30.6101375
  30.2550629  45.8197587  45.6933502  30.9650248  45.1790779  45.6520121
  30.2119937  46.0710482  46.6159683  28.9679563  42.8062805  47.5129142
  28.4316920  42.3553543  48.1650738  28.3796272  42.9408713  46.7699606
  27.2628107  59.5726854  41.4073800  27.5024705  60.2045378  42.0852819
  26.4197303  59.2214894  41.6939160  28.3781822  42.2651456  30.0755605
  27.5011289  42.1440257  29.7117852  28.8539575  41.4737534  29.8234494
  19.8983962  47.0528616  40.1697113  20.5855002  46.7390346  39.5818128
  19.7432091  47.9569980  39.8964364  24.7018684  41.9418812  44.5982136
  24.6176873  41.3344482  43.8632546  23.8801391  42.4327831  44.5991633
  31.7755969  55.3805976  43.8115304  31.7026140  56.1860948  44.3234609
  31.3333362  55.5797942  42.9863326  31.5645748  54.6177746  37.3218126
  30.7813270  55.1599427  37.4156350  32.2638493  55.1351726  37.7212367
  34.8742398  40.4272376  39.9652331  35.3711098  39.6742338  39.6453402
  34.1029380  40.4636693  39.3995541  35.9572179  49.1844063  37.5390755
  35.0228458  49.3045526  37.3695459  36.1348847  48.2816530  37.2750765
  31.4577367  42.5689759  39.6924016  31.0875155  42.0160799  40.3804921
  31.9536460  41.9647892  39.1399016  29.2866566  53.0287254  46.7879034
  29.9876025  53.6623737  46.9408428  28.8161681  53.3701985  46.0274673
  37.4120961  51.3705204  35.0726941  37.6880805  51.2561798  35.9820815
  36.5425460  50.9722689  35.0339114  34.0475026  55.6191555  38.7159754
  34.2297420  54.8013210  39.1787507  34.8708012  55.8359247  38.2784644
  34.3817191  54.5459740  35.9774803  34.9104957  54.0352194  35.3644965
  34.6445411  54.2302270  36.8420336  24.8834284  52.5623609  43.7210137
  25.4687721  51.8167297  43.8538041  24.6859122  52.8727566  44.6046800
  27.7372939  55.5974856  38.7372579  27.0683314  56.0820984  38.2536619
  27.5985809  55.8444077  39.6515957  19.4751938  45.1329209  42.4414580
  19.5136038  44.5992800  43.2351698  18.9692231  44.6064415  41.8225557
  31.8778208  57.6318600  45.3355237  32.4296516  57.7950221  46.1004322
  32.2184401  58.2223038  44.6635262  26.8542701  39.9793750  45.9377122
  26.9184027  40.8408581  45.5254520  26.7909821  39.3667751  45.2049480
  26.3294973  42.0516882  49.5850156  26.9567012  41.6693960  50.1987681
  25.4722892  41.8331084  49.9505849  23.1060516  43.8593311  35.5168511
  23.4013957  42.9503990  35.4635565  22.2048552  43.8381051  35.1949513
  35.0146595  55.5800575  42.3218919  34.8897734  54.7790315  41.8129865
  35.6725686  56.0746769  41.8332889  26.6354763  41.9349308  41.4996060
  25.9141349  42.5485276  41.3603533  27.4248019  42.4707073  41.4212706
  29.4381077  39.2703734  47.7736711  29.9615478  39.5166031  48.5363021
  29.2193410  40.1023769  47.3539849  24.8348358  41.5407409  35.6407836
  24.5061064  40.6604788  35.4582942  25.1887728  41.4855078  36.5284225
  34.0827936  53.1762312  40.1502822  33.9352899  52.2479019  40.3310392
  34.9081430  53.1982402  39.6659897  27.9490181  41.8280379  36.0083314
  28.2886253  42.3566300  35.2861922  28.3962301  42.1660785  36.7841880
  37.6862058  53.9990870  41.2367694  38.6108606  53.7933732  41.0992146
  37.5177362  53.7507272  42.1457036  30.6433622  40.2117429  45.4586382
  30.3030442  39.4125243  45.8607062  29.9372628  40.5119140  44.8863215
  31.2950093  37.2966742  43.9113705  32.1176163  36.8227220  43.7892595
  31.5388157  38.0757226  44.4112391  29.9358328  40.3255000  34.2076607
  30.6566690  40.7036253  33.7040323  29.3123632  41.0443877  34.3111585
  34.0789451  41.0300149  35.1434939  34.2953065  41.9124787  34.8423767
  33.5983518  40.6386363  34.4140581  28.8188672  43.9885863  41.7205684
  28.6733253  44.3026166  42.6129965  28.3413876  44.6070763  41.1676582
  30.6785055  40.9788411  41.7686573  30.6646624  40.0829504  41.4318871
  31.3957483  40.9859074  42.4024859  32.5311186  41.4125751  43.8139701
  32.2728964  42.3342821  43.8124031  31.9996226  41.0156185  44.5040165
  37.4757375  54.5176538  36.5929786  37.6494252  53.9522960  35.8403638
  37.9686266  55.3177433  36.4109276  23.2934334  46.5291207  44.6593345
  22.7487802  47.3051015  44.7913619  24.1713684  46.8762011  44.5012466
  30.0821951  39.8602791  37.0374143  30.2037862  38.9319437  37.2365031
  29.7923993  39.8741477  36.1252459  32.9513141  37.5457701  40.1740863
  32.9734838  37.6097034  39.2192843  33.3681200  36.7062210  40.3681369
  38.4632547  53.8343302  33.6926684  39.1583452  54.4549995  33.9113999
  38.8055697  52.9838653  33.9679062  24.0800356  45.6561103  47.5523502
  23.3382092  45.8043739  48.1388132  23.7593100  45.9169369  46.6890251
  40.3623970  51.2843008  35.2214015  40.8875294  51.6230281  34.4963335
  40.2746323  50.3490023  35.0377150  32.0244019  55.1977081  47.3503892
  32.3331145  54.9526228  48.2226591  32.8219501  55.4023720  46.8622762
  32.0464631  57.3514991  39.5809268  31.6069621  56.8591370  40.2742125
  32.7972748  56.8087959  39.3401343  24.5256970  53.5426532  39.5833896
  25.3514990  53.2430304  39.2032540  24.1751022  52.7734154  40.0323685
  29.4938503  52.8953000  41.6531570  28.8718512  52.2323705  41.3533798
  30.1643370  52.9214132  40.9705218  22.7265575  51.4612858  40.5422830
  21.8897483  51.0335033  40.3606831  22.6989220  51.6545302  41.4793621
  29.5663031  41.3734788  51.2464076  29.6151186  42.2496911  50.8641845
  30.1085545  40.8312181  50.6735719  29.0552010  51.4456923  35.1290030
  29.2040130  52.1292388  34.4756703  29.8618453  51.4262014  35.6439486
  26.8104643  47.4722101  36.1351099  26.5650685  46.5684431  36.3331309
  26.9800557  47.4739252  35.1930577  26.0800290  43.2050459  33.6337261
  25.3869535  43.2794814  32.9777297  25.8352042  42.4410802  34.1558778
  34.7513947  34.7646060  41.0376752  35.0315701  34.0969249  41.6637178
  35.5364554  34.9575156  40.5251415  32.5547415  53.9405054  32.6001778
  31.9821383  54.5595241  32.1472250  33.1280209  54.4904416  33.1341700
  35.7744675  54.2242204  33.7310360  36.7075348  54.1587766  33.9343236
  35.6867888  55.0598471  33.2724893  38.4032692  53.5408074  30.6914308
  38.3246323  53.2067938  31.5850066  39.2242359  54.0329842  30.6905780
  32.9394214  45.2765867  29.9417830  33.8853319  45.1472075  30.0106248
  32.5608459  44.5380529  30.4187258  31.1237131  43.2015843  29.8772716
  30.2168587  42.9048956  29.9535429  31.4013112  42.9045661  29.0107002
  22.0415072  44.5222206  40.3271762  21.7217856  43.6687515  40.0346136
  21.4948500  44.7370785  41.0829729  25.8194979  47.2384647  44.0441268
  26.0380989  48.1701755  44.0629302  26.2320753  46.8792622  44.8296072
  32.7399197  37.7452733  36.0316957  31.9299925  37.3999818  36.4072203
  33.4283614  37.4360277  36.6204568  34.6689745  36.8230780  37.6541253
  35.2220784  37.2426233  38.3131277  34.9059832  35.8966528  37.6964209
  29.8935916  40.0602778  30.0184695  30.7555080  40.3857677  30.2780512
  30.0786260  39.2734274  29.5057761  21.9103332  48.1425118  42.2964884
  21.2166803  47.7279071  41.7834838  22.6576323  48.1845654  41.6998302
  38.0468552  38.9331305  37.1619918  37.4667221  39.5916109  36.7797970
  37.7804485  38.1108649  36.7507335  23.8240074  48.0743372  40.1730898
  23.8010762  48.1731059  39.2212781  24.1340711  48.9208523  40.4948065
  26.4827452  50.1319527  44.2877513  27.4370705  50.1003469  44.2207444
  26.2839976  49.6710151  45.1027739  27.0726834  48.7020643  46.8548310
  27.8919723  49.1964722  46.8783148  27.3463642  47.7852611  46.8265878
  36.8293430  41.0931395  36.2176266  35.9419285  41.3781046  35.9996461
  37.2447419  40.9325159  35.3703543  24.8377681  55.6739146  41.3047711
  24.7032149  54.9139547  40.7385709  24.4209743  56.3980046  40.8376500
  35.9736644  50.8576070  30.3124286  36.6772494  51.0626072  30.9281942
  35.2499292  51.4252832  30.5773369  36.8034454  46.6085931  36.4326556
  36.7469655  47.0654483  35.5934189  37.3562796  45.8476616  36.2549399
  27.9946807  56.5708463  41.5166153  27.8779191  57.5153896  41.4144844
  27.1739253  56.2682025  41.9051953  37.8823341  51.2958599  32.3622746
  38.7168945  50.8639797  32.1800221  37.7207684  51.1240613  33.2899641
  37.5369233  47.7990712  33.7279085  37.4818037  47.6334984  32.7867529
  36.9115289  48.5066745  33.8841275  22.3261748  43.0358777  47.5540508
  22.9720612  42.5257731  48.0427733  22.1178899  43.7727458  48.1283933
  30.8465359  37.2998821  33.3064404  30.8344029  38.2440661  33.4632675
  31.7388781  37.1168967  33.0123865  29.0201321  57.2236725  44.7322082
  29.9228567  57.2560335  45.0488577  28.7938691  56.2937176  44.7468418
  30.7754923  55.9767712  41.3932160  29.8250554  55.9769573  41.2796533
  31.0787409  55.2300446  40.8768195  34.6617478  33.8941598  37.5610341
  33.8949874  33.3400085  37.7067023  35.0728183  33.9663467  38.4224492
  26.6659239  40.1826394  51.6515522  27.5290701  39.8263199  51.8618846
  26.0924650  39.8440289  52.3390926  43.3197323  61.7655678  42.3939447
  42.9815834  61.6496743  41.5059982  44.1887091  61.3646843  42.3740454
  39.1784138  63.6191155  38.3836338  38.6149003  63.5281092  37.6152626
  39.0636533  62.7991059  38.8638831  36.7248570  65.1142346  41.2220559
  37.5169862  64.7733171  40.8066858  36.9645220  65.2237321  42.1422712
  44.7583697  67.2862122  33.6950803  44.1071677  67.8716203  33.3084817
  45.5528060  67.8168317  33.7545841  38.6839324  64.3751259  34.0937938
  39.4570200  63.8280247  33.9550813  39.0364723  65.2395509  34.3052399
  41.0205602  60.5343926  31.7256388  41.2731123  60.0125447  30.9639851
  40.0830161  60.3710071  31.8283071  46.0648885  59.5379704  39.5331131
  46.8511974  59.1199127  39.1821548  46.3287589  60.4425796  39.7012779
  46.2358962  64.9752554  34.2319788  45.6004795  65.0487181  34.9440692
  45.9056368  65.5646153  33.5538867  40.7401891  62.4372032  33.9280763
  40.6238149  61.7616935  34.5961847  40.8504151  61.9504405  33.1112916
  43.0833432  61.8982179  37.6327452  42.7191639  61.3712800  38.3440373
  43.9400547  61.5080648  37.4593937  42.7238919  56.9272078  32.6288800
  42.8913321  57.7952315  32.9959271  42.5336088  57.0899360  31.7050090
  38.9326733  61.8402854  40.3291335  38.0077230  61.7079068  40.5369027
  39.1811146  62.6197073  40.8261277  42.7028139  59.3829736  33.6135467
  42.5827765  59.8286787  34.4520947  42.0080728  59.7315054  33.0549005
  36.2935544  61.4836128  41.1635124  36.4227925  61.7370607  42.0774536
  35.6132996  62.0763836  40.8439779  40.4635032  72.1533378  37.2625598
  40.3859061  73.1041203  37.3414079  39.8596675  71.8079250  37.9200525
  48.4013206  59.8551209  34.4415801  49.3131062  60.0878596  34.2663499
  47.8922853  60.4388253  33.8790880  42.5610750  64.5751436  39.0979468
  43.0249095  64.8539139  38.3084090  42.2967548  63.6734880  38.9152558
  39.4534831  64.1222917  42.0359231  40.0236188  64.5510185  41.3976715
  40.0442943  63.8405502  42.7343417  41.4979636  60.6974588  35.9069033
  42.2003679  61.1495632  36.3742959  41.1660264  60.0558407  36.5348926
  35.2404970  58.9558141  41.2086166  34.4504024  59.2115669  40.7326277
  35.7316217  59.7706478  41.3138207  37.1919715  59.3202720  38.1669643
  36.3950878  59.4321414  38.6853139  36.9645307  59.6589372  37.3010534
  33.5242673  59.2088631  43.6401157  33.7750711  60.0935641  43.9058733
  34.0602221  59.0293233  42.8676249  42.7373400  67.5115531  35.9831138
  42.6019075  68.3567066  36.4115986  43.2783213  67.7134808  35.2197072
  36.1902798  65.0290969  36.5559063  36.7027318  65.8234219  36.7064628
  36.8425511  64.3317259  36.4892665  37.9997683  68.1456725  38.6381816
  38.1764311  69.0674690  38.4502800  38.7954516  67.8315144  39.0676196
  39.1228998  69.6634899  44.6392159  39.6736423  69.5351962  43.8669153
  38.2840474  69.9629788  44.2887051  34.1551715  63.3579623  37.3318634
  34.9926937  63.7676631  37.1152341  34.3329982  62.4179065  37.3018828
  46.0516147  61.0254704  33.0202467  45.5362770  61.7959308  33.2590854
  45.7793455  60.3519840  33.6435528  43.6363258  55.8704404  38.0787705
  42.7804854  55.4811255  37.8993344  44.0490210  55.9496365  37.2187491
  51.0250421  63.7787058  34.9555640  50.2479864  63.4398218  34.5110802
  51.7041902  63.7839681  34.2810605  45.8402450  58.8981796  34.8462248
  45.5352585  59.2127945  35.6972391  46.7932892  58.9763216  34.8889581
  44.2848882  65.0572019  36.4955202  43.7570243  64.3224779  36.1828439
  43.7836384  65.8346695  36.2495170  39.0167609  55.7191685  38.8561813
  39.5911361  55.4966867  38.1235006  39.6038592  55.7880380  39.6090415
  48.0747187  61.6065412  39.6626190  48.5879068  62.2395404  40.1647900
  48.7248410  61.0066608  39.2969550  39.3437196  57.7496146  32.8757699
  38.5074509  58.0870833  33.1966973  39.2041966  57.6145126  31.9384836
  41.3190277  52.5932934  37.5836883  40.6654689  52.2781951  36.9593498
  41.2770751  51.9708675  38.3096706  42.4301482  62.8752229  29.4990175
  41.5228544  62.6441483  29.6981324  42.9272514  62.0789848  29.6864156
  45.3369561  71.5849736  32.4186861  44.6631260  71.8881433  33.0271819
  45.7235383  72.3878817  32.0692318  45.3363065  60.4806283  37.0387211
  46.0834884  60.9927681  36.7294333  45.6054655  60.1590336  37.8991604
  43.6089715  62.9764824  34.0214165  42.7000935  62.6923857  34.1186635
  43.6384799  63.3963903  33.1617472  48.8408983  66.5871414  37.7905333
  48.3871310  65.7462323  37.8470523  48.2102949  67.2232812  38.1280113
  47.2841922  68.4247910  38.7255151  47.5764896  68.9852967  38.0067516
  47.7940543  68.7176471  39.4808310  34.1777886  60.6970338  38.0029367
  33.9802286  60.1039699  37.2780434  33.6224550  60.3922548  38.7205306
  42.1574609  60.5893445  40.1223960  42.2123219  59.6367281  40.0466437
  41.3465811  60.7452884  40.6065259  43.3065803  64.5173568  31.3602244
  42.8685233  63.8009427  30.9007881  44.0476244  64.7449683  30.7987335
  40.0966969  59.2070504  37.8814339  39.2834835  59.5064675  38.2879531
  40.5925964  58.8126193  38.5988821  42.2475547  69.2028261  39.8148604
  42.2051726  69.4289108  38.8857136  43.1638246  68.9691636  39.9634405
  51.4238918  62.7930765  37.4178562  51.2856817  62.9832361  36.4899751
  51.0675137  63.5550148  37.8746613  40.3641348  66.0791290  39.6110567
  41.1581946  65.5841611  39.4093142  39.6533040  65.5509154  39.2478272
  36.6724111  60.2234372  35.6870319  35.7421700  60.1618828  35.9040281
  36.7681583  59.7010325  34.8906961  36.5909660  56.7489185  38.2748561
  36.8516478  57.6634518  38.1657721  37.4126833  56.2813628  38.4245174
  43.5360776  71.7529409  34.6333940  43.7112532  71.2817452  35.4479563
  42.8493564  72.3795175  34.8615201  47.4277031  63.3757949  30.9534301
  46.8106201  62.6504778  30.8567354  46.9593519  64.1367310  30.6101375
  39.2175577  57.5943374  30.0755605  38.3405043  57.4732175  29.7117852
  39.6933330  56.8029452  29.8234494  30.7377717  62.3820533  40.1697113
  31.4248757  62.0682263  39.5818128  30.5825846  63.2861898  39.8964364
  42.4039503  69.9469664  37.3218126  41.6207025  70.4891344  37.4156350
  43.1032248  70.4643644  37.7212367  46.7965934  64.5135981  37.5390755
  45.8622212  64.6337443  37.3695459  46.9742602  63.6108448  37.2750765
  42.2971122  57.8981677  39.6924016  41.9268909  57.3452717  40.3804921
  42.7930214  57.2939810  39.1399016  50.1838485  60.3553300  38.0740789
  50.6498937  61.1881292  38.0001091  50.6345985  59.8898282  38.7786047
  48.2514716  66.6997121  35.0726941  48.5274560  66.5853716  35.9820815
  47.3819215  66.3014606  35.0339114  44.8868780  70.9483472  38.7159754
  45.0691175  70.1305128  39.1787507  45.7101766  71.1651164  38.2784644
  45.2210945  69.8751657  35.9774803  45.7498712  69.3644112  35.3644965
  45.4839165  69.5594188  36.8420336  35.7228038  67.8915527  43.7210137
  36.3081475  67.1459215  43.8538041  35.5252877  68.2019483  44.6046800
  38.5766693  70.9266774  38.7372579  37.9077069  71.4112902  38.2536619
  38.4379563  71.1735994  39.6515957  30.3145693  60.4621127  42.4414580
  30.3529792  59.9284718  43.2351698  29.8085986  59.9356332  41.8225557
  33.9454271  59.1885229  35.5168511  34.2407712  58.2795907  35.4635565
  33.0442306  59.1672968  35.1949513  37.4748518  57.2641226  41.4996060
  36.7535103  57.8777193  41.3603533  38.2641773  57.7998990  41.4212706
  35.6742112  56.8699327  35.6407836  35.3454818  55.9896706  35.4582942
  36.0281483  56.8146995  36.5284225  44.9221691  68.5054229  40.1502822
  44.7746653  67.5770937  40.3310392  45.7475184  68.5274320  39.6659897
  38.7883935  57.1572296  36.0083314  39.1280008  57.6858218  35.2861922
  39.2356056  57.4952703  36.7841880  48.5255813  69.3282788  41.2367694
  49.4502360  69.1225649  41.0992146  48.3571116  69.0799189  42.1457036
  40.7752082  55.6546918  34.2076607  41.4960445  56.0328171  33.7040323
  40.1517387  56.3735795  34.3111585  44.9183205  56.3592067  35.1434939
  45.1346820  57.2416705  34.8423767  44.4377272  55.9678280  34.4140581
  39.6582427  59.3177780  41.7205684  39.5127007  59.6318083  42.6129965
  39.1807630  59.9362681  41.1676582  48.3151129  69.8468456  36.5929786
  48.4888007  69.2814878  35.8403638  48.8080020  70.6469350  36.4109276
  34.1328089  61.8583125  44.6593345  33.5881557  62.6342933  44.7913619
  35.0107439  62.2053929  44.5012466  40.9215705  55.1894708  37.0374143
  41.0431617  54.2611355  37.2365031  40.6317748  55.2033394  36.1252459
  49.3026302  69.1635220  33.6926684  49.9977206  69.7841913  33.9113999
  49.6449452  68.3130571  33.9679062  51.2017725  66.6134925  35.2214015
  51.7269049  66.9522198  34.4963335  51.1140077  65.6781941  35.0377150
  35.3650724  68.8718450  39.5833896  36.1908744  68.5722221  39.2032540
  35.0144776  68.1026072  40.0323685  40.3332258  68.2244918  41.6531570
  39.7112267  67.5615623  41.3533798  41.0037124  68.2506050  40.9705218
  33.5659329  66.7904776  40.5422830  32.7291238  66.3626950  40.3606831
  33.5382975  66.9837219  41.4793621  39.8945764  66.7748841  35.1290030
  40.0433885  67.4584306  34.4756703  40.7012208  66.7553931  35.6439486
  37.6498397  62.8014019  36.1351099  37.4044439  61.8976349  36.3331309
  37.8194312  62.8031169  35.1930577  36.9194045  58.5342376  33.6337261
  36.2263290  58.6086731  32.9777297  36.6745797  57.7702720  34.1558778
  43.3941170  69.2696972  32.6001778  42.8215137  69.8887159  32.1472250
  43.9673964  69.8196333  33.1341700  46.6138430  69.5534122  33.7310360
  47.5469103  69.4879683  33.9343236  46.5261643  70.3890389  33.2724893
  49.2426446  68.8699992  30.6914308  49.1640078  68.5359856  31.5850066
  50.0636113  69.3621760  30.6905780  43.7787968  60.6057784  29.9417830
  44.7247073  60.4763992  30.0106248  43.4002213  59.8672446  30.4187258
  41.9630886  58.5307761  29.8772716  41.0562341  58.2340873  29.9535429
  42.2406867  58.2337579  29.0107002  32.8808826  59.8514124  40.3271762
  32.5611610  58.9979432  40.0346136  32.3342254  60.0662702  41.0829729
  36.6588734  62.5676565  44.0441268  36.8774743  63.4993673  44.0629302
  37.0714507  62.2084540  44.8296072  40.7329670  55.3894696  30.0184695
  41.5948834  55.7149594  30.2780512  40.9180014  54.6026192  29.5057761
  32.7497086  63.4717036  42.2964884  32.0560557  63.0570988  41.7834838
  33.4970077  63.5137572  41.6998302  34.6633829  63.4035289  40.1730898
  34.6404517  63.5022977  39.2212781  34.9734465  64.2500440  40.4948065
  37.3221206  65.4611444  44.2877513  38.2764460  65.4295387  44.2207444
  37.1233730  65.0002068  45.1027739  47.6687185  56.4223313  36.2176266
  46.7813040  56.7072963  35.9996461  48.0841174  56.2617076  35.3703543
  35.6771435  71.0031064  41.3047711  35.5425903  70.2431465  40.7385709
  35.2603497  71.7271964  40.8376500  46.8130398  66.1867987  30.3124286
  47.5166248  66.3917990  30.9281942  46.0893047  66.7544749  30.5773369
  47.6428208  61.9377849  36.4326556  47.5863410  62.3946400  35.5934189
  48.1956551  61.1768533  36.2549399  51.4533014  57.7267581  37.2576676
  51.1969949  57.3264216  38.0884883  50.8285882  58.4411375  37.1326815
  48.7217096  66.6250517  32.3622746  49.5562700  66.1931715  32.1800221
  48.5601439  66.4532530  33.2899641  48.3762988  63.1282630  33.7279085
  48.3211792  62.9626901  32.7867529  47.7509043  63.8358663  33.8841275
  41.6859113  52.6290739  33.3064404  41.6737783  53.5732579  33.4632675
  42.5782535  52.4460884  33.0123865  57.3501371  77.1420168  42.4577923
  57.9879781  77.0226915  41.7541263  57.2322214  78.0901012  42.5165875
  54.1591077  77.0947596  42.3939447  53.8209589  76.9788661  41.5059982
  55.0280845  76.6938761  42.3740454  50.0177893  78.9483072  38.3836338
  49.4542758  78.8573009  37.6152626  49.9030288  78.1282977  38.8638831
  55.5977451  82.6154040  33.6950803  54.9465431  83.2008120  33.3084817
  56.3921814  83.1460235  33.7545841  49.5233079  79.7043177  34.0937938
  50.2963955  79.1572164  33.9550813  49.8758477  80.5687426  34.3052399
  51.8599356  75.8635843  31.7256388  52.1124877  75.3417365  30.9639851
  50.9223915  75.7001989  31.8283071  56.9042639  74.8671622  39.5331131
  57.6905728  74.4491045  39.1821548  57.1681344  75.7717714  39.7012779
  57.0752717  80.3044472  34.2319788  56.4398550  80.3779098  34.9440692
  56.7450123  80.8938071  33.5538867  62.3051066  74.8046855  40.4364109
  63.0376238  74.2346072  40.6701939  61.5490422  74.4168455  40.8770615
  51.5795645  77.7663949  33.9280763  51.4631903  77.0908853  34.5961847
  51.6897905  77.2796323  33.1112916  53.9227186  77.2274096  37.6327452
  53.5585393  76.7004717  38.3440373  54.7794302  76.8372565  37.4593937
  53.5632673  72.2563996  32.6288800  53.7307075  73.1244232  32.9959271
  53.3729842  72.4191278  31.7050090  59.7205150  73.2363515  41.9752068
  58.8122027  73.1678924  41.6810829  59.6692746  73.7135460  42.8033893
  53.5421894  74.7121654  33.6135467  53.4221519  75.1578704  34.4520947
  52.8474482  75.0606971  33.0549005  51.3028786  87.4825295  37.2625598
  51.2252816  88.4333120  37.3414079  50.6990430  87.1371168  37.9200525
  59.2406960  75.1843127  34.4415801  60.1524816  75.4170513  34.2663499
  58.7316607  75.7680171  33.8790880  57.8476542  80.1668945  41.8329383
  57.2185405  80.3314659  41.1305450  57.4602204  80.5810555  42.6040347
  61.7265774  81.1023383  39.1873746  61.0416812  81.4822284  38.6370780
  61.8109624  81.7118710  39.9205694  53.4004504  79.9043353  39.0979468
  53.8642850  80.1831056  38.3084090  53.1361302  79.0026798  38.9152558
  52.3373390  76.0266506  35.9069033  53.0397434  76.4787549  36.3742959
  52.0054019  75.3850324  36.5348926  60.0962534  81.6255297  43.9591447
  60.9179978  81.2235485  43.6774129  60.0924937  81.5223532  44.9107563
  48.0313470  74.6494638  38.1669643  47.2344633  74.7613332  38.6853139
  47.8039062  74.9881290  37.3010534  68.1868527  77.9694046  40.3076419
  67.4332235  77.4001444  40.1520423  68.3216068  77.9356710  41.2547053
  53.5767155  82.8407448  35.9831138  53.4412830  83.6858984  36.4115986
  54.1176967  83.0426726  35.2197072  47.0296552  80.3582886  36.5559063
  47.5421073  81.1526137  36.7064628  47.6819265  79.6609177  36.4892665
  48.8391437  83.4748643  38.6381816  49.0158065  84.3966607  38.4502800
  49.6348271  83.1607062  39.0676196  44.9945469  78.6871541  37.3318634
  45.8320691  79.0968549  37.1152341  45.1723737  77.7470983  37.3018828
  56.8909901  76.3546621  33.0202467  56.3756525  77.1251226  33.2590854
  56.6187210  75.6811757  33.6435528  61.8644175  79.1078976  34.9555640
  61.0873618  78.7690135  34.5110802  62.5435656  79.1131599  34.2810605
  56.6796204  74.2273713  34.8462248  56.3746340  74.5419863  35.6972391
  57.6326647  74.3055133  34.8889581  55.1242636  80.3863937  36.4955202
  54.5963998  79.6516696  36.1828439  54.6230139  81.1638613  36.2495170
  60.1035482  78.5812957  41.6122248  59.4459157  79.2712219  41.7002377
  60.9075881  78.9709389  41.9556234  49.8561364  71.0483603  38.8561813
  50.4305116  70.8258784  38.1235006  50.4432346  71.1172297  39.6090415
  58.9140941  76.9357330  39.6626190  59.4272823  77.5687322  40.1647900
  59.5642165  76.3358525  39.2969550  50.1830951  73.0788064  32.8757699
  49.3468263  73.4162751  33.1966973  50.0435721  72.9437044  31.9384836
  53.2695236  78.2044147  29.4990175  52.3622298  77.9733400  29.6981324
  53.7666268  77.4081766  29.6864156  56.1763315  86.9141654  32.4186861
  55.5025014  87.2173351  33.0271819  56.5629137  87.7170734  32.0692318
  55.3921772  74.4106785  41.9084530  54.4744333  74.6321732  41.7506218
  55.8081916  74.4853096  41.0496238  56.1756820  75.8098201  37.0387211
  56.9228639  76.3219598  36.7294333  56.4448409  75.4882254  37.8991604
  54.4483470  78.3056742  34.0214165  53.5394689  78.0215775  34.1186635
  54.4778554  78.7255820  33.1617472  59.6802737  81.9163331  37.7905333
  59.2265064  81.0754241  37.8470523  59.0496704  82.5524730  38.1280113
  58.6235657  72.8455317  39.0206000  57.8858414  72.3332704  39.3516243
  58.8762430  72.4055699  38.2089277  58.1235677  83.7539828  38.7255151
  58.4158651  84.3144885  38.0067516  58.6334297  84.0468389  39.4808310
  52.9968364  75.9185362  40.1223960  53.0516974  74.9659199  40.0466437
  52.1859566  76.0744801  40.6065259  54.1459558  79.8465485  31.3602244
  53.7078988  79.1301344  30.9007881  54.8869999  80.0741600  30.7987335
  50.9360724  74.5362422  37.8814339  50.1228589  74.8356593  38.2879531
  51.4319718  74.1418111  38.5988821  53.0869302  84.5320179  39.8148604
  53.0445480  84.7581025  38.8857136  54.0032001  84.2983554  39.9634405
  62.2632672  78.1222682  37.4178562  62.1250571  78.3124278  36.4899751
  61.9068891  78.8842065  37.8746613  62.2902052  80.1899209  42.4289834
  62.7238559  80.0974499  43.2772888  63.0033633  80.1656710  41.7909850
  47.5117866  75.5526290  35.6870319  46.5815454  75.4910745  35.9040281
  47.6075338  75.0302243  34.8906961  47.4303415  72.0781103  38.2748561
  47.6910232  72.9926436  38.1657721  48.2520587  71.6105545  38.4245174
  63.1517602  80.2322910  44.9622719  63.3453492  81.1368721  45.2081994
  63.0518220  79.7730329  45.7961304  54.3754530  87.0821327  34.6333940
  54.5506286  86.6109370  35.4479563  53.6887318  87.7087093  34.8615201
  55.3311594  81.3593833  40.6797241  54.9961426  81.3194603  41.5754891
  54.8315539  80.6938549  40.2067652  58.2670785  78.7049867  30.9534301
  57.6499956  77.9796695  30.8567354  57.7987274  79.4659227  30.6101375
  59.9224917  83.4148775  48.6140081  59.8637463  82.7307996  47.9470664
  60.3244435  84.1567765  48.1620707  48.9415616  90.2310689  41.4073800
  49.1812214  90.8629213  42.0852819  48.0984812  89.8798729  41.6939160
  50.0569331  72.9235291  30.0755605  49.1798797  72.8024092  29.7117852
  50.5327084  72.1321370  29.8234494  53.4543478  86.0389812  43.8115304
  53.3813649  86.8444783  44.3234609  53.0120871  86.2381778  42.9863326
  53.2433257  85.2761582  37.3218126  52.4600779  85.8183262  37.4156350
  53.9426002  85.7935561  37.7212367  64.4059665  76.7896577  41.6070623
  64.3949541  77.6721292  41.2364556  63.5377044  76.4368128  41.4125160
  57.6359688  79.8427898  37.5390755  56.7015967  79.9629361  37.3695459
  57.8136356  78.9400365  37.2750765  61.0232239  75.6845218  38.0740789
  61.4892692  76.5173209  38.0001091  61.4739740  75.2190199  38.7786047
  59.0908470  82.0289039  35.0726941  59.3668314  81.9145634  35.9820815
  58.2212969  81.6306524  35.0339114  55.7262534  86.2775390  38.7159754
  55.9084929  85.4597046  39.1787507  56.5495520  86.4943082  38.2784644
  56.0604700  85.2043575  35.9774803  56.5892466  84.6936030  35.3644965
  56.3232920  84.8886105  36.8420336  49.4160448  86.2558692  38.7372579
  48.7470823  86.7404819  38.2536619  49.2773318  86.5027912  39.6515957
  53.5565717  88.2902435  45.3355237  54.1084025  88.4534057  46.1004322
  53.8971910  88.8806873  44.6635262  44.7848025  74.5177147  35.5168511
  45.0801466  73.6087825  35.4635565  43.8836061  74.4964886  35.1949513
  56.6934104  86.2384411  42.3218919  56.5685243  85.4374151  41.8129865
  57.3513195  86.7330604  41.8332889  46.5135867  72.1991244  35.6407836
  46.1848573  71.3188623  35.4582942  46.8675237  72.1438913  36.5284225
  55.7615445  83.8346147  40.1502822  55.6140408  82.9062854  40.3310392
  56.5868939  83.8566238  39.6659897  49.6277690  72.4864214  36.0083314
  49.9673762  73.0150135  35.2861922  50.0749810  72.8244620  36.7841880
  59.3649567  84.6574706  41.2367694  60.2896115  84.4517567  41.0992146
  59.1964871  84.4091107  42.1457036  51.6145837  70.9838836  34.2076607
  52.3354199  71.3620088  33.7040323  50.9911141  71.7027713  34.3111585
  55.7576960  71.6883985  35.1434939  55.9740574  72.5708623  34.8423767
  55.2771027  71.2970198  34.4140581  59.1544884  85.1760373  36.5929786
  59.3281761  84.6106796  35.8403638  59.6473775  85.9761268  36.4109276
  51.7609460  70.5186626  37.0374143  51.8825371  69.5903272  37.2365031
  51.4711502  70.5325312  36.1252459  65.0084275  77.9396796  38.2120086
  65.4515421  77.1904121  37.8139209  64.1310785  77.9306933  37.8293818
  60.1420056  84.4927138  33.6926684  60.8370961  85.1133830  33.9113999
  60.4843206  83.6422489  33.9679062  62.0411479  81.9426843  35.2214015
  62.5662803  82.2814116  34.4963335  61.9533832  81.0073858  35.0377150
  53.7252140  88.0098826  39.5809268  53.2857130  87.5175205  40.2742125
  54.4760257  87.4671794  39.3401343  46.2044479  84.2010367  39.5833896
  47.0302499  83.9014139  39.2032540  45.8538531  83.4317990  40.0323685
  44.4053084  82.1196694  40.5422830  43.5684992  81.6918868  40.3606831
  44.3776729  82.3129137  41.4793621  61.7305385  82.5759747  50.5265213
  60.9400929  82.5583886  49.9869712  61.4938740  83.1148040  51.2814250
  50.7339519  82.1040759  35.1290030  50.8827639  82.7876223  34.4756703
  51.5405962  82.0845849  35.6439486  63.3521457  81.8449155  48.0839963
  63.0606265  82.2079135  48.9203424  62.7393588  81.1316163  47.9053295
  64.5517139  79.4102034  40.6042533  65.3864031  79.8491839  40.7680094
  64.6876268  78.9340688  39.7850779  48.4892152  78.1305936  36.1351099
  48.2438194  77.2268266  36.3331309  48.6588066  78.1323087  35.1930577
  47.7587799  73.8634294  33.6337261  47.0657044  73.9378649  32.9777297
  47.5139551  73.0994638  34.1558778  54.2334924  84.5988889  32.6001778
  53.6608892  85.2179076  32.1472250  54.8067718  85.1488251  33.1341700
  60.3010314  73.8447529  44.7848327  61.2527737  73.9445627  44.8060551
  60.1313765  73.0525798  45.2946411  57.4532184  84.8826039  33.7310360
  58.3862857  84.8171601  33.9343236  57.3655397  85.7182306  33.2724893
  60.0820201  84.1991910  30.6914308  60.0033832  83.8651773  31.5850066
  60.9029868  84.6913678  30.6905780  62.7798392  77.0653649  43.8990626
  62.7474712  76.1269650  44.0850310  63.3899016  77.1437686  43.1656451
  54.6181723  75.9349702  29.9417830  55.5640828  75.8055910  30.0106248
  54.2395968  75.1964364  30.4187258  62.9292881  73.8564692  43.9448909
  62.4131929  73.0723149  43.7578838  63.8132829  73.5283409  44.1095429
  68.5974942  78.1269656  43.0396663  69.3278330  77.8654944  43.6004366
  67.9881887  77.3898378  43.0798731  66.6790239  76.2677518  43.6371114
  65.9523403  76.1333483  43.0287606  66.2637526  76.5754347  44.4427832
  52.8024640  73.8599678  29.8772716  51.8956096  73.5632791  29.9535429
  53.0800621  73.5629497  29.0107002  51.5723425  70.7186614  30.0184695
  52.4342589  71.0441512  30.2780512  51.7573769  69.9318110  29.5057761
  59.7256061  69.5915140  37.1619918  59.1454730  70.2499944  36.7797970
  59.4591994  68.7692485  36.7507335  58.5080939  71.7515230  36.2176266
  57.6206794  72.0364881  35.9996461  58.9234928  71.5908994  35.3703543
  61.8595475  71.7761751  39.9330605  62.6355865  72.2658204  40.2055222
  61.1343610  72.2019806  40.3902475  64.2968034  72.4889371  40.9904546
  64.8912525  72.2485107  40.2797854  64.3694618  71.7696501  41.6178082
  46.5165190  86.3322982  41.3047711  46.3819658  85.5723383  40.7385709
  46.0997252  87.0563881  40.8376500  57.6524153  81.5159905  30.3124286
  58.3560003  81.7209908  30.9281942  56.9286801  82.0836667  30.5773369
  58.4821963  77.2669766  36.4326556  58.4257164  77.7238318  35.5934189
  59.0350305  76.5060451  36.2549399  62.2926769  73.0559498  37.2576676
  62.0363703  72.6556134  38.0884883  61.6679637  73.7703292  37.1326815
  66.6039107  75.7955572  39.7647967  66.0438665  75.8648761  40.5379529
  65.9982610  75.6196556  39.0447463  49.6734316  87.2292299  41.5166153
  49.5566700  88.1737731  41.4144844  48.8526762  86.9265860  41.9051953
  59.5610850  81.9542434  32.3622746  60.3956454  81.5223633  32.1800221
  59.3995193  81.7824448  33.2899641  59.2156742  78.4574548  33.7279085
  59.1605546  78.2918819  32.7867529  58.5902798  79.1650581  33.8841275
  52.5252868  67.9582657  33.3064404  52.5131538  68.9024497  33.4632675
  53.4176290  67.7752802  33.0123865  50.6988830  87.8820561  44.7322082
  51.6016076  87.9144171  45.0488577  50.4726200  86.9521011  44.7468418
  52.4542432  86.6351547  41.3932160  51.5038063  86.6353409  41.2796533
  52.7574918  85.8884282  40.8768195  68.1895125  92.4712085  42.4577923
  68.8273535  92.3518833  41.7541263  68.0715968  93.4192929  42.5165875
  64.9984831  92.4239514  42.3939447  64.6603343  92.3080578  41.5059982
  65.8674600  92.0230679  42.3740454  60.8571647  94.2774990  38.3836338
  60.2936512  94.1864927  37.6152626  60.7424042  93.4574894  38.8638831
  65.4804614  93.5774365  48.3525653  65.4693255  93.1827164  47.4806157
  65.6425254  92.8440438  48.9459424  58.4036079  95.7726182  41.2220559
  59.1957371  95.4317006  40.8066858  58.6432729  95.8821157  42.1422712
  66.4371206  97.9445958  33.6950803  65.7859186  98.5300038  33.3084817
  67.2315569  98.4752153  33.7545841  60.3626833  95.0335095  34.0937938
  61.1357709  94.4864082  33.9550813  60.7152232  95.8979344  34.3052399
  62.2011876  96.3611477  47.3004837  61.9101742  97.2657108  47.1851503
  62.8368860  96.4028005  48.0148907  63.1268082  93.7388326  43.8906197
  63.7231655  93.5144348  43.1763160  63.1843054  92.9973071  44.4931644
  62.6993111  91.1927761  31.7256388  62.9518632  90.6709282  30.9639851
  61.7617670  91.0293906  31.8283071  67.7436394  90.1963539  39.5331131
  68.5299483  89.7782962  39.1821548  68.0075098  91.1009632  39.7012779
  67.9146471  95.6336390  34.2319788  67.2792304  95.7071016  34.9440692
  67.5843877  96.2229988  33.5538867  73.1444821  90.1338773  40.4364109
  73.8769993  89.5637989  40.6701939  72.3884177  89.7460373  40.8770615
  62.4189400  93.0955867  33.9280763  62.3025658  92.4200770  34.5961847
  62.5291660  92.6088241  33.1112916  64.7620941  92.5566014  37.6327452
  64.3979148  92.0296635  38.3440373  65.6188056  92.1664483  37.4593937
  70.6670241  83.8460347  44.8958718  70.3353566  84.7155758  44.6719933
  70.0715855  83.5296631  45.5752748  64.4026428  87.5855914  32.6288800
  64.5700830  88.4536150  32.9959271  64.2123597  87.7483195  31.7050090
  67.1601761  96.0472893  44.2954631  66.8602484  96.9497931  44.1870438
  66.8152820  95.7805076  45.1475784  60.6114242  92.4986689  40.3291335
  59.6864739  92.3662904  40.5369027  60.8598655  93.2780909  40.8261277
  70.5598904  88.5655433  41.9752068  69.6515782  88.4970841  41.6810829
  70.5086500  89.0427378  42.8033893  64.3815648  90.0413571  33.6135467
  64.2615274  90.4870622  34.4520947  63.6868237  90.3898889  33.0549005
  57.9723053  92.1419963  41.1635124  58.1015434  92.3954442  42.0774536
  57.2920505  92.7347671  40.8439779  62.1422541 102.8117213  37.2625598
  62.0646570 103.7625038  37.3414079  61.5384184 102.4663085  37.9200525
  64.6339770  89.9845078  49.9186965  63.8573104  90.5438999  49.9089830
  65.2730333  90.4701861  50.4401835  72.4260551  86.7671871  43.7529942
  71.7834931  87.0604404  43.1069736  71.9215479  86.6524792  44.5583139
  70.0800715  90.5135044  34.4415801  70.9918571  90.7462431  34.2663499
  69.5710362  91.0972089  33.8790880  62.8886143  92.7930532  49.4804932
  63.6300827  93.3315576  49.2039756  62.1823128  93.4196821  49.6376484
  68.3641482  94.9359672  48.0777094  68.7724838  94.4942083  47.3331726
  67.6418744  94.3612300  48.3311287  64.7172552  89.8732279  45.4510651
  65.5633747  90.2971693  45.5945300  64.6571190  89.2165903  46.1449214
  68.6870297  95.4960863  41.8329383  68.0579159  95.6606577  41.1305450
  68.2995959  95.9102472  42.6040347  72.5659529  96.4315301  39.1873746
  71.8810567  96.8114202  38.6370780  72.6503378  97.0410627  39.9205694
  67.8671998  87.5336647  47.1091824  67.6232929  88.2878708  46.5726100
  68.1431928  87.9121995  47.9439071  69.8210460  94.0775260  45.7869090
  70.0327356  94.7207020  45.1103471  69.7740209  93.2437576  45.3191020
  67.4236689  86.6893080  42.6905662  66.5621168  86.9874334  42.9822400
  67.4499124  86.9063479  41.7586695  64.2398259  95.2335271  39.0979468
  64.7036604  95.5122974  38.3084090  63.9755057  94.3318716  38.9152558
  61.1322340  94.7806752  42.0359231  61.7023697  95.2094021  41.3976715
  61.7230452  94.4989337  42.7343417  63.1767145  91.3558423  35.9069033
  63.8791188  91.8079467  36.3742959  62.8447773  90.7142242  36.5348926
  61.6247506  89.9470180  50.2820242  60.9946167  90.6286461  50.5155639
  61.5183594  89.8353262  49.3373381  56.9192479  89.6141976  41.2086166
  56.1291533  89.8699505  40.7326277  57.4103726  90.4290314  41.3138207
  70.9356288  96.9547215  43.9591447  71.7573732  96.5527402  43.6774129
  70.9318691  96.8515449  44.9107563  58.8707224  89.9786555  38.1669643
  58.0738387  90.0905249  38.6853139  58.6432816  90.3173207  37.3010534
  64.7012892  96.5031258  46.1152158  64.7657324  96.9651666  46.9510330
  63.9923816  95.8728623  46.2434468  55.2030182  89.8672466  43.6401157
  55.4538220  90.7519476  43.9058733  55.7389730  89.6877068  42.8676249
  79.0262281  93.2985964  40.3076419  78.2725990  92.7293362  40.1520423
  79.1609823  93.2648628  41.2547053  64.4160909  98.1699366  35.9831138
  64.2806584  99.0150902  36.4115986  64.9570722  98.3718644  35.2197072
  57.8690307  95.6874804  36.5559063  58.3814827  96.4818054  36.7064628
  58.5213020  94.9901094  36.4892665  59.6785192  98.8040560  38.6381816
  59.8551820  99.7258525  38.4502800  60.4742025  98.4898979  39.0676196
  63.8196210  85.6648825  50.2365750  64.5605923  86.2655978  50.1570212
  64.0514133  84.9226463  49.6783792  58.9637548  90.8505192  48.5143980
  58.8491063  89.9490449  48.8151078  58.1082066  91.0968889  48.1628796
  66.0429386  98.7922932  50.1131480  65.5993240  98.0059311  49.7952385
  66.7046599  98.9802083  49.4475371  60.8016507 100.3218734  44.6392159
  61.3523932 100.1935797  43.8669153  59.9627983 100.6213623  44.2887051
  68.1410624  99.0725732  48.1412881  68.1229099  99.8934613  47.6493151
  69.0630544  98.9479808  48.3663023  64.5983678  96.5869862  48.9836390
  65.1312015  95.8258150  48.7535698  64.0697759  96.2943514  49.7260544
  67.7653373  81.6929928  44.5130032  67.4217642  82.5831569  44.4369142
  68.1332336  81.5031585  43.6499617  55.8339224  94.0163458  37.3318634
  56.6714446  94.4260467  37.1152341  56.0117491  93.0762900  37.3018828
  67.7303656  91.6838539  33.0202467  67.2150279  92.4543144  33.2590854
  67.4580964  91.0103675  33.6435528  65.3150767  86.5288240  38.0787705
  64.4592363  86.1395090  37.8993344  65.7277719  86.6080200  37.2187491
  66.8449913  84.0634583  42.4779265  66.3414709  84.0264718  41.6647070
  67.1380520  84.9727326  42.5375921  63.0892799  84.1473313  41.4845447
  63.9545796  83.9516121  41.1251336  63.1570308  83.9183664  42.4114803
  72.7037930  94.4370894  34.9555640  71.9267373  94.0982053  34.5110802
  73.3829411  94.4423517  34.2810605  67.5189959  89.5565631  34.8462248
  67.2140094  89.8711780  35.6972391  68.4720401  89.6347051  34.8889581
  65.9636391  95.7155854  36.4955202  65.4357752  94.9808614  36.1828439
  65.4623893  96.4930531  36.2495170  70.9429237  93.9104875  41.6122248
  70.2852911  94.6004136  41.7002377  71.7469636  94.3001307  41.9556234
  60.6955118  86.3775521  38.8561813  61.2698870  86.1550702  38.1235006
  61.2826101  86.4464215  39.6090415  69.7534696  92.2649248  39.6626190
  70.2666577  92.8979239  40.1647900  70.4035919  91.6650443  39.2969550
  61.0224705  88.4079982  32.8757699  60.1862018  88.7454668  33.1966973
  60.8829475  88.2728961  31.9384836  62.9977786  83.2516770  37.5836883
  62.3442198  82.9365787  36.9593498  62.9558260  82.6292510  38.3096706
  64.1088991  93.5336065  29.4990175  63.2016053  93.3025318  29.6981324
  64.6060023  92.7373684  29.6864156  67.0157070 102.2433572  32.4186861
  66.3418769 102.5465269  33.0271819  67.4022892 103.0462652  32.0692318
  66.2315526  89.7398703  41.9084530  65.3138088  89.9613650  41.7506218
  66.6475670  89.8145014  41.0496238  67.0150574  91.1390119  37.0387211
  67.7622393  91.6511516  36.7294333  67.2842164  90.8174171  37.8991604
  65.2877224  93.6348659  34.0214165  64.3788444  93.3507692  34.1186635
  65.3172308  94.0547738  33.1617472  70.5196492  97.2455249  37.7905333
  70.0658819  96.4046159  37.8470523  69.8890458  97.8816647  38.1280113
  69.4629411  88.1747235  39.0206000  68.7252168  87.6624621  39.3516243
  69.7156185  87.7347617  38.2089277  68.9629431  99.0831746  38.7255151
  69.2552405  99.6436803  38.0067516  69.4728052  99.3760307  39.4808310
  69.5641039  80.9523487  39.6147769  69.8699915  80.0920850  39.3273684
  70.2893643  81.5441107  39.4146763  55.8565395  91.3554174  38.0029367
  55.6589795  90.7623534  37.2780434  55.3012059  91.0506384  38.7205306
  63.8362118  91.2477280  40.1223960  63.8910728  90.2951116  40.0466437
  63.0253320  91.4036719  40.6065259  64.9853312  95.1757403  31.3602244
  64.5472742  94.4593262  30.9007881  65.7263753  95.4033518  30.7987335
  61.7754478  89.8654340  37.8814339  60.9622344  90.1648510  38.2879531
  62.2713472  89.4710029  38.5988821  63.9263056  99.8612097  39.8148604
  63.8839235 100.0872943  38.8857136  64.8425755  99.6275471  39.9634405
  67.3728690  90.3296164  46.7129233  67.7278078  90.5567637  47.5723699
  68.0200821  90.6614541  46.0906488  73.1026427  93.4514600  37.4178562
  72.9644326  93.6416196  36.4899751  72.7462646  94.2133983  37.8746613
  61.2668553  87.4372695  43.4975574  61.9067932  87.2961454  42.7998537
  60.4346084  87.1507209  43.1214176  73.1295807  95.5191127  42.4289834
  73.5632313  95.4266416  43.2772888  73.8427387  95.4948628  41.7909850
  62.0428857  96.7375126  39.6110567  62.8369455  96.2425446  39.4093142
  61.3320549  96.2092989  39.2478272  66.8623701  99.1193221  43.9622934
  66.9160724  99.6884158  44.7300650  65.9938483  99.2895106  43.5976971
  58.3511620  90.8818207  35.6870319  57.4209209  90.8202663  35.9040281
  58.4469092  90.3594160  34.8906961  58.2697169  87.4073020  38.2748561
  58.5303987  88.3218354  38.1657721  59.0914342  86.9397463  38.4245174
  59.7422095  88.8210777  45.4447385  60.4145148  88.6128140  44.7960034
  58.9151881  88.6232863  45.0052618  73.9911356  95.5614828  44.9622719
  74.1847246  96.4660638  45.2081994  73.8911974  95.1022247  45.7961304
  65.6447667  85.4472718  47.4613046  64.9975582  86.1462668  47.3677523
  66.4148682  85.8808862  47.8289295  69.0526465  95.7121571  50.5363600
  68.9011971  95.4832122  49.6193683  69.0431144  96.6692172  50.5494945
  65.8211801  93.2853483  45.5209866  66.7503861  93.4364643  45.3478833
  65.4002831  93.3737504  44.6658513  64.6200133  97.3104148  43.2908404
  64.4811219  96.9422932  44.1634342  63.8314729  97.8251787  43.1192361
  65.2148285 102.4113244  34.6333940  65.3900041 101.9401287  35.4479563
  64.5281073 103.0379010  34.8615201  66.1705348  96.6885750  40.6797241
  65.8355181  96.6486520  41.5754891  65.6709294  96.0230466  40.2067652
  60.1449592  92.0953380  46.2049823  60.0069390  91.3633619  46.8061362
  61.0554516  92.0062281  45.9234010  69.1064540  94.0341785  30.9534301
  68.4893710  93.3088613  30.8567354  68.6381028  94.7951145  30.6101375
  62.7731893  91.8073340  45.6933502  63.4831511  91.1666532  45.6520121
  62.7301201  92.0586235  46.6159683  70.7618671  98.7440693  48.6140081
  70.7031218  98.0599913  47.9470664  71.1638190  99.4859683  48.1620707
  61.4860827  88.7938558  47.5129142  60.9498184  88.3429296  48.1650738
  60.8977535  88.9284467  46.7699606  59.7809370 105.5602607  41.4073800
  60.0205968 106.1921131  42.0852819  58.9378567 105.2090647  41.6939160
  60.8963086  88.2527209  30.0755605  60.0192552  88.1316010  29.7117852
  61.3720839  87.4613287  29.8234494  70.7636079  96.7080277  46.8454061
  69.8762857  96.3706199  46.9680460  71.3334630  95.9763308  47.0822827
  52.4165226  93.0404369  40.1697113  53.1036266  92.7266099  39.5818128
  52.2613354  93.9445733  39.8964364  57.2199948  87.9294565  44.5982136
  57.1358137  87.3220235  43.8632546  56.3982654  88.4203584  44.5991633
  64.2937232 101.3681729  43.8115304  64.2207404 102.1736701  44.3234609
  63.8514625 101.5673695  42.9863326  64.0827012 100.6053499  37.3218126
  63.2994534 101.1475180  37.4156350  64.7819757 101.1227479  37.7212367
  67.3923662  86.4148129  39.9652331  67.8892361  85.6618091  39.6453402
  66.6210643  86.4512446  39.3995541  75.2453419  92.1188494  41.6070623
  75.2343295  93.0013210  41.2364556  74.3770799  91.7660045  41.4125160
  66.7535916 101.2668563  45.9673463  67.4663888 101.9016028  45.8949364
  66.2625944 101.3632429  45.1513465  68.4753443  95.1719816  37.5390755
  67.5409721  95.2921279  37.3695459  68.6530111  94.2692283  37.2750765
  63.9758631  88.5565512  39.6924016  63.6056418  88.0036552  40.3804921
  64.4717723  87.9523645  39.1399016  71.8625994  91.0137135  38.0740789
  72.3286446  91.8465127  38.0001091  72.3133494  90.5482117  38.7786047
  61.8047829  99.0163007  46.7879034  62.5057289  99.6499490  46.9408428
  61.3342944  99.3577738  46.0274673  69.9302225  97.3580957  35.0726941
  70.2062069  97.2437551  35.9820815  69.0606724  96.9598442  35.0339114
  69.8342657  83.3817722  42.1131690  68.9205736  83.6121949  42.2813897
  70.2635758  83.4656166  42.9645723  69.6049115  91.5707614  44.6131584
  68.9520565  91.8183522  43.9584037  69.9829495  90.7571753  44.2794061
  66.5656289 101.6067308  38.7159754  66.7478684 100.7888963  39.1787507
  67.3889275 101.8235000  38.2784644  66.8998454 100.5335493  35.9774803
  67.4286221 100.0227947  35.3644965  67.1626674 100.2178023  36.8420336
  65.6536688  92.3127425  51.0997621  64.9777325  92.2121555  51.7699996
  66.4764322  92.1566639  51.5633618  57.4015547  98.5499362  43.7210137
  57.9868984  97.8043050  43.8538041  57.2040386  98.8603319  44.6046800
  60.2554202 101.5850609  38.7372579  59.5864578 102.0696737  38.2536619
  60.1167072 101.8319830  39.6515957  51.9933202  91.1204962  42.4414580
  52.0317301  90.5868553  43.2351698  51.4873495  90.5940168  41.8225557
  64.3959471 103.6194353  45.3355237  64.9477779 103.7825974  46.1004322
  64.7365664 104.2098791  44.6635262  59.3723964  85.9669503  45.9377122
  59.4365291  86.8284334  45.5254520  59.3091084  85.3543504  45.2049480
  58.8476237  88.0392635  49.5850156  59.4748276  87.6569713  50.1987681
  57.9904156  87.8206837  49.9505849  69.2470345  98.4455610  51.1903892
  69.7910249  99.0585569  50.6958846  68.6657190  99.0035189  51.7070905
  55.6241780  89.8469064  35.5168511  55.9195221  88.9379743  35.4635565
  54.7229815  89.8256804  35.1949513  67.5327858 101.5676328  42.3218919
  67.4078998 100.7666068  41.8129865  68.1906949 102.0622522  41.8332889
  59.1536027  87.9225061  41.4996060  58.4322612  88.5361029  41.3603533
  59.9429282  88.4582826  41.4212706  69.5962767  99.3685348  43.9498470
  68.6493102  99.2490700  43.8776796  69.9445540  98.4807847  44.0324731
  61.9562340  85.2579487  47.7736711  62.4796742  85.5041784  48.5363021
  61.7374673  86.0899522  47.3539849  57.3529621  87.5283162  35.6407836
  57.0242327  86.6480541  35.4582942  57.7068992  87.4730831  36.5284225
  66.6009200  99.1638065  40.1502822  66.4534162  98.2354772  40.3310392
  67.4262693  99.1858155  39.6659897  60.4671444  87.8156132  36.0083314
  60.8067517  88.3442053  35.2861922  60.9143565  88.1536538  36.7841880
  70.2043322  99.9866623  41.2367694  71.1289869  99.7809485  41.0992146
  70.0358625  99.7383025  42.1457036  63.1614885  86.1993183  45.4586382
  62.8211705  85.4000996  45.8607062  62.4553891  86.4994893  44.8863215
  63.8131357  83.2842495  43.9113705  64.6357426  82.8102973  43.7892595
  64.0569420  84.0632979  44.4112391  62.4539591  86.3130753  34.2076607
  63.1747954  86.6912006  33.7040323  61.8304896  87.0319630  34.3111585
  66.5970714  87.0175902  35.1434939  66.8134329  87.9000540  34.8423767
  66.1164781  86.6262116  34.4140581  61.3369936  89.9761616  41.7205684
  61.1914516  90.2901919  42.6129965  60.8595139  90.5946516  41.1676582
  63.1966319  86.9664164  41.7686573  63.1827887  86.0705257  41.4318871
  63.9138747  86.9734827  42.4024859  65.0492449  87.4001504  43.8139701
  64.7910227  88.3218574  43.8124031  64.5177490  87.0031938  44.5040165
  69.9938638 100.5052291  36.5929786  70.1675516  99.9398713  35.8403638
  70.4867529 101.3053186  36.4109276  55.8115598  92.5166960  44.6593345
  55.2669066  93.2926768  44.7913619  56.6894948  92.8637764  44.5012466
  62.6003214  85.8478544  37.0374143  62.7219126  84.9195190  37.2365031
  62.3105257  85.8617230  36.1252459  65.4694405  83.5333454  40.1740863
  65.4916102  83.5972787  39.2192843  65.8862464  82.6937963  40.3681369
  75.8478029  93.2688714  38.2120086  76.2909175  92.5196039  37.8139209
  74.9704539  93.2598850  37.8293818  70.9813811  99.8219055  33.6926684
  71.6764715 100.4425748  33.9113999  71.3236961  98.9714407  33.9679062
  56.5981620  91.6436856  47.5523502  55.8563356  91.7919492  48.1388132
  56.2774364  91.9045122  46.6890251  72.8805234  97.2718761  35.2214015
  73.4056558  97.6106034  34.4963335  72.7927586  96.3365776  35.0377150
  64.5425282 101.1852834  47.3503892  64.8512409 100.9401981  48.2226591
  65.3400764 101.3899473  46.8622762  64.5645894 103.3390744  39.5809268
  64.1250885 102.8467123  40.2742125  65.3154011 102.7963712  39.3401343
  57.0438233  99.5302285  39.5833896  57.8696253  99.2306057  39.2032540
  56.6932285  98.7609907  40.0323685  62.0119767  98.8828753  41.6531570
  61.3899776  98.2199458  41.3533798  62.6824633  98.9089885  40.9705218
  55.2446838  97.4488611  40.5422830  54.4078747  97.0210786  40.3606831
  55.2170484  97.6421055  41.4793621  62.0844294  87.3610541  51.2464076
  62.1332449  88.2372664  50.8641845  62.6266808  86.8187934  50.6735719
  72.5699140  97.9051664  50.5265213  71.7794683  97.8875803  49.9869712
  72.3332494  98.4439958  51.2814250  72.6897015  94.7544131  47.8397941
  72.7395020  94.5894138  48.7813464  72.5810938  93.8871390  47.4495822
  61.5733273  97.4332677  35.1290030  61.7221394  98.1168141  34.4756703
  62.3799717  97.4137767  35.6439486  69.9800777  90.7375059  49.1557248
  70.8810640  90.5981524  48.8641246  70.0548752  90.9029514  50.0955426
  64.3143582  88.1141914  48.0010435  63.4446892  88.4075480  47.7293023
  64.5503063  88.6982359  48.7217698  74.1915212  97.1741072  48.0839963
  73.9000020  97.5371053  48.9203424  73.5787343  96.4608081  47.9053295
  75.3910894  94.7393952  40.6042533  76.2257785  95.1783756  40.7680094
  75.5270023  94.2632605  39.7850779  72.4402400  92.2973687  46.5520021
  72.9156521  92.4901333  45.7438872  71.5167965  92.3532873  46.3063405
  59.3285906  93.4597854  36.1351099  59.0831948  92.5560184  36.3331309
  59.4981821  93.4615005  35.1930577  67.0182616  84.3321531  45.5175855
  67.5364560  85.0682557  45.1922343  66.6637749  84.6385524  46.3522614
  58.5981554  89.1926212  33.6337261  57.9050799  89.2670567  32.9777297
  58.3533306  88.4286555  34.1558778  67.2695210  80.7521813  41.0376752
  67.5496964  80.0845002  41.6637178  68.0545817  80.9450909  40.5251415
  65.0728679  99.9280807  32.6001778  64.5002646 100.5470994  32.1472250
  65.6461473 100.4780169  33.1341700  71.1404069  89.1739447  44.7848327
  72.0921492  89.2737545  44.8060551  70.9707519  88.3817716  45.2946411
  69.1618448  86.2595030  44.9707728  68.5668380  86.5400043  44.2754216
  68.8768145  86.7488931  45.7424469  68.2925939 100.2117957  33.7310360
  69.2256612 100.1463519  33.9343236  68.2049152 101.0474224  33.2724893
  70.9213955  99.5283827  30.6914308  70.8427587  99.1943691  31.5850066
  71.7423622 100.0205595  30.6905780  73.6192147  92.3945567  43.8990626
  73.5868467  91.4561567  44.0850310  74.2292770  92.4729603  43.1656451
  65.4575477  91.2641620  29.9417830  66.4034582  91.1347828  30.0106248
  65.0789722  90.5256282  30.4187258  73.7686635  89.1856610  43.9448909
  73.2525684  88.4015067  43.7578838  74.6526584  88.8575327  44.1095429
  71.4297362  82.9297626  39.9044722  71.2322183  82.6212714  40.7888054
  72.0397068  83.6559265  40.0342652  79.4368696  93.4561574  43.0396663
  80.1672085  93.1946862  43.6004366  78.8275642  92.7190296  43.0798731
  77.5183994  91.5969436  43.6371114  76.7917157  91.4625401  43.0287606
  77.1031280  91.9046265  44.4427832  65.3414170  95.3159366  51.4018487
  66.2617179  95.4937965  51.5958534  65.3063753  94.3715411  51.2498187
  63.6418395  89.1891596  29.8772716  62.7349850  88.8924709  29.9535429
  63.9194376  88.8921414  29.0107002  54.5596335  90.5097960  40.3271762
  54.2399119  89.6563268  40.0346136  54.0129763  90.7246538  41.0829729
  58.3376243  93.2260401  44.0441268  58.5562252  94.1577508  44.0629302
  58.7502016  92.8668375  44.8296072  65.2580460  83.7328486  36.0316957
  64.4481189  83.3875571  36.4072203  65.9464877  83.4236030  36.6204568
  67.1871009  82.8106533  37.6541253  67.7402047  83.2301986  38.3131277
  67.4241095  81.8842281  37.6964209  63.2104108  88.7993606  53.4344017
  63.1100835  89.7487963  53.3656108  62.9925650  88.4711845  52.5620087
  62.4117179  86.0478531  30.0184695  63.2736343  86.3733430  30.2780512
  62.5967523  85.2610027  29.5057761  54.4284595  94.1300871  42.2964884
  53.7348066  93.7154824  41.7834838  55.1757586  94.1721408  41.6998302
  70.5649816  84.9207058  37.1619918  69.9848485  85.5791862  36.7797970
  70.2985748  84.0984402  36.7507335  69.0153382  84.3212115  39.3641238
  69.5153160  84.4328650  38.5555557  69.6588990  84.0173168  40.0042046
  63.0735378  92.2290745  52.2509079  62.5902460  93.0291105  52.4572968
  63.1596317  92.2398690  51.2976523  56.3421338  94.0619125  40.1730898
  56.3192026  94.1606812  39.2212781  56.6521974  94.9084276  40.4948065
  59.0008715  96.1195280  44.2877513  59.9551969  96.0879222  44.2207444
  58.8021239  95.6585904  45.1027739  59.5908098  94.6896396  46.8548310
  60.4100987  95.1840475  46.8783148  59.8644905  93.7728364  46.8265878
  69.3474694  87.0807148  36.2176266  68.4600549  87.3656799  35.9996461
  69.7628683  86.9200912  35.3703543  72.6989230  87.1053669  39.9330605
  73.4749620  87.5950122  40.2055222  71.9737364  87.5311723  40.3902475
  75.1361788  87.8181288  40.9904546  75.7306279  87.5777024  40.2797854
  75.2088372  87.0988419  41.6178082  57.3558944 101.6614899  41.3047711
  57.2213412 100.9015300  40.7385709  56.9391006 102.3855799  40.8376500
  68.4917907  96.8451823  30.3124286  69.1953757  97.0501825  30.9281942
  67.7680556  97.4128585  30.5773369  69.3215717  92.5961684  36.4326556
  69.2650919  93.0530236  35.5934189  69.8744060  91.8352369  36.2549399
  73.1320523  88.3851416  37.2576676  72.8757458  87.9848052  38.0884883
  72.5073391  89.0995210  37.1326815  77.4432861  91.1247489  39.7647967
  76.8832419  91.1940679  40.5379529  76.8376365  90.9488474  39.0447463
  60.5128070 102.5584216  41.5166153  60.3960454 103.5029649  41.4144844
  59.6920516 102.2557778  41.9051953  70.4004605  97.2834352  32.3622746
  71.2350209  96.8515551  32.1800221  70.2388948  97.1116366  33.2899641
  70.0550497  93.7866465  33.7279085  69.9999301  93.6210737  32.7867529
  69.4296552  94.4942498  33.8841275  54.8443012  89.0234530  47.5540508
  55.4901875  88.5133484  48.0427733  54.6360163  89.7603211  48.1283933
  67.3696404  96.0915377  53.0532648  68.2387564  96.2656029  52.6919283
  66.8903155  96.9109794  52.9308377  63.3646622  83.2874574  33.3064404
  63.3525292  84.2316414  33.4632675  64.2570044  83.1044720  33.0123865
  61.5382584 103.2112478  44.7322082  62.4409831 103.2436088  45.0488577
  61.3119954 102.2812929  44.7468418  63.2936186 101.9643465  41.3932160
  62.3431817 101.9645326  41.2796533  63.5968672 101.2176199  40.8768195
  67.1798742  79.8817351  37.5610341  66.4131138  79.3275838  37.7067023
  67.5909447  79.9539220  38.4224492  59.1840503  86.1702147  51.6515522
  60.0471964  85.8138952  51.8618846  58.6105913  85.8316042  52.3390926
  79.0288880 107.8004003  42.4577923  79.6667290 107.6810751  41.7541263
  78.9109723 108.7484847  42.5165875  75.8378586 107.7531431  42.3939447
  75.4997097 107.6372496  41.5059982  76.7068354 107.3522596  42.3740454
  71.6965402 109.6066908  38.3836338  71.1330267 109.5156845  37.6152626
  71.5817797 108.7866812  38.8638831  76.3198369 108.9066283  48.3525653
  76.3087010 108.5119081  47.4806157  76.4819008 108.1732356  48.9459424
  69.2429834 111.1018099  41.2220559  70.0351126 110.7608924  40.8066858
  69.4826484 111.2113074  42.1422712  77.2764960 113.2737875  33.6950803
  76.6252940 113.8591956  33.3084817  78.0709323 113.8044070  33.7545841
  71.2020588 110.3627013  34.0937938  71.9751464 109.8156000  33.9550813
  71.5545986 111.2271262  34.3052399  73.0405630 111.6903395  47.3004837
  72.7495496 112.5949026  47.1851503  73.6762614 111.7319922  48.0148907
  73.9661837 109.0680243  43.8906197  74.5625409 108.8436266  43.1763160
  74.0236808 108.3264989  44.4931644  73.5386865 106.5219679  31.7256388
  73.7912386 106.0001200  30.9639851  72.6011424 106.3585824  31.8283071
  78.5830148 105.5255457  39.5331131  79.3693237 105.1074880  39.1821548
  78.8468853 106.4301549  39.7012779  78.7540226 110.9628307  34.2319788
  78.1186059 111.0362934  34.9440692  78.4237632 111.5521906  33.5538867
  83.9838575 105.4630690  40.4364109  84.7163747 104.8929907  40.6701939
  83.2277931 105.0752291  40.8770615  73.2583154 108.4247785  33.9280763
  73.1419412 107.7492688  34.5961847  73.3685414 107.9380159  33.1112916
  75.6014695 107.8857932  37.6327452  75.2372902 107.3588553  38.3440373
  76.4581811 107.4956401  37.4593937  81.5063996  99.1752264  44.8958718
  81.1747320 100.0447675  44.6719933  80.9109609  98.8588548  45.5752748
  75.2420182 102.9147831  32.6288800  75.4094584 103.7828068  32.9959271
  75.0517351 103.0775113  31.7050090  77.9995515 111.3764810  44.2954631
  77.6996238 112.2789849  44.1870438  77.6546575 111.1096994  45.1475784
  71.4507997 107.8278607  40.3291335  70.5258493 107.6954821  40.5369027
  71.6992410 108.6072826  40.8261277  81.3992659 103.8947350  41.9752068
  80.4909536 103.8262759  41.6810829  81.3480255 104.3719295  42.8033893
  75.2209403 105.3705489  33.6135467  75.1009028 105.8162540  34.4520947
  74.5261991 105.7190807  33.0549005  68.8116808 107.4711881  41.1635124
  68.9409189 107.7246360  42.0774536  68.1314259 108.0639589  40.8439779
  75.4733525 105.3136996  49.9186965  74.6966859 105.8730916  49.9089830
  76.1124088 105.7993779  50.4401835  83.2654305 102.0963789  43.7529942
  82.6228686 102.3896322  43.1069736  82.7609234 101.9816709  44.5583139
  80.9194469 105.8426962  34.4415801  81.8312325 106.0754349  34.2663499
  80.4104116 106.4264006  33.8790880  73.7279897 108.1222449  49.4804932
  74.4694581 108.6607493  49.2039756  73.0216883 108.7488738  49.6376484
  79.2035237 110.2651590  48.0777094  79.6118593 109.8234000  47.3331726
  78.4812498 109.6904217  48.3311287  75.5566307 105.2024197  45.4510651
  76.4027502 105.6263610  45.5945300  75.4964944 104.5457821  46.1449214
  79.5264051 110.8252781  41.8329383  78.8972914 110.9898495  41.1305450
  79.1389713 111.2394390  42.6040347  78.7065752 102.8628565  47.1091824
  78.4626684 103.6170626  46.5726100  78.9825683 103.2413913  47.9439071
  80.6604215 109.4067177  45.7869090  80.8721110 110.0498937  45.1103471
  80.6133963 108.5729494  45.3191020  78.2630444 102.0184998  42.6905662
  77.4014923 102.3166252  42.9822400  78.2892878 102.2355397  41.7586695
  75.0792013 110.5627189  39.0979468  75.5430359 110.8414892  38.3084090
  74.8148811 109.6610633  38.9152558  71.9716094 110.1098670  42.0359231
  72.5417451 110.5385939  41.3976715  72.5624206 109.8281255  42.7343417
  74.0160899 106.6850341  35.9069033  74.7184943 107.1371385  36.3742959
  73.6841528 106.0434160  36.5348926  72.4641261 105.2762098  50.2820242
  71.8339921 105.9578378  50.5155639  72.3577349 105.1645179  49.3373381
  67.7586233 104.9433894  41.2086166  66.9685287 105.1991422  40.7326277
  68.2497481 105.7582232  41.3138207  69.7100979 105.3078473  38.1669643
  68.9132142 105.4197167  38.6853139  69.4826571 105.6465125  37.3010534
  75.5406646 111.8323176  46.1152158  75.6051079 112.2943583  46.9510330
  74.8317570 111.2020541  46.2434468  66.0423936 105.1964384  43.6401157
  66.2931975 106.0811394  43.9058733  66.5783485 105.0168986  42.8676249
  75.2554664 113.4991284  35.9831138  75.1200339 114.3442819  36.4115986
  75.7964476 113.7010561  35.2197072  71.7422004  99.5782863  52.6445493
  71.3488949  99.0249062  53.3193138  72.5588144  99.8893442  53.0352011
  68.7084061 111.0166722  36.5559063  69.2208582 111.8109972  36.7064628
  69.3606774 110.3193012  36.4892665  70.5178946 114.1332478  38.6381816
  70.6945574 115.0550443  38.4502800  71.3135780 113.8190897  39.0676196
  74.6589965 100.9940743  50.2365750  75.3999678 101.5947896  50.1570212
  74.8907887 100.2518380  49.6783792  69.8031303 106.1797110  48.5143980
  69.6884818 105.2782367  48.8151078  68.9475820 106.4260807  48.1628796
  71.6410261 115.6510652  44.6392159  72.1917687 115.5227715  43.8669153
  70.8021737 115.9505541  44.2887051  75.4377433 111.9161780  48.9836390
  75.9705769 111.1550068  48.7535698  74.9091514 111.6235431  49.7260544
  78.6047127  97.0221845  44.5130032  78.2611397  97.9123487  44.4369142
  78.9726090  96.8323503  43.6499617  66.6732978 109.3455376  37.3318634
  67.5108200 109.7552384  37.1152341  66.8511246 108.4054818  37.3018828
  78.5697410 107.0130457  33.0202467  78.0544034 107.7835061  33.2590854
  78.2974719 106.3395593  33.6435528  76.1544521 101.8580157  38.0787705
  75.2986118 101.4687008  37.8993344  76.5671473 101.9372118  37.2187491
  77.6843668  99.3926501  42.4779265  77.1808463  99.3556636  41.6647070
  77.9774275 100.3019243  42.5375921  73.9286554  99.4765230  41.4845447
  74.7939551  99.2808039  41.1251336  73.9964063  99.2475582  42.4114803
  78.3583713 104.8857549  34.8462248  78.0533849 105.2003698  35.6972391
  79.3114155 104.9638969  34.8889581  76.8030145 111.0447772  36.4955202
  76.2751507 110.3100532  36.1828439  76.3017648 111.8222448  36.2495170
  81.7822991 109.2396792  41.6122248  81.1246666 109.9296054  41.7002377
  82.5863390 109.6293224  41.9556234  71.5348873 101.7067438  38.8561813
  72.1092625 101.4842620  38.1235006  72.1219855 101.7756133  39.6090415
  80.5928450 107.5941165  39.6626190  81.1060332 108.2271157  40.1647900
  81.2429674 106.9942361  39.2969550  71.8618460 103.7371899  32.8757699
  71.0255772 104.0746586  33.1966973  71.7223230 103.6020879  31.9384836
  73.8371541  98.5808687  37.5836883  73.1835953  98.2657704  36.9593498
  73.7952015  97.9584428  38.3096706  74.9482745 108.8627982  29.4990175
  74.0409807 108.6317236  29.6981324  75.4453777 108.0665602  29.6864156
  77.0709281 105.0690621  41.9084530  76.1531842 105.2905568  41.7506218
  77.4869425 105.1436931  41.0496238  77.8544329 106.4682036  37.0387211
  78.6016148 106.9803434  36.7294333  78.1235918 106.1466089  37.8991604
  76.1270979 108.9640577  34.0214165  75.2182198 108.6799610  34.1186635
  76.1566063 109.3839656  33.1617472  80.3023166 103.5039153  39.0206000
  79.5645923 102.9916539  39.3516243  80.5549939 103.0639534  38.2089277
  80.4034793  96.2815405  39.6147769  80.7093670  95.4212768  39.3273684
  81.1287398  96.8733025  39.4146763  66.6959149 106.6846091  38.0029367
  66.4983549 106.0915452  37.2780434  66.1405813 106.3798301  38.7205306
  74.6755873 106.5769198  40.1223960  74.7304483 105.6243034  40.0466437
  73.8647075 106.7328637  40.6065259  75.8247067 110.5049321  31.3602244
  75.3866497 109.7885180  30.9007881  76.5657507 110.7325436  30.7987335
  72.6148233 105.1946257  37.8814339  71.8016098 105.4940428  38.2879531
  73.1107227 104.8001946  38.5988821  74.7656811 115.1904014  39.8148604
  74.7232989 115.4164861  38.8857136  75.6819510 114.9567389  39.9634405
  78.2122444 105.6588082  46.7129233  78.5671832 105.8859555  47.5723699
  78.8594576 105.9906459  46.0906488  83.9420181 108.7806518  37.4178562
  83.8038080 108.9708114  36.4899751  83.5856400 109.5425901  37.8746613
  72.1062308 102.7664613  43.4975574  72.7461687 102.6253372  42.7998537
  71.2739838 102.4799126  43.1214176  72.8822611 112.0667043  39.6110567
  73.6763210 111.5717364  39.4093142  72.1714304 111.5384907  39.2478272
  69.1905375 106.2110125  35.6870319  68.2602963 106.1494581  35.9040281
  69.2862847 105.6886078  34.8906961  69.1090924 102.7364938  38.2748561
  69.3697741 103.6510271  38.1657721  69.9308096 102.2689381  38.4245174
  70.5815849 104.1502695  45.4447385  71.2538903 103.9420057  44.7960034
  69.7545636 103.9524781  45.0052618  76.4841421 100.7764636  47.4613046
  75.8369336 101.4754586  47.3677523  77.2542437 101.2100780  47.8289295
  79.8920219 111.0413488  50.5363600  79.7405726 110.8124040  49.6193683
  79.8824899 111.9984090  50.5494945  76.6605556 108.6145401  45.5209866
  77.5897616 108.7656561  45.3478833  76.2396586 108.7029422  44.6658513
  75.4593887 112.6396065  43.2908404  75.3204973 112.2714850  44.1634342
  74.6708484 113.1543705  43.1192361  77.0099103 112.0177668  40.6797241
  76.6748935 111.9778438  41.5754891  76.5103048 111.3522384  40.2067652
  70.9843347 107.4245298  46.2049823  70.8463144 106.6925537  46.8061362
  71.8948270 107.3354198  45.9234010  73.6125647 107.1365257  45.6933502
  74.3225266 106.4958450  45.6520121  73.5694955 107.3878152  46.6159683
  72.3254581 104.1230475  47.5129142  71.7891938 103.6721214  48.1650738
  71.7371290 104.2576384  46.7699606  71.7356840 103.5819127  30.0755605
  70.8586306 103.4607928  29.7117852  72.2114593 102.7905205  29.8234494
  63.2558980 108.3696286  40.1697113  63.9430020 108.0558017  39.5818128
  63.1007109 109.2737651  39.8964364  68.0593702 103.2586483  44.5982136
  67.9751891 102.6512153  43.8632546  67.2376409 103.7495501  44.5991633
  78.2317416 101.7440047  39.9652331  78.7286116 100.9910009  39.6453402
  77.4604398 101.7804363  39.3995541  79.3147197 110.5011734  37.5390755
  78.3803476 110.6213196  37.3695459  79.4923865 109.5984201  37.2750765
  74.8152385 103.8857430  39.6924016  74.4450173 103.3328470  40.3804921
  75.3111478 103.2815563  39.1399016  82.7019748 106.3429053  38.0740789
  83.1680201 107.1757045  38.0001091  83.1527249 105.8774035  38.7786047
  72.6441584 114.3454925  46.7879034  73.3451043 114.9791408  46.9408428
  72.1736699 114.6869656  46.0274673  80.6736411  98.7109640  42.1131690
  79.7599491  98.9413867  42.2813897  81.1029513  98.7948084  42.9645723
  80.4442870 106.8999532  44.6131584  79.7914320 107.1475439  43.9584037
  80.8223249 106.0863670  44.2794061  76.4930443 107.6419343  51.0997621
  75.8171080 107.5413472  51.7699996  77.3158076 107.4858557  51.5633618
  68.2409302 113.8791280  43.7210137  68.8262739 113.1334968  43.8538041
  68.0434140 114.1895236  44.6046800  62.8326956 106.4496880  42.4414580
  62.8711056 105.9160471  43.2351698  62.3267249 105.9232085  41.8225557
  70.2117719 101.2961420  45.9377122  70.2759045 102.1576251  45.5254520
  70.1484839 100.6835422  45.2049480  69.6869991 103.3684553  49.5850156
  70.3142030 102.9861630  50.1987681  68.8297910 103.1498755  49.9505849
  66.4635534 105.1760982  35.5168511  66.7588975 104.2671660  35.4635565
  65.5623570 105.1548721  35.1949513  69.9929781 103.2516979  41.4996060
  69.2716367 103.8652946  41.3603533  70.7823037 103.7874743  41.4212706
  72.7956095 100.5871405  47.7736711  73.3190496 100.8333702  48.5363021
  72.5768428 101.4191440  47.3539849  68.1923376 102.8575080  35.6407836
  67.8636082 101.9772459  35.4582942  68.5462746 102.8022748  36.5284225
  71.3065199 103.1448049  36.0083314  71.6461271 103.6733971  35.2861922
  71.7537319 103.4828456  36.7841880  74.0008640 101.5285100  45.4586382
  73.6605460 100.7292913  45.8607062  73.2947646 101.8286811  44.8863215
  74.6525111  98.6134413  43.9113705  75.4751181  98.1394891  43.7892595
  74.8963175  99.3924896  44.4112391  73.2933346 101.6422671  34.2076607
  74.0141708 102.0203924  33.7040323  72.6698650 102.3611548  34.3111585
  77.4364469 102.3467820  35.1434939  77.6528083 103.2292458  34.8423767
  76.9558536 101.9554033  34.4140581  72.1763690 105.3053533  41.7205684
  72.0308271 105.6193836  42.6129965  71.6988894 105.9238434  41.1676582
  74.0360073 102.2956081  41.7686573  74.0221642 101.3997175  41.4318871
  74.7532501 102.3026745  42.4024859  75.8886204 102.7293421  43.8139701
  75.6303982 103.6510492  43.8124031  75.3571244 102.3323856  44.5040165
  66.6509352 107.8458878  44.6593345  66.1062820 108.6218686  44.7913619
  67.5288702 108.1929682  44.5012466  73.4396969 101.1770462  37.0374143
  73.5612880 100.2487108  37.2365031  73.1499011 101.1909147  36.1252459
  76.3088159  98.8625372  40.1740863  76.3309856  98.9264705  39.2192843
  76.7256218  98.0229881  40.3681369  67.4375374 106.9728774  47.5523502
  66.6957110 107.1211409  48.1388132  67.1168118 107.2337040  46.6890251
  67.8831988 114.8594203  39.5833896  68.7090008 114.5597974  39.2032540
  67.5326040 114.0901825  40.0323685  72.8513521 114.2120671  41.6531570
  72.2293530 113.5491376  41.3533798  73.5218388 114.2381803  40.9705218
  66.0840593 112.7780529  40.5422830  65.2472501 112.3502703  40.3606831
  66.0564238 112.9712972  41.4793621  72.9238049 102.6902459  51.2464076
  72.9726204 103.5664582  50.8641845  73.4660563 102.1479852  50.6735719
  72.4127028 112.7624594  35.1290030  72.5615148 113.4460059  34.4756703
  73.2193471 112.7429684  35.6439486  80.8194532 106.0666977  49.1557248
  81.7204394 105.9273441  48.8641246  80.8942506 106.2321431  50.0955426
  75.1537337 103.4433831  48.0010435  74.2840646 103.7367397  47.7293023
  75.3896817 104.0274276  48.7217698  83.2796154 107.6265605  46.5520021
  83.7550276 107.8193251  45.7438872  82.3561720 107.6824790  46.3063405
  70.1679661 108.7889772  36.1351099  69.9225703 107.8852102  36.3331309
  70.3375575 108.7906922  35.1930577  77.8576371  99.6613448  45.5175855
  78.3758315 100.3974475  45.1922343  77.5031504  99.9677442  46.3522614
  69.4375308 104.5218129  33.6337261  68.7444553 104.5962484  32.9777297
  69.1927060 103.7578473  34.1558778  78.1088965  96.0813731  41.0376752
  78.3890719  95.4136920  41.6637178  78.8939572  96.2742826  40.5251415
  81.9797823 104.5031365  44.7848327  82.9315246 104.6029462  44.8060551
  81.8101274 103.7109633  45.2946411  80.0012203 101.5886948  44.9707728
  79.4062135 101.8691961  44.2754216  79.7161899 102.0780849  45.7424469
  84.4585901 107.7237484  43.8990626  84.4262221 106.7853485  44.0850310
  85.0686525 107.8021521  43.1656451  76.2969232 106.5933537  29.9417830
  77.2428337 106.4639746  30.0106248  75.9183477 105.8548199  30.4187258
  84.6080390 104.5148528  43.9448909  84.0919438 103.7306984  43.7578838
  85.4920338 104.1867244  44.1095429  82.2691116  98.2589543  39.9044722
  82.0715938  97.9504632  40.7888054  82.8790822  98.9851182  40.0342652
  76.1807924 110.6451284  51.4018487  77.1010934 110.8229883  51.5958534
  76.1457508 109.7007329  51.2498187  74.4812149 104.5183514  29.8772716
  73.5743604 104.2216626  29.9535429  74.7588130 104.2213332  29.0107002
  65.3990089 105.8389877  40.3271762  65.0792874 104.9855185  40.0346136
  64.8523518 106.0538455  41.0829729  69.1769997 108.5552318  44.0441268
  69.3956007 109.4869426  44.0629302  69.5895771 108.1960293  44.8296072
  76.0974215  99.0620403  36.0316957  75.2874943  98.7167488  36.4072203
  76.7858632  98.7527947  36.6204568  78.0264763  98.1398450  37.6541253
  78.5795802  98.5593904  38.3131277  78.2634849  97.2134198  37.6964209
  74.0497862 104.1285524  53.4344017  73.9494589 105.0779881  53.3656108
  73.8319404 103.8003763  52.5620087  73.2510934 101.3770449  30.0184695
  74.1130098 101.7025347  30.2780512  73.4361278 100.5901945  29.5057761
  65.2678349 109.4592789  42.2964884  64.5741821 109.0446741  41.7834838
  66.0151340 109.5013325  41.6998302  81.4043570 100.2498975  37.1619918
  80.8242239 100.9083779  36.7797970  81.1379503  99.4276320  36.7507335
  79.8547137  99.6504033  39.3641238  80.3546915  99.7620568  38.5555557
  80.4982744  99.3465086  40.0042046  73.9129132 107.5582663  52.2509079
  73.4296214 108.3583023  52.4572968  73.9990071 107.5690608  51.2976523
  67.1815092 109.3911042  40.1730898  67.1585780 109.4898730  39.2212781
  67.4915729 110.2376193  40.4948065  69.8402470 111.4487197  44.2877513
  70.7945723 111.4171140  44.2207444  69.6414993 110.9877821  45.1027739
  70.4301852 110.0188314  46.8548310  71.2494741 110.5132392  46.8783148
  70.7038660 109.1020282  46.8265878  80.1868448 102.4099066  36.2176266
  79.2994303 102.6948716  35.9996461  80.6022437 102.2492829  35.3703543
  83.5382984 102.4345587  39.9330605  84.3143374 102.9242039  40.2055222
  82.8131119 102.8603641  40.3902475  85.9755543 103.1473206  40.9904546
  86.5700034 102.9068942  40.2797854  86.0482127 102.4280337  41.6178082
  80.1609472 107.9253602  36.4326556  80.1044673 108.3822153  35.5934189
  80.7137814 107.1644286  36.2549399  83.9714278 103.7143334  37.2576676
  83.7151212 103.3139969  38.0884883  83.3467146 104.4287128  37.1326815
  88.2826616 106.4539407  39.7647967  87.7226174 106.5232596  40.5379529
  87.6770119 106.2780392  39.0447463  80.8944251 109.1158383  33.7279085
  80.8393055 108.9502654  32.7867529  80.2690307 109.8234416  33.8841275
  65.6836766 104.3526447  47.5540508  66.3295630 103.8425401  48.0427733
  65.4753917 105.0895129  48.1283933  78.2090158 111.4207295  53.0532648
  79.0781318 111.5947947  52.6919283  77.7296910 112.2401712  52.9308377
  74.2040377  98.6166492  33.3064404  74.1919047  99.5608332  33.4632675
  75.0963799  98.4336637  33.0123865  78.0192496  95.2109269  37.5610341
  77.2524892  94.6567755  37.7067023  78.4303201  95.2831137  38.4224492
  70.0234257 101.4994064  51.6515522  70.8865719 101.1430869  51.8618846
  69.4499668 101.1607959  52.3390926  24.8320108   8.1606537  29.1823229
  25.4698518   8.0413285  28.4786569  24.7140951   9.1087381  29.2411182
  22.1229598   9.2668817  35.0770960  22.1118239   8.8721615  34.2051463
  22.2850237   8.5334890  35.6704731  18.8436859  12.0505929  34.0250144
  18.5526725  12.9551560  33.9096810  19.4793843  12.0922457  34.7394213
  19.7693066   9.4282778  30.6151503  20.3656638   9.2038800  29.9008466
  19.8268037   8.6867523  31.2176951  29.7869804   5.8233224  27.1609416
  30.5194976   5.2532441  27.3947245  29.0309160   5.4354825  27.6015922
  27.3095224  -0.4645201  31.6204025  26.9778549   0.4050209  31.3965240
  26.7140838  -0.7808917  32.2998055  23.8026744  11.7367345  31.0199937
  23.5027467  12.6392383  30.9115745  23.4577804  11.4699528  31.8721090
  18.7847524  18.5011665  23.9870905  18.7071553  19.4519490  24.0659386
  18.1809167  18.1557537  24.6445831  21.2764754   5.6739530  36.6432272
  20.4998088   6.2333450  36.6335137  21.9155317   6.1596313  37.1647142
  29.0685534   2.4566323  30.4775249  28.4259914   2.7498856  29.8315043
  28.5640463   2.3419243  31.2828445  19.5311126   8.4824984  36.2050239
  20.2725810   9.0210028  35.9285063  18.8248111   9.1091272  36.3621791
  25.0066466  10.6254124  34.8022400  25.4149822  10.1836535  34.0577033
  24.2843727  10.0506752  35.0556593  21.3597536   5.5626731  32.1755957
  22.2058731   5.9866144  32.3190606  21.2996173   4.9060355  32.8694520
  25.3295280  11.1855315  28.5574689  24.7004143  11.3501029  27.8550757
  24.9420942  11.5996924  29.3285653  29.2084512  12.1209753  25.9119053
  28.5235550  12.5008654  25.3616086  29.2928361  12.7305079  26.6451001
  24.5096981   3.2231099  33.8337131  24.2657913   3.9773160  33.2971407
  24.7856911   3.6016447  34.6684378  26.4635444   9.7669712  32.5114397
  26.6752339  10.4101472  31.8348778  26.4165192   8.9332028  32.0436327
  17.7747323  10.4701204  28.7604538  18.3448680  10.8988473  28.1222022
  18.3655435  10.1883789  29.4588723  18.2672490   5.6364632  37.0065549
  17.6371150   6.3180913  37.2400946  18.1608577   5.5247713  36.0618687
  27.5781272  12.6441667  30.6836754  28.3998715  12.2421854  30.4019436
  27.5743674  12.5409901  31.6352870  21.3437875  12.1925710  32.8397464
  21.4082308  12.6546118  33.6755636  20.6348799  11.5623075  32.9679774
  35.6687265   8.9880416  27.0321725  34.9150973   8.4187814  26.8765730
  35.8034806   8.9543080  27.9792360  15.6062531   6.5399644  35.2389286
  15.4916046   5.6384901  35.5396385  14.7507049   6.7863341  34.8874103
  22.6854369  14.4817384  36.8376787  22.2418223  13.6953763  36.5197691
  23.3471583  14.6696535  36.1720678  17.4441490  16.0113186  31.3637465
  17.9948915  15.8830249  30.5914459  16.6052966  16.3108075  31.0132358
  24.7835607  14.7620184  34.8658188  24.7654083  15.5829065  34.3738457
  25.7055527  14.6374259  35.0908329  21.2408661  12.2764314  35.7081696
  21.7736998  11.5152602  35.4781004  20.7122742  11.9837966  36.4505851
  27.5854220   9.5999327  28.3367555  26.9277894  10.2898588  28.4247683
  28.3894619   9.9895759  28.6801541  27.1621475  12.9349701  24.5150639
  26.7083802  12.0940611  24.5715830  26.5315442  13.5711099  24.8525419
  25.6054414  14.7726198  25.4500457  25.8977389  15.3331255  24.7312823
  26.1153035  15.0654759  26.2053616  20.5688039  15.5506549  26.5393910
  20.5264218  15.7767395  25.6102443  21.4850738  15.3169923  26.6879712
  24.0153673   6.0190616  33.4374540  24.3703061   6.2462089  34.2969005
  24.6625805   6.3508993  32.8151795  29.7720790  11.2085579  29.1535140
  30.2057296  11.1160868  30.0018194  30.4852371  11.1843080  28.5155156
  23.5048685  14.8087673  30.6868241  23.5585707  15.3778609  31.4545957
  22.6363466  14.9789558  30.3222278  30.6336339  11.2509280  31.6868026
  30.8272229  12.1555090  31.9327301  30.5336958  10.7916699  32.5206611
  22.2872650   1.1367170  34.1858353  21.6400565   1.8357120  34.0922829
  23.0573666   1.5703314  34.5534601  25.6951448  11.4016022  37.2608906
  25.5436954  11.1726574  36.3438990  25.6856128  12.3586624  37.2740251
  22.4636784   8.9747935  32.2455173  23.3928844   9.1259095  32.0724140
  22.0427814   9.0631956  31.3903819  21.2625116  12.9998600  30.0153710
  21.1236202  12.6317384  30.8879648  20.4739712  13.5146239  29.8437668
  22.8130331  12.3780202  27.4042548  22.4780164  12.3380972  28.3000198
  22.3134277  11.7124918  26.9312958  16.7874575   7.7847832  32.9295129
  16.6494373   7.0528071  33.5306668  17.6979499   7.6956732  32.6479317
  19.4156876   7.4967792  32.4178809  20.1256495   6.8560984  32.3765427
  19.3726184   7.7480687  33.3404990  27.4043655  14.4335145  35.3385388
  27.3456201  13.7494365  34.6715971  27.8063173  15.1754135  34.8866014
  18.1285810   4.4833010  34.2374448  17.5923167   4.0323748  34.8896045
  17.5402518   4.6178918  33.4944913  16.4234354  21.2497059  28.1319107
  16.6630952  21.8815583  28.8098126  15.5803550  20.8985099  28.4184466
  27.4061062  12.3974729  33.5699368  26.5187841  12.0600651  33.6925767
  27.9759613  11.6657760  33.8068133  20.9362215  17.0576181  30.5360611
  20.8632387  17.8631153  31.0479916  20.4939608  17.2568147  29.7108632
  20.7251995  16.2947951  24.0463433  19.9419517  16.8369632  24.1401657
  21.4244740  16.8121931  24.4457674  31.8878403   7.8082946  28.3315929
  31.8768279   8.6907662  27.9609863  31.0195782   7.4554497  28.1370466
  23.3960899  16.9563015  32.6918770  24.1088871  17.5910480  32.6194671
  22.9050928  17.0526881  31.8758771  18.4472812  14.7057459  33.5124340
  19.1482272  15.3393942  33.6653735  17.9767927  15.0472190  32.7519980
  26.2474098   7.2602066  31.3376891  25.5945549   7.5077974  30.6829344
  26.6254478   6.4466204  31.0039368  23.2081272  17.2961759  25.4405061
  23.3903667  16.4783415  25.9032813  24.0314258  17.5129452  25.0029951
  22.2961671   8.0021877  37.8242928  21.6202308   7.9016007  38.4945303
  23.1189305   7.8461091  38.2878925  14.0440530  14.2393814  30.4455443
  14.6293967  13.4937502  30.5783347  13.8465369  14.5497771  31.3292107
  16.8979186  17.2745061  25.4617886  16.2289561  17.7591189  24.9781926
  16.7592055  17.5214282  26.3761264  21.0384454  19.3088805  32.0600544
  21.5902762  19.4720426  32.8249629  21.3790648  19.8993243  31.3880569
  25.8895329  14.1350062  37.9149198  26.4335233  14.7480021  37.4204153
  25.3082173  14.6929641  38.4316211  24.1752842  17.2570780  29.0464226
  24.0503981  16.4560520  28.5375172  24.8331933  17.7516974  28.5578196
  26.2387750  15.0579800  30.6743776  25.2918085  14.9385152  30.6022103
  26.5870523  14.1702298  30.7570038  23.2434183  14.8532517  26.8748128
  23.0959146  13.9249224  27.0555698  24.0687677  14.8752607  26.3905204
  26.8468305  15.6761075  27.9613001  27.7714853  15.4703937  27.8237452
  26.6783608  15.4277476  28.8702343  26.6363621  16.1946743  23.3175093
  26.8100499  15.6293165  22.5648945  27.1292513  16.9947638  23.1354583
  32.4903012   8.9583166  24.9365392  32.9334159   8.2090491  24.5384516
  31.6129523   8.9493302  24.5539124  21.1850266  16.8747286  34.0749198
  21.4937392  16.6296433  34.9471898  21.9825748  17.0793925  33.5868068
  21.2070878  19.0285196  26.3054575  20.7675868  18.5361575  26.9987432
  21.9578995  18.4858164  26.0646650  18.6544750  14.5723205  28.3776876
  18.0324759  13.9093910  28.0779104  19.3249617  14.5984337  27.6950524
  29.2124123  13.5946116  37.2510520  28.4219667  13.5770255  36.7115019
  28.9757478  14.1334410  38.0059556  29.3321998  10.4438583  34.5643248
  29.3820003  10.2788590  35.5058771  29.2235921   9.5765842  34.1741129
  26.6225760   6.4269511  35.8802555  27.5235623   6.2875976  35.5886553
  26.6973735   6.5923966  36.8200732  20.9568566   3.8036365  34.7255741
  20.0871875   4.0969932  34.4538330  21.1928046   4.3876810  35.4463005
  30.8340195  12.8635524  34.8085270  30.5425003  13.2265505  35.6448731
  30.2212326  12.1502533  34.6298602  32.0335877  10.4288404  27.3287840
  32.8682769  10.8678208  27.4925400  32.1695006   9.9527057  26.5096086
  29.0827383   7.9868139  33.2765328  29.5581505   8.1795785  32.4684179
  28.1592948   8.0427325  33.0308711  23.6607600   0.0215982  32.2421162
  24.1789543   0.7577009  31.9167650  23.3062732   0.3279976  33.0767921
  27.7829052   4.8633899  31.5093633  28.7346475   4.9631997  31.5305857
  27.6132503   4.0712167  32.0191718  25.8043432   1.9489482  31.6953034
  25.2093364   2.2294495  30.9999523  25.5193128   2.4383383  32.4669775
  30.2617130   8.0840019  30.6235933  30.2293450   7.1456019  30.8095617
  30.8717754   8.1624055  29.8901758  30.4111618   4.8751062  30.6694216
  29.8950667   4.0909519  30.4824145  31.2951567   4.5469779  30.8340736
  36.0793680   9.1456025  29.7641970  36.8097068   8.8841314  30.3249673
  35.4700625   8.4084747  29.8044038  34.1608977   7.2863888  30.3616421
  33.4342140   7.1519853  29.7532912  33.7456264   7.5940717  31.1673139
  21.9839153  11.0053818  38.1263794  22.9042163  11.1832417  38.3203840
  21.9488736  10.0609863  37.9743493  14.9801226   8.9154852  30.7686575
  15.1987236   9.8471960  30.7874609  15.3927000   8.5562827  31.5541379
  19.8529091   4.4888058  40.1589324  19.7525818   5.4382415  40.0901415
  19.6350633   4.1606297  39.2865394  19.7160361   7.9185197  38.9754386
  19.2327443   8.7185557  39.1818275  19.8021300   7.9293142  38.0221830
  15.6433699  11.8089732  31.0122819  16.5976952  11.7773674  30.9452751
  15.4446222  11.3480355  31.8273045  16.2333081  10.3790848  33.5793617
  17.0525970  10.8734926  33.6028454  16.5069889   9.4622816  33.5511185
  31.7786772   3.5075740  27.7149853  32.3731263   3.2671476  27.0043161
  31.8513355   2.7882871  28.3423389  13.9983927  17.3509351  28.0293017
  13.8638395  16.5909752  27.4631015  13.5815990  18.0750251  27.5621806
  34.0857845   6.8141941  26.4893274  33.5257403   6.8835130  27.2624836
  33.4801348   6.6382926  25.7692770  17.1553053  18.2478668  28.2411460
  17.0385438  19.1924101  28.1390150  16.3345500  17.9452230  28.6297259
  24.0121387  11.7809829  39.7777955  24.8812547  11.9550481  39.4164590
  23.5328139  12.6004246  39.6553684  18.1807567  18.9006930  31.4567388
  19.0834814  18.9330540  31.7733883  17.9544938  17.9707381  31.4713724
  19.9361169  17.6537917  28.1177467  18.9856801  17.6539778  28.0041839
  20.2393656  16.9070651  27.6013502  35.6713863  23.4898455  29.1823229
  36.3092273  23.3705202  28.4786569  35.5534706  24.4379299  29.2411182
  32.4803569  23.4425883  29.1184754  32.1422081  23.3266948  28.2305289
  33.3493337  23.0417048  29.0985760  28.3390385  25.2961360  25.1081645
  27.7755250  25.2051297  24.3397933  28.2242780  24.4761264  25.5884138
  32.9623352  24.5960735  35.0770960  32.9511993  24.2013533  34.2051463
  33.1243992  23.8626807  35.6704731  25.8854817  26.7912551  27.9465866
  26.6776109  26.4503376  27.5312165  26.1251467  26.9007526  28.8668019
  33.9189944  28.9632327  20.4196110  33.2677923  29.5486408  20.0330124
  34.7134306  29.4938522  20.4791147  27.8445571  26.0521464  20.8183244
  28.6176447  25.5050451  20.6796120  28.1970970  26.9165714  21.0297706
  29.6830613  27.3797847  34.0250144  29.3920479  28.2843478  33.9096810
  30.3187598  27.4214374  34.7394213  30.6086820  24.7574695  30.6151503
  31.2050392  24.5330718  29.9008466  30.6661792  24.0159441  31.2176951
  30.1811849  22.2114131  18.4501694  30.4337369  21.6895652  17.6885157
  29.2436408  22.0480276  18.5528378  35.2255131  21.2149909  26.2576437
  36.0118221  20.7969332  25.9066854  35.4893836  22.1196001  26.4258086
  35.3965209  26.6522759  20.9565094  34.7611042  26.7257386  21.6685999
  35.0662615  27.2416358  20.2784174  40.6263559  21.1525142  27.1609416
  41.3588731  20.5824359  27.3947245  39.8702914  20.7646743  27.6015922
  29.9008137  24.1142236  20.6526069  29.7844395  23.4387140  21.3207153
  30.0110397  23.6274610  19.8358222  32.2439678  23.5752384  24.3572758
  31.8797886  23.0483005  25.0685680  33.1006794  23.1850853  24.1839244
  38.1488979  14.8646716  31.6204025  37.8172304  15.7342127  31.3965240
  37.5534592  14.5483000  32.2998055  31.8845165  18.6042283  19.3534107
  32.0519568  19.4722520  19.7204578  31.6942334  18.7669565  18.4295396
  34.6420498  27.0659262  31.0199937  34.3421222  27.9684301  30.9115745
  34.2971558  26.7991445  31.8721090  28.0932980  23.5173059  27.0536642
  27.1683476  23.3849273  27.2614333  28.3417393  24.2967278  27.5506584
  38.0417642  19.5841802  28.6997375  37.1334520  19.5157211  28.4056136
  37.9905238  20.0613747  29.5279200  31.8634386  21.0599941  20.3380774
  31.7434011  21.5056992  21.1766254  31.1686975  21.4085258  19.7794312
  25.4541791  23.1606333  27.8880431  25.5834172  23.4140812  28.8019843
  24.7739242  23.7534041  27.5685086  29.6241278  33.8303583  23.9870905
  29.5465308  34.7811408  24.0659386  29.0202922  33.4849455  24.6445831
  32.1158508  21.0031448  36.6432272  31.3391842  21.5625368  36.6335137
  32.7549071  21.4888231  37.1647142  39.9079289  17.7858241  30.4775249
  39.2653669  18.0790774  29.8315043  39.4034217  17.6711161  31.2828445
  37.5619452  21.5321414  21.1661108  38.4737308  21.7648801  20.9908805
  37.0529099  22.1158458  20.6036186  30.3704880  23.8116901  36.2050239
  31.1119565  24.3501945  35.9285063  29.6641866  24.4383190  36.3621791
  35.8460220  25.9546042  34.8022400  36.2543576  25.5128452  34.0577033
  35.1237482  25.3798669  35.0556593  32.1991290  20.8918649  32.1755957
  33.0452485  21.3158062  32.3190606  32.1389928  20.2352273  32.8694520
  36.1689035  26.5147232  28.5574689  35.5397897  26.6792947  27.8550757
  35.7814697  26.9288842  29.3285653  40.0478267  27.4501670  25.9119053
  39.3629305  27.8300572  25.3616086  40.1322116  28.0596997  26.6451001
  35.3490735  18.5523017  33.8337131  35.1051667  19.3065077  33.2971407
  35.6250666  18.9308365  34.6684378  37.3029198  25.0961629  32.5114397
  37.5146093  25.7393389  31.8348778  37.2558946  24.2623946  32.0436327
  34.9055427  17.7079450  29.4150969  34.0439906  18.0060704  29.7067706
  34.9317862  17.9249849  28.4832001  31.7216997  26.2521641  25.8224774
  32.1855342  26.5309343  25.0329397  31.4573795  25.3505085  25.6397865
  28.6141078  25.7993122  28.7604538  29.1842435  26.2280390  28.1222022
  29.2049189  25.5175707  29.4588723  30.6585883  22.3744793  22.6314340
  31.3609926  22.8265837  23.0988266  30.3266511  21.7328612  23.2594233
  29.1066244  20.9656550  37.0065549  28.4764905  21.6472830  37.2400946
  29.0002332  20.8539631  36.0618687  24.4011217  20.6328346  27.9331473
  23.6110271  20.8885874  27.4571584  24.8922464  21.4476683  28.0383514
  38.4175026  27.9733585  30.6836754  39.2392470  27.5713772  30.4019436
  38.4137429  27.8701819  31.6352870  26.3525962  20.9972925  24.8914950
  25.5557125  21.1091619  25.4098445  26.1251554  21.3359577  24.0255840
  32.1831630  27.5217628  32.8397464  32.2476062  27.9838035  33.6755636
  31.4742553  26.8914993  32.9679774  22.6848920  20.8858836  30.3646464
  22.9356958  21.7705846  30.6304040  23.2208468  20.7063438  29.5921556
  46.5081019  24.3172333  27.0321725  45.7544728  23.7479731  26.8765730
  46.6428560  24.2834998  27.9792360  31.8979647  29.1885735  22.7076445
  31.7625322  30.0337271  23.1361293  32.4389460  29.3905013  21.9442379
  28.3846987  15.2677315  39.3690800  27.9913932  14.7143514  40.0438444
  29.2013127  15.5787894  39.7597317  25.3509045  26.7061174  23.2804370
  25.8633565  27.5004424  23.4309934  26.0031757  26.0087464  23.2137971
  27.1603929  29.8226930  25.3627123  27.3370558  30.7444895  25.1748107
  27.9560763  29.5085349  25.7921503  31.3014948  16.6835194  36.9611057
  32.0424661  17.2842348  36.8815519  31.5332871  15.9412832  36.4029099
  26.4456286  21.8691562  35.2389286  26.3309801  20.9676819  35.5396385
  25.5900804  22.1155258  34.8874103  33.5248124  29.8109302  36.8376787
  33.0811978  29.0245681  36.5197691  34.1865337  29.9988453  36.1720678
  28.2835245  31.3405104  31.3637465  28.8342670  31.2122167  30.5914459
  27.4446721  31.6399993  31.0132358  35.6229362  30.0912102  34.8658188
  35.6047837  30.9120983  34.3738457  36.5449282  29.9666177  35.0908329
  32.0802416  27.6056231  35.7081696  32.6130753  26.8444520  35.4781004
  31.5516497  27.3129883  36.4505851  35.2472111  12.7116297  31.2375338
  34.9036380  13.6017939  31.1614449  35.6151073  12.5217955  30.3744923
  23.3157961  25.0349828  24.0563940  24.1533183  25.4446836  23.8397648
  23.4936229  24.0949270  24.0264134  35.2122393  22.7024908  19.7447773
  34.6969017  23.4729513  19.9836161  34.9399702  22.0290045  20.3680835
  32.7969505  17.5474609  24.8033012  31.9411101  17.1581460  24.6238650
  33.2096456  17.6266570  23.9432797  34.3268651  15.0820953  29.2024571
  33.8233447  15.0451088  28.3892377  34.6199258  15.9913695  29.2621228
  30.5711537  15.1659682  28.2090753  31.4364534  14.9702491  27.8496643
  30.6389046  14.9370034  29.1360110  40.1856668  25.4557263  21.6800947
  39.4086110  25.1168423  21.2356109  40.8648149  25.4609886  21.0055912
  35.0008697  20.5752001  21.5707554  34.6958832  20.8898150  22.4217698
  35.9539139  20.6533420  21.6134887  33.4455129  26.7342224  23.2200508
  32.9176490  25.9994983  22.9073746  32.9442631  27.5116900  22.9740477
  38.4247975  24.9291244  28.3367555  37.7671649  25.6190506  28.4247683
  39.2288374  25.3187676  28.6801541  28.1773856  17.3961890  25.5807120
  28.7517608  17.1737072  24.8480313  28.7644839  17.4650585  26.3335721
  37.2353433  23.2835617  26.3871497  37.7485315  23.9165609  26.8893206
  37.8854657  22.6836813  26.0214857  30.4796524  14.2703139  24.3082189
  29.8260936  13.9552156  23.6838804  30.4376998  13.6478880  25.0342012
  31.5907729  24.5522434  16.2235481  30.6834790  24.3211688  16.4226630
  32.0878761  23.7560053  16.4109463  34.4975808  33.2619941  19.1432168
  33.8237506  33.5651638  19.7517125  34.8841630  34.0649022  18.7937625
  33.7134264  20.7585073  28.6329837  32.7956826  20.9800020  28.4751525
  34.1294408  20.8331383  27.7741544  34.4969312  22.1576488  23.7632517
  35.2441131  22.6697886  23.4539639  34.7660901  21.8360541  24.6236911
  32.7695962  24.6535029  20.7459472  31.8607181  24.3694062  20.8431941
  32.7991046  25.0734108  19.8862778  38.0015230  28.2641619  24.5150639
  37.5477557  27.4232528  24.5715830  37.3709196  28.9003017  24.8525419
  36.9448149  19.1933605  25.7451307  36.2070906  18.6810991  26.0761549
  37.1974923  18.7533986  24.9334583  36.4448169  30.1018115  25.4500457
  36.7371143  30.6623172  24.7312823  36.9546789  30.3946676  26.2053616
  37.0459776  11.9709857  26.3393076  37.3518653  11.1107220  26.0518991
  37.7712381  12.5627477  26.1392070  23.3384133  22.3740543  24.7274674
  23.1408532  21.7809904  24.0025740  22.7830796  22.0692753  25.4450613
  31.3180856  22.2663650  26.8469267  31.3729466  21.3137486  26.7711744
  30.5072058  22.4223089  27.3310565  32.4672050  26.1943773  18.0847550
  32.0291480  25.4779632  17.6253188  33.2082491  26.4219888  17.5232642
  29.2573216  20.8840709  24.6059646  28.4441082  21.1834880  25.0124838
  29.7532210  20.4896398  25.3234128  31.4081794  30.8798466  26.5393910
  31.3657973  31.1059313  25.6102443  32.3244493  30.6461841  26.6879712
  34.8547428  21.3482534  33.4374540  35.2096815  21.5754007  34.2969005
  35.5019559  21.6800911  32.8151795  40.5845165  24.4700970  24.1423869
  40.4463063  24.6602566  23.2145058  40.2281384  25.2320353  24.5991920
  28.7487291  18.4559065  30.2220881  29.3886670  18.3147824  29.5243844
  27.9164821  18.1693578  29.8459483  40.6114544  26.5377497  29.1535140
  41.0451051  26.4452786  30.0018194  41.3246125  26.5134997  28.5155156
  29.5247595  27.7561495  26.3355873  30.3188193  27.2611815  26.1338448
  28.8139287  27.2279358  25.9723579  34.3442439  30.1379591  30.6868241
  34.3979461  30.7070527  31.4545957  33.4757221  30.3081476  30.3222278
  25.8330358  21.9004577  22.4115626  24.9027946  21.8389033  22.6285588
  25.9287830  21.3780530  21.6152267  25.7515907  18.4259390  24.9993868
  26.0122725  19.3404723  24.8903028  26.5733080  17.9583832  25.1490480
  27.2240833  19.8397147  32.1692692  27.8963886  19.6314509  31.5205341
  26.3970619  19.6419233  31.7297924  41.4730094  26.5801197  31.6868026
  41.6665984  27.4847008  31.9327301  41.3730712  26.1208616  32.5206611
  33.1266405  16.4659088  34.1858353  32.4794320  17.1649038  34.0922829
  33.8967420  16.8995232  34.5534601  36.5345203  26.7307940  37.2608906
  36.3830709  26.5018492  36.3438990  36.5249882  27.6878542  37.2740251
  33.3030539  24.3039853  32.2455173  34.2322599  24.4551012  32.0724140
  32.8821569  24.3923874  31.3903819  32.1018871  28.3290517  30.0153710
  31.9629956  27.9609302  30.8879648  31.3133467  28.8438157  29.8437668
  32.6967023  33.4299614  21.3579247  32.8718778  32.9587657  22.1724870
  32.0099811  34.0565380  21.5860508  33.6524086  27.7072120  27.4042548
  33.3173918  27.6672890  28.3000198  33.1528032  27.0416836  26.9312958
  27.6268330  23.1139750  32.9295129  27.4888128  22.3819989  33.5306668
  28.5373253  23.0248650  32.6479317  36.5883278  25.0528154  17.6779608
  35.9712448  24.3274983  17.5812660  36.1199766  25.8137515  17.3346682
  30.2550631  22.8259709  32.4178809  30.9650249  22.1852902  32.3765427
  30.2119939  23.0772604  33.3404990  38.2437409  29.7627063  35.3385388
  38.1849955  29.0786283  34.6715971  38.6456928  30.5046053  34.8866014
  28.9679564  19.8124927  34.2374448  28.4316922  19.3615666  34.8896045
  28.3796273  19.9470836  33.4944913  27.2628108  36.5788977  28.1319107
  27.5024706  37.2107501  28.8098126  26.4197304  36.2277017  28.4184466
  38.2454816  27.7266647  33.5699368  37.3581595  27.3892568  33.6925767
  38.8153368  26.9949678  33.8068133  19.8983964  24.0590738  26.8942419
  20.5855003  23.7452468  26.3063434  19.7432092  24.9632103  26.6209671
  24.7018686  18.9480935  31.3227443  24.6176874  18.3406604  30.5877853
  23.8801392  19.4389953  31.3236939  31.7755970  32.3868099  30.5360611
  31.7026141  33.1923070  31.0479916  31.3333363  32.5860065  29.7108632
  31.5645749  31.6239869  24.0463433  30.7813271  32.1661549  24.1401657
  32.2638495  32.1413849  24.4457674  34.8742400  17.4334498  26.6897638
  35.3711099  16.6804461  26.3698708  34.1029381  17.4698815  26.1240847
  42.7272157  23.1374864  28.3315929  42.7162033  24.0199579  27.9609863
  41.8589536  22.7846415  28.1370466  34.2354653  32.2854933  32.6918770
  34.9482626  32.9202398  32.6194671  33.7444682  32.3818799  31.8758771
  35.9572180  26.1906186  24.2636061  35.0228459  26.3107648  24.0940766
  36.1348849  25.2878652  23.9996071  31.4577368  19.5751881  26.4169323
  31.0875156  19.0222922  27.1050228  31.9536461  18.9710015  25.8644323
  39.3444732  22.0323505  24.7986095  39.8105184  22.8651497  24.7246398
  39.7952232  21.5668487  25.5031354  29.2866567  30.0349376  33.5124340
  29.9876026  30.6685859  33.6653735  28.8161682  30.3764108  32.7519980
  37.4120963  28.3767326  21.7972247  37.6880807  28.2623921  22.7066122
  36.5425461  27.9784811  21.7584421  37.3161394  14.4004092  28.8376997
  36.4024474  14.6308319  29.0059204  37.7454496  14.4842536  29.6891029
  37.0867853  22.5893984  31.3376891  36.4339303  22.8369891  30.6829344
  37.4648233  21.7758122  31.0039368  34.0475027  32.6253677  25.4405061
  34.2297421  31.8075333  25.9032813  34.8708013  32.8421369  25.0029951
  34.3817192  31.5521862  22.7020110  34.9104959  31.0414317  22.0890272
  34.6445412  31.2364392  23.5665643  33.1355426  23.3313795  37.8242928
  32.4596063  23.2307924  38.4945303  33.9583060  23.1753009  38.2878925
  24.8834285  29.5685732  30.4455443  25.4687722  28.8229419  30.5783347
  24.6859123  29.8789688  31.3292107  27.7372940  32.6036979  25.4617886
  27.0683315  33.0883107  24.9781926  27.5985810  32.8506199  26.3761264
  19.4751940  22.1391332  29.1659886  19.5136039  21.6054922  29.9597004
  18.9692233  21.6126537  28.5470863  31.8778209  34.6380722  32.0600544
  32.4296517  34.8012344  32.8249629  32.2184402  35.2285160  31.3880569
  26.8542702  16.9855872  32.6622429  26.9184028  17.8470703  32.2499826
  26.7909822  16.3729874  31.9294787  26.3294975  19.0579005  36.3095463
  26.9567013  18.6756082  36.9232987  25.4722893  18.8393207  36.6751155
  36.7289083  29.4641980  37.9149198  37.2728987  30.0771938  37.4204153
  36.1475928  30.0221558  38.4316211  23.1060517  20.8655434  22.2413818
  23.4013958  19.9566112  22.1880871  22.2048553  20.8443173  21.9194820
  35.0146596  32.5862698  29.0464226  34.8897736  31.7852438  28.5375172
  35.6725687  33.0808891  28.5578196  26.6354764  18.9411430  28.2241366
  25.9141350  19.5547398  28.0848840  27.4248020  19.4769195  28.1458012
  37.0781504  30.3871718  30.6743776  36.1311840  30.2677069  30.6022103
  37.4264278  29.4994216  30.7570038  29.4381078  16.2765857  34.4982018
  29.9615480  16.5228154  35.2608327  29.2193411  17.1085892  34.0785155
  24.8348359  18.5469532  22.3653143  24.5061065  17.6666910  22.1828249
  25.1887730  18.4917200  23.2529532  34.0827938  30.1824434  26.8748128
  33.9352900  29.2541142  27.0555698  34.9081431  30.2044525  26.3905204
  27.9490182  18.8342501  22.7328621  28.2886255  19.3628423  22.0107229
  28.3962303  19.1722907  23.5087187  37.6862060  31.0052993  27.9613001
  38.6108607  30.7995854  27.8237452  37.5177363  30.7569394  28.8702343
  30.6433623  17.2179552  32.1831689  30.3030443  16.4187365  32.5852368
  29.9372629  17.5181263  31.6108522  31.2950095  14.3028864  30.6359012
  32.1176164  13.8289343  30.5137902  31.5388158  15.0819348  31.1357698
  29.9358329  17.3317123  20.9321913  30.6566692  17.7098376  20.4285630
  29.3123633  18.0506000  21.0356891  34.0789452  18.0362272  21.8680246
  34.2953066  18.9186910  21.5669074  33.5983519  17.6448485  21.1385888
  28.8188673  20.9947985  28.4450990  28.6733254  21.3088288  29.3375272
  28.3413877  21.6132885  27.8921889  30.6785056  17.9850533  28.4931880
  30.6646625  17.0891626  28.1564178  31.3957484  17.9921197  29.1270166
  32.5311187  18.4187873  30.5385007  32.2728965  19.3404944  30.5369338
  31.9996227  18.0218308  31.2285471  37.4757376  31.5238660  23.3175093
  37.6494253  30.9585083  22.5648945  37.9686267  32.3239555  23.1354583
  23.2934336  23.5353330  31.3838651  22.7487804  24.3113137  31.5158926
  24.1713685  23.8824134  31.2257773  30.0821952  16.8664913  23.7619450
  30.2037863  15.9381560  23.9610337  29.7923995  16.8803599  22.8497765
  32.9513143  14.5519824  26.8986170  32.9734839  14.6159157  25.9438149
  33.3681202  13.7124332  27.0926676  43.3296767  24.2875083  24.9365392
  43.7727913  23.5382409  24.5384516  42.4523277  24.2785220  24.5539124
  38.4632548  30.8405425  20.4171991  39.1583453  31.4612118  20.6359306
  38.8055698  29.9900776  20.6924369  24.0800357  22.6623226  34.2768808
  23.3382093  22.8105861  34.8633439  23.7593102  22.9231491  33.4135558
  40.3623971  28.2905130  21.9459322  40.8875295  28.6292403  21.2208642
  40.2746324  27.3552146  21.7622456  32.0244020  32.2039204  34.0749198
  32.3331147  31.9588351  34.9471898  32.8219502  32.4085842  33.5868068
  32.0464632  34.3577114  26.3054575  31.6069622  33.8653492  26.9987432
  32.7972749  33.8150081  26.0646650  24.5256971  30.5488655  26.3079203
  25.3514991  30.2492426  25.9277846  24.1751023  29.7796277  26.7568992
  29.4938504  29.9015123  28.3776876  28.8718514  29.2385828  28.0779104
  30.1643371  29.9276255  27.6950524  22.7265576  28.4674981  27.2668136
  21.8897484  28.0397155  27.0852138  22.6989222  28.6607424  28.2038928
  29.5663032  18.3796911  37.9709383  29.6151187  19.2559034  37.5887152
  30.1085546  17.8374304  37.3981026  40.0517877  28.9238034  37.2510520
  39.2613421  28.9062173  36.7115019  39.8151232  29.4626328  38.0059556
  40.1715753  25.7730500  34.5643248  40.2213757  25.6080508  35.5058771
  40.0629676  24.9057759  34.1741129  29.0552011  28.4519046  21.8535337
  29.2040132  29.1354510  21.2002010  29.8618455  28.4324136  22.3684793
  37.4619515  21.7561428  35.8802555  38.3629378  21.6167893  35.5886553
  37.5367489  21.9215883  36.8200732  31.7962320  19.1328283  34.7255741
  30.9265630  19.4261849  34.4538330  32.0321801  19.7168728  35.4463005
  41.6733949  28.1927442  34.8085270  41.3818758  28.5557422  35.6448731
  41.0606081  27.4794450  34.6298602  42.8729632  25.7580322  27.3287840
  43.7076523  26.1970126  27.4925400  43.0088760  25.2818975  26.5096086
  39.9221138  23.3160057  33.2765328  40.3975259  23.5087703  32.4684179
  38.9986703  23.3719242  33.0308711  26.8104644  24.4784224  22.8596406
  26.5650686  23.5746554  23.0576616  26.9800559  24.4801374  21.9175884
  34.5001354  15.3507900  32.2421162  35.0183298  16.0868927  31.9167650
  34.1456487  15.6571893  33.0767921  34.7513948  11.7708183  27.7622058
  35.0315702  11.1031372  28.3882485  35.5364555  11.9637278  27.2496722
  32.5547417  30.9467177  19.3247084  31.9821384  31.5657364  18.8717556
  33.1280210  31.4966538  19.8587006  38.6222807  20.1925817  31.5093633
  39.5740229  20.2923914  31.5305857  38.4526257  19.4004085  32.0191718
  36.6437186  17.2781400  31.6953034  36.0487118  17.5586413  30.9999523
  36.3586883  17.7675301  32.4669775  35.7744677  31.2304327  20.4555667
  36.7075350  31.1649888  20.6588542  35.6867889  32.0660594  19.9970199
  38.4032693  30.5470197  17.4159614  38.3246325  30.2130061  18.3095372
  39.2242360  31.0391965  17.4151087  41.1010884  23.4131936  30.6235933
  41.0687204  22.4747937  30.8095617  41.7111508  23.4915973  29.8901758
  32.9394215  22.2827989  16.6663137  33.8853320  22.1534197  16.7351555
  32.5608460  21.5442651  17.1432565  41.2505373  20.2042980  30.6694216
  40.7344422  19.4201436  30.4824145  42.1345321  19.8761696  30.8340736
  38.9116100  13.9483995  26.6290029  38.7140921  13.6399083  27.5133361
  39.5215805  14.6745634  26.7587959  46.9187434  24.4747943  29.7641970
  47.6490823  24.2133231  30.3249673  46.3094380  23.7376665  29.8044038
  45.0002731  22.6155806  30.3616421  44.2735895  22.4811771  29.7532912
  44.5850018  22.9232634  31.1673139  32.8232908  26.3345735  38.1263794
  33.7435917  26.5124334  38.3203840  32.7882491  25.3901781  37.9743493
  22.0415073  21.5284329  27.0517069  21.7217857  20.6749637  26.7591443
  21.4948501  21.7432907  27.8075036  25.8194980  24.2446770  30.7686575
  26.0380990  25.1763878  30.7874609  26.2320754  23.8854744  31.5541379
  32.7399198  14.7514855  22.7562263  31.9299926  14.4061940  23.1317510
  33.4283615  14.4422399  23.3449875  34.6689746  13.8292902  24.3786560
  35.2220785  14.2488356  25.0376583  34.9059833  12.9028650  24.4209516
  30.6922846  19.8179976  40.1589324  30.5919573  20.7674333  40.0901415
  30.4744388  19.4898215  39.2865394  21.9103333  25.1487241  29.0210190
  21.2166804  24.7341193  28.5080145  22.6576324  25.1907777  28.4243609
  38.0468553  15.9393427  23.8865224  37.4667223  16.5978231  23.5043277
  37.7804486  15.1170772  23.4752642  36.4972120  15.3398485  26.0886545
  36.9971898  15.4515020  25.2800864  37.1407728  15.0359538  26.7287353
  30.5554116  23.2477115  38.9754386  30.0721197  24.0477475  39.1818275
  30.6415055  23.2585060  38.0221830  23.8240075  25.0805494  26.8976205
  23.8010763  25.1793182  25.9458088  24.1340712  25.9270645  27.2193371
  26.4827453  27.1381649  31.0122819  27.4370707  27.1065592  30.9452751
  26.2839977  26.6772273  31.8273045  27.0726835  25.7082765  33.5793617
  27.8919724  26.2026844  33.6028454  27.3463643  24.7914734  33.5511185
  36.8293432  18.0993518  22.9421573  35.9419287  18.3843168  22.7241767
  37.2447421  17.9387281  22.0948850  40.1807968  18.1240039  26.6575912
  40.9568358  18.6136491  26.9300529  39.4556102  18.5498093  27.1147781
  42.6180526  18.8367658  27.7149853  43.2125017  18.5963394  27.0043161
  42.6907110  18.1174789  28.3423389  24.8377682  32.6801269  28.0293017
  24.7032150  31.9201670  27.4631015  24.4209744  33.4042169  27.5621806
  35.9736645  27.8638192  17.0369593  36.6772495  28.0688195  17.6527248
  35.2499294  28.4314954  17.3018676  36.8034455  23.6148054  23.1571863
  36.7469657  24.0716605  22.3179495  37.3562798  22.8538738  22.9794706
  40.6139261  19.4037786  23.9821982  40.3576195  19.0034421  24.8130190
  39.9892129  20.1181579  23.8572121  44.9251599  22.1433859  26.4893274
  44.3651157  22.2127048  27.2624836  44.3195102  21.9674843  25.7692770
  27.9946808  33.5770586  28.2411460  27.8779192  34.5216018  28.1390150
  27.1739254  33.2744147  28.6297259  37.8823342  28.3020722  19.0868053
  38.7168946  27.8701920  18.9045527  37.7207685  28.1302735  20.0144947
  37.5369235  24.8052835  20.4524392  37.4818038  24.6397106  19.5112836
  36.9115290  25.5128868  20.6086582  22.3261750  20.0420899  34.2785814
  22.9720613  19.5319853  34.7673039  22.1178901  20.7789581  34.8529239
  34.8515142  27.1101747  39.7777955  35.7206301  27.2842399  39.4164590
  34.3721893  27.9296164  39.6553684  29.0201322  34.2298848  31.4567388
  29.9228569  34.2622458  31.7733883  28.7938692  33.2999299  31.4713724
  30.7754924  32.9829834  28.1177467  29.8250555  32.9831696  28.0041839
  31.0787410  32.2362569  27.6013502  34.6617479  10.9003721  24.2855647
  33.8949875  10.3462207  24.4312330  35.0728184  10.9725589  25.1469799
  26.6659241  17.1888516  38.3760828  27.5290702  16.8325321  38.5864153
  26.0924651  16.8502411  39.0636233  39.1784139  40.6253277  25.1081645
  38.6149005  40.5343214  24.3397933  39.0636534  39.8053182  25.5884138
  36.7248571  42.1204469  27.9465866  37.5169863  41.7795293  27.5312165
  36.9645222  42.2299444  28.8668019  44.7583698  44.2924245  20.4196110
  44.1071678  44.8778325  20.0330124  45.5528061  44.8230440  20.4791147
  38.6839325  41.3813382  20.8183244  39.4570201  40.8342369  20.6796120
  39.0364724  42.2457631  21.0297706  41.4480575  40.0866613  30.6151503
  42.0444147  39.8622635  29.9008466  41.5055546  39.3451358  31.2176951
  41.0205603  37.5406048  18.4501694  41.2731124  37.0187569  17.6885157
  40.0830162  37.3772194  18.5528378  46.0648886  36.5441827  26.2576437
  46.8511975  36.1261250  25.9066854  46.3287590  37.4487919  26.4258086
  46.2358963  41.9814677  20.9565094  45.6004796  42.0549303  21.6685999
  45.9056370  42.5708276  20.2784174  51.4657313  36.4817060  27.1609416
  52.1982485  35.9116277  27.3947245  50.7096669  36.0938660  27.6015922
  40.7401892  39.4434154  20.6526069  40.6238150  38.7679058  21.3207153
  40.8504152  38.9566528  19.8358222  43.0833433  38.9044301  24.3572758
  42.7191640  38.3774922  25.0685680  43.9400549  38.5142770  24.1839244
  48.9882733  30.1938634  31.6204025  48.6566058  31.0634045  31.3965240
  48.3928347  29.8774918  32.2998055  42.7238920  33.9334201  19.3534107
  42.8913322  34.8014437  19.7204578  42.5336089  34.0961483  18.4295396
  38.9326734  38.8464977  27.0536642  38.0077231  38.7141191  27.2614333
  39.1811148  39.6259196  27.5506584  48.8811397  34.9133720  28.6997375
  47.9728274  34.8449128  28.4056136  48.8298993  35.3905665  29.5279200
  42.7028141  36.3891858  20.3380774  42.5827766  36.8348909  21.1766254
  42.0080729  36.7377176  19.7794312  36.2935545  38.4898250  27.8880431
  36.4227927  38.7432729  28.8019843  35.6132997  39.0825958  27.5685086
  40.4635033  49.1595500  23.9870905  40.3859062  50.1103325  24.0659386
  39.8596676  48.8141373  24.6445831  50.7473043  33.1150158  30.4775249
  50.1047423  33.4082692  29.8315043  50.2427972  33.0003079  31.2828445
  48.4013207  36.8613332  21.1661108  49.3131063  37.0940718  20.9908805
  47.8922854  37.4450376  20.6036186  46.1884490  33.8814935  33.8337131
  45.9445422  34.6356995  33.2971407  46.4644420  34.2600282  34.6684378
  45.7449182  33.0371368  29.4150969  44.8833661  33.3352621  29.7067706
  45.7711616  33.2541767  28.4832001  42.5610751  41.5813558  25.8224774
  43.0249097  41.8601261  25.0329397  42.2967549  40.6797003  25.6397865
  39.4534832  41.1285040  28.7604538  40.0236189  41.5572308  28.1222022
  40.0442944  40.8467624  29.4588723  41.4979637  37.7036711  22.6314340
  42.2003680  38.1557754  23.0988266  41.1660266  37.0620529  23.2594233
  39.9459999  36.2948467  37.0065549  39.3158659  36.9764748  37.2400946
  39.8396086  36.1831549  36.0618687  35.2404971  35.9620263  27.9331473
  34.4504025  36.2177792  27.4571584  35.7316218  36.7768601  28.0383514
  37.1919716  36.3264842  24.8914950  36.3950880  36.4383537  25.4098445
  36.9645309  36.6651495  24.0255840  33.5242674  36.2150754  30.3646464
  33.7750712  37.0997764  30.6304040  34.0602222  36.0355355  29.5921556
  42.7373402  44.5177653  22.7076445  42.6019076  45.3629189  23.1361293
  43.2783214  44.7196931  21.9442379  39.2240741  30.5969233  39.3690800
  38.8307687  30.0435432  40.0438444  40.0406882  30.9079811  39.7597317
  36.1902799  42.0353091  23.2804370  36.7027320  42.8296341  23.4309934
  36.8425512  41.3379382  23.2137971  37.9997684  45.1518847  25.3627123
  38.1764312  46.0736812  25.1748107  38.7954517  44.8377267  25.7921503
  42.1408702  32.0127112  36.9611057  42.8818416  32.6134265  36.8815519
  42.3726625  31.2704750  36.4029099  37.2850040  37.1983479  35.2389286
  37.1703555  36.2968737  35.5396385  36.4294558  37.4447176  34.8874103
  46.0865865  28.0408215  31.2375338  45.7430135  28.9309857  31.1614449
  46.4544828  27.8509873  30.3744923  34.1551716  40.3641746  24.0563940
  34.9926938  40.7738754  23.8397648  34.3329984  39.4241188  24.0264134
  46.0516148  38.0316826  19.7447773  45.5362771  38.8021431  19.9836161
  45.7793456  37.3581962  20.3680835  43.6363259  32.8766527  24.8033012
  42.7804855  32.4873377  24.6238650  44.0490211  32.9558488  23.9432797
  45.1662406  30.4112870  29.2024571  44.6627201  30.3743005  28.3892377
  45.4593013  31.3205613  29.2621228  41.4105292  30.4951600  28.2090753
  42.2758288  30.2994409  27.8496643  41.4782800  30.2661952  29.1360110
  45.8402451  35.9043918  21.5707554  45.5352587  36.2190067  22.4217698
  46.7932893  35.9825338  21.6134887  44.2848883  42.0634142  23.2200508
  43.7570245  41.3286901  22.9073746  43.7836386  42.8408818  22.9740477
  39.0167611  32.7253808  25.5807120  39.5911363  32.5028989  24.8480313
  39.6038593  32.7942502  26.3335721  48.0747188  38.6127535  26.3871497
  48.5879070  39.2457527  26.8893206  48.7248412  38.0128730  26.0214857
  39.3437198  34.7558269  19.6003005  38.5074510  35.0932955  19.9212280
  39.2041967  34.6207249  18.6630142  41.3190278  29.5995057  24.3082189
  40.6654691  29.2844074  23.6838804  41.2770752  28.9770797  25.0342012
  42.4301483  39.8814352  16.2235481  41.5228545  39.6503605  16.4226630
  42.9272515  39.0851971  16.4109463  45.3369562  48.5911859  19.1432168
  44.6631261  48.8943556  19.7517125  45.7235384  49.3940939  18.7937625
  45.3363066  37.4868406  23.7632517  46.0834885  37.9989803  23.4539639
  45.6054656  37.1652459  24.6236911  43.6089717  39.9826947  20.7459472
  42.7000936  39.6985980  20.8431941  43.6384800  40.4026025  19.8862778
  48.8408984  43.5933536  24.5150639  48.3871311  42.7524446  24.5715830
  48.2102951  44.2294935  24.8525419  47.7841904  34.5225522  25.7451307
  47.0464660  34.0102908  26.0761549  48.0368677  34.0825904  24.9334583
  47.2841923  45.4310033  25.4500457  47.5764898  45.9915090  24.7312823
  47.7940544  45.7238594  26.2053616  47.8853531  27.3001774  26.3393076
  48.1912408  26.4399138  26.0518991  48.6106136  27.8919394  26.1392070
  34.1777887  37.7032461  24.7274674  33.9802287  37.1101822  24.0025740
  33.6224551  37.3984671  25.4450613  42.1574611  37.5955567  26.8469267
  42.2123220  36.6429404  26.7711744  41.3465813  37.7515006  27.3310565
  43.3065804  41.5235690  18.0847550  42.8685234  40.8071549  17.6253188
  44.0476245  41.7511805  17.5232642  40.0966971  36.2132627  24.6059646
  39.2834836  36.5126798  25.0124838  40.5925965  35.8188316  25.3234128
  42.2475548  46.2090384  26.5393910  42.2051727  46.4351230  25.6102443
  43.1638247  45.9753759  26.6879712  39.5881045  33.7850983  30.2220881
  40.2280425  33.6439742  29.5243844  38.7558576  33.4985496  29.8459483
  40.3641349  43.0853413  26.3355873  41.1581948  42.5903733  26.1338448
  39.6533042  42.5571276  25.9723579  36.6724113  37.2296495  22.4115626
  35.7421701  37.1680950  22.6285588  36.7681585  36.7072447  21.6152267
  36.5909662  33.7551308  24.9993868  36.8516479  34.6696641  24.8903028
  37.4126834  33.2875750  25.1490480  38.0634587  35.1689065  32.1692692
  38.7357641  34.9606427  31.5205341  37.2364374  34.9711151  31.7297924
  43.9660159  31.7951006  34.1858353  43.3188074  32.4940955  34.0922829
  44.7361174  32.2287150  34.5534601  43.5360777  48.7591531  21.3579247
  43.7112533  48.2879575  22.1724870  42.8493565  49.3857298  21.5860508
  44.4917840  43.0364038  27.4042548  44.1567673  42.9964808  28.3000198
  43.9921786  42.3708754  26.9312958  38.4662084  38.4431668  32.9295129
  38.3281882  37.7111907  33.5306668  39.3767008  38.3540568  32.6479317
  47.4277032  40.3820072  17.6779608  46.8106203  39.6566900  17.5812660
  46.9593520  41.1429432  17.3346682  39.8073319  35.1416845  34.2374448
  39.2710676  34.6907583  34.8896045  39.2190027  35.2762754  33.4944913
  38.1021862  51.9080894  28.1319107  38.3418461  52.5399418  28.8098126
  37.2591059  51.5568934  28.4184466  39.2175578  34.6005496  16.8000912
  38.3405044  34.4794297  16.4363159  39.6933331  33.8091575  16.5479801
  30.7377718  39.3882656  26.8942419  31.4248758  39.0744386  26.3063434
  30.5825847  40.2924021  26.6209671  35.5412440  34.2772853  31.3227443
  35.4570629  33.6698522  30.5877853  34.7195147  34.7681871  31.3236939
  42.4039504  46.9531787  24.0463433  41.6207026  47.4953467  24.1401657
  43.1032249  47.4705766  24.4457674  45.7136154  32.7626416  26.6897638
  46.2104854  32.0096378  26.3698708  44.9423136  32.7990733  26.1240847
  46.7965935  41.5198103  24.2636061  45.8622214  41.6399566  24.0940766
  46.9742603  40.6170570  23.9996071  42.2971123  34.9043799  26.4169323
  41.9268910  34.3514840  27.1050228  42.7930215  34.3001933  25.8644323
  50.1838486  37.3615423  24.7986095  50.6498938  38.1943414  24.7246398
  50.6345987  36.8960404  25.5031354  48.2514717  43.7059244  21.7972247
  48.5274561  43.5915839  22.7066122  47.3819216  43.3076729  21.7584421
  48.1555149  29.7296010  28.8376997  47.2418229  29.9600236  29.0059204
  48.5848250  29.8134454  29.6891029  44.8868781  47.9545595  25.4405061
  45.0691176  47.1367251  25.9032813  45.7101767  48.1713287  25.0029951
  45.2210947  46.8813780  22.7020110  45.7498713  46.3706234  22.0890272
  45.4839166  46.5656310  23.5665643  35.7228039  44.8977649  30.4455443
  36.3081476  44.1521337  30.5783347  35.5252878  45.2081606  31.3292107
  38.5766695  47.9328897  25.4617886  37.9077070  48.4175024  24.9781926
  38.4379564  48.1798117  26.3761264  30.3145694  37.4683249  29.1659886
  30.3529794  36.9346840  29.9597004  29.8085987  36.9418455  28.5470863
  42.7171963  49.9672640  32.0600544  43.2690271  50.1304262  32.8249629
  43.0578157  50.5577078  31.3880569  37.6936456  32.3147790  32.6622429
  37.7577783  33.1762621  32.2499826  37.6303577  31.7021792  31.9294787
  37.1688729  34.3870922  36.3095463  37.7960768  34.0048000  36.9232987
  36.3116648  34.1685124  36.6751155  33.9454272  36.1947352  22.2413818
  34.2407713  35.2858030  22.1880871  33.0442308  36.1735091  21.9194820
  45.8540351  47.9154616  29.0464226  45.7291490  47.1144355  28.5375172
  46.5119442  48.4100809  28.5578196  37.4748519  34.2703348  28.2241366
  36.7535105  34.8839316  28.0848840  38.2641775  34.8061113  28.1458012
  40.2774832  31.6057775  34.4982018  40.8009234  31.8520071  35.2608327
  40.0587166  32.4377809  34.0785155  35.6742113  33.8761449  22.3653143
  35.3454820  32.9958828  22.1828249  36.0281484  33.8209118  23.2529532
  44.9221692  45.5116352  26.8748128  44.7746655  44.5833059  27.0555698
  45.7475186  45.5336443  26.3905204  38.7883937  34.1634419  22.7328621
  39.1280009  34.6920340  22.0107229  39.2356057  34.5014825  23.5087187
  41.4827377  32.5471470  32.1831689  41.1424198  31.7479283  32.5852368
  40.7766384  32.8473181  31.6108522  42.1343849  29.6320782  30.6359012
  42.9569918  29.1581260  30.5137902  42.3781913  30.4111266  31.1357698
  40.7752084  32.6609041  20.9321913  41.4960446  33.0390293  20.4285630
  40.1517388  33.3797917  21.0356891  44.9183207  33.3654190  21.8680246
  45.1346821  34.2478827  21.5669074  44.4377274  32.9740403  21.1385888
  39.6582428  36.3239903  28.4450990  39.5127009  36.6380206  29.3375272
  39.1807632  36.9424803  27.8921889  41.5178811  33.3142451  28.4931880
  41.5040380  32.4183544  28.1564178  42.2351239  33.3213115  29.1270166
  48.3151130  46.8530578  23.3175093  48.4888008  46.2877001  22.5648945
  48.8080022  47.6531473  23.1354583  34.1328090  38.8645247  31.3838651
  33.5881558  39.6405055  31.5158926  35.0107440  39.2116052  31.2257773
  40.9215707  32.1956831  23.7619450  41.0431618  31.2673477  23.9610337
  40.6317749  32.2095517  22.8497765  43.7906897  29.8811742  26.8986170
  43.8128594  29.9451075  25.9438149  44.2074956  29.0416250  27.0926676
  49.3026303  46.1697343  20.4171991  49.9977207  46.7904035  20.6359306
  49.6449453  45.3192694  20.6924369  34.9194112  37.9915143  34.2768808
  34.1775848  38.1397779  34.8633439  34.5986856  38.2523409  33.4135558
  51.2017726  43.6197048  21.9459322  51.7269050  43.9584321  21.2208642
  51.1140078  42.6844063  21.7622456  42.8858387  49.6869031  26.3054575
  42.4463377  49.1945410  26.9987432  43.6366504  49.1441999  26.0646650
  35.3650726  45.8780572  26.3079203  36.1908746  45.5784344  25.9277846
  35.0144778  45.1088195  26.7568992  40.3332259  45.2307040  28.3776876
  39.7112268  44.5677745  28.0779104  41.0037126  45.2568172  27.6950524
  33.5659331  43.7966899  27.2668136  32.7291239  43.3689073  27.0852138
  33.5382976  43.9899342  28.2038928  40.4056786  33.7088828  37.9709383
  40.4544942  34.5850951  37.5887152  40.9479300  33.1666221  37.3981026
  39.8945766  43.7810964  21.8535337  40.0433886  44.4646428  21.2002010
  40.7012209  43.7616054  22.3684793  42.6356075  34.4620201  34.7255741
  41.7659384  34.7553767  34.4538330  42.8715555  35.0460646  35.4463005
  37.6498399  39.8076141  22.8596406  37.4044441  38.9038471  23.0576616
  37.8194313  39.8093292  21.9175884  45.3395109  30.6799818  32.2421162
  45.8577052  31.4160845  31.9167650  44.9850241  30.9863811  33.0767921
  36.9194046  35.5404499  20.3582567  36.2263291  35.6148854  19.7022603
  36.6745798  34.7764843  20.8804084  45.5907703  27.1000100  27.7622058
  45.8709457  26.4323289  28.3882485  46.3758310  27.2929196  27.2496722
  43.3941171  46.2759094  19.3247084  42.8215138  46.8949281  18.8717556
  43.9673965  46.8258456  19.8587006  47.4830941  32.6073318  31.6953034
  46.8880873  32.8878330  30.9999523  47.1980637  33.0967218  32.4669775
  46.6138431  46.5596244  20.4555667  47.5469104  46.4941806  20.6588542
  46.5261644  47.3952511  19.9970199  49.2426448  45.8762115  17.4159614
  49.1640079  45.5421978  18.3095372  50.0636114  46.3683883  17.4151087
  43.7787970  37.6119907  16.6663137  44.7247074  37.4826115  16.7351555
  43.4002215  36.8734569  17.1432565  49.7509854  29.2775913  26.6290029
  49.5534675  28.9691001  27.5133361  50.3609560  30.0037552  26.7587959
  41.9630887  35.5369883  16.6018022  41.0562342  35.2402996  16.6780736
  42.2406868  35.2399701  15.7352308  32.8808827  36.8576247  27.0517069
  32.5611612  36.0041555  26.7591443  32.3342255  37.0724825  27.8075036
  36.6588735  39.5738688  30.7686575  36.8774745  40.5055796  30.7874609
  37.0714509  39.2146662  31.5541379  43.5792953  30.0806773  22.7562263
  42.7693681  29.7353858  23.1317510  44.2677370  29.7714317  23.3449875
  45.5083501  29.1584820  24.3786560  46.0614540  29.5780273  25.0376583
  45.7453587  28.2320568  24.4209516  41.5316600  35.1471894  40.1589324
  41.4313327  36.0966250  40.0901415  41.3138142  34.8190132  39.2865394
  40.7329672  32.3956819  16.7430001  41.5948836  32.7211717  17.0025819
  40.9180016  31.6088314  16.2303067  32.7497087  40.4779158  29.0210190
  32.0560559  40.0633111  28.5080145  33.4970078  40.5199695  28.4243609
  48.8862308  31.2685345  23.8865224  48.3060977  31.9270149  23.5043277
  48.6198241  30.4462690  23.4752642  47.3365874  30.6690403  26.0886545
  47.8365653  30.7806937  25.2800864  47.9801482  30.3651456  26.7287353
  34.6633830  40.4097412  26.8976205  34.6404518  40.5085099  25.9458088
  34.9734466  41.2562563  27.2193371  37.3221208  42.4673567  31.0122819
  38.2764461  42.4357509  30.9452751  37.1233731  42.0064191  31.8273045
  37.9120590  41.0374683  33.5793617  38.7313479  41.5318762  33.6028454
  38.1857398  40.1206651  33.5511185  47.6687186  33.4285435  22.9421573
  46.7813041  33.7135086  22.7241767  48.0841175  33.2679199  22.0948850
  51.0201722  33.4531956  26.6575912  51.7962112  33.9428409  26.9300529
  50.2949856  33.8790011  27.1147781  53.4574281  34.1659576  27.7149853
  54.0518772  33.9255312  27.0043161  53.5300864  33.4466706  28.3423389
  35.6771436  48.0093187  28.0293017  35.5425904  47.2493587  27.4631015
  35.2603499  48.7334086  27.5621806  46.8130399  43.1930110  17.0369593
  47.5166250  43.3980113  17.6527248  46.0893048  43.7606872  17.3018676
  47.6428210  38.9439971  23.1571863  47.5863411  39.4008523  22.3179495
  48.1956552  38.1830656  22.9794706  51.4533016  34.7329703  23.9821982
  51.1969950  34.3326339  24.8130190  50.8285884  35.4473497  23.8572121
  38.8340562  48.9062504  28.2411460  38.7172946  49.8507936  28.1390150
  38.0133009  48.6036065  28.6297259  48.7217097  43.6312639  19.0868053
  49.5562701  43.1993838  18.9045527  48.5601440  43.4594653  20.0144947
  48.3762989  40.1344753  20.4524392  48.3211793  39.9689024  19.5112836
  47.7509044  40.8420786  20.6086582  33.1655504  35.3712817  34.2785814
  33.8114368  34.8611771  34.7673039  32.9572655  36.1081499  34.8529239
  41.6859115  29.6352862  20.0309710  41.6737784  30.5794702  20.1877981
  42.5782536  29.4523007  19.7369172  39.8595076  49.5590765  31.4567388
  40.7622323  49.5914376  31.7733883  39.6332447  48.6291216  31.4713724
  41.6148678  48.3121752  28.1177467  40.6644309  48.3123614  28.0041839
  41.9181165  47.5654487  27.6013502  45.5011234  26.2295638  24.2855647
  44.7343630  25.6754125  24.4312330  45.9121939  26.3017507  25.1469799
  37.5052995  32.5180434  38.3760828  38.3684457  32.1617239  38.5864153
  36.9318406  32.1794329  39.0636233  50.0177894  55.9545195  25.1081645
  49.4542759  55.8635132  24.3397933  49.9030289  55.1345099  25.5884138
  47.5642326  57.4496387  27.9465866  48.3563618  57.1087211  27.5312165
  47.8038976  57.5591362  28.8668019  55.5977453  59.6216163  20.4196110
  54.9465432  60.2070243  20.0330124  56.3921815  60.1522358  20.4791147
  49.5233080  56.7105300  20.8183244  50.2963956  56.1634287  20.6796120
  49.8758479  57.5749549  21.0297706  51.3618122  58.0381682  34.0250144
  51.0707988  58.9427313  33.9096810  51.9975107  58.0798210  34.7394213
  51.8599358  52.8697966  18.4501694  52.1124878  52.3479487  17.6885157
  50.9223917  52.7064111  18.5528378  57.0752718  57.3106595  20.9565094
  56.4398551  57.3841221  21.6685999  56.7450124  57.9000193  20.2784174
  51.5795646  54.7726072  20.6526069  51.4631904  54.0970975  21.3207153
  51.6897906  54.2858446  19.8358222  53.5632674  49.2626119  19.3534107
  53.7307077  50.1306355  19.7204578  53.3729843  49.4253400  18.4295396
  49.7720489  54.1756894  27.0536642  48.8470985  54.0433108  27.2614333
  50.0204902  54.9551114  27.5506584  53.5421895  51.7183776  20.3380774
  53.4221520  52.1640827  21.1766254  52.8474484  52.0669094  19.7794312
  47.1329300  53.8190168  27.8880431  47.2621681  54.0724647  28.8019843
  46.4526751  54.4117876  27.5685086  51.3028787  64.4887418  23.9870905
  51.2252817  65.4395243  24.0659386  50.6990431  64.1433290  24.6445831
  59.2406961  52.1905249  21.1661108  60.1524817  52.4232636  20.9908805
  58.7316608  52.7742294  20.6036186  57.8476544  57.1731068  28.5574689
  57.2185406  57.3376782  27.8550757  57.4602206  57.5872677  29.3285653
  53.4004506  56.9105476  25.8224774  53.8642851  57.1893179  25.0329397
  53.1361304  56.0088920  25.6397865  50.2928587  56.4576957  28.7604538
  50.8629944  56.8864226  28.1222022  50.8836698  56.1759542  29.4588723
  46.0798726  51.2912181  27.9331473  45.2897780  51.5469709  27.4571584
  46.5709973  52.1060519  28.0383514  48.0313471  51.6556760  24.8914950
  47.2344634  51.7675454  25.4098445  47.8039063  51.9943412  24.0255840
  44.3636429  51.5442671  30.3646464  44.6144467  52.4289681  30.6304040
  44.8995977  51.3647273  29.5921556  53.5767156  59.8469571  22.7076445
  53.4412831  60.6921107  23.1361293  54.1176969  60.0488848  21.9442379
  47.0296554  57.3645009  23.2804370  47.5421074  58.1588259  23.4309934
  47.6819266  56.6671299  23.2137971  48.8391438  60.4810765  25.3627123
  49.0158067  61.4028730  25.1748107  49.6348272  60.1669184  25.7921503
  49.9622754  61.9988939  31.3637465  50.5130179  61.8706002  30.5914459
  49.1234230  62.2983828  31.0132358  44.9945470  55.6933663  24.0563940
  45.8320692  56.1030672  23.8397648  45.1723738  54.7533105  24.0264134
  56.8909902  53.3608744  19.7447773  56.3756526  54.1313348  19.9836161
  56.6187211  52.6873880  20.3680835  52.2499046  45.8243518  28.2090753
  53.1152043  45.6286326  27.8496643  52.3176555  45.5953869  29.1360110
  61.8644177  56.1141098  21.6800947  61.0873619  55.7752258  21.2356109
  62.5435658  56.1193722  21.0055912  55.1242637  57.3926059  23.2200508
  54.5963999  56.6578819  22.9073746  54.6230140  58.1700736  22.9740477
  49.8561365  48.0545726  25.5807120  50.4305117  47.8320907  24.8480313
  50.4432348  48.1234420  26.3335721  50.1830952  50.0850187  19.6003005
  49.3468264  50.4224873  19.9212280  50.0435722  49.9499166  18.6630142
  53.2695238  55.2106270  16.2235481  52.3622299  54.9795523  16.4226630
  53.7666270  54.4143889  16.4109463  56.1763317  63.9203777  19.1432168
  55.5025015  64.2235473  19.7517125  56.5629139  64.7232857  18.7937625
  54.4483471  55.3118864  20.7459472  53.5394690  55.0277897  20.8431941
  54.4778555  55.7317943  19.8862778  58.1235678  60.7601951  25.4500457
  58.4158652  61.3207008  24.7312823  58.6334298  61.0530512  26.2053616
  45.0171641  53.0324379  24.7274674  44.8196041  52.4393739  24.0025740
  44.4618305  52.7276589  25.4450613  54.1459559  56.8527608  18.0847550
  53.7078989  56.1363467  17.6253188  54.8870000  57.0803723  17.5232642
  50.9360725  51.5424545  24.6059646  50.1228591  51.8418715  25.0124838
  51.4319719  51.1480234  25.3234128  53.0869303  61.5382302  26.5393910
  53.0445482  61.7643148  25.6102443  54.0032002  61.3045676  26.6879712
  51.2035104  58.4145331  26.3355873  51.9975702  57.9195651  26.1338448
  50.4926796  57.8863194  25.9723579  47.5117867  52.5588412  22.4115626
  46.5815455  52.4972868  22.6285588  47.6075339  52.0364365  21.6152267
  47.4303416  49.0843225  24.9993868  47.6910234  49.9988558  24.8903028
  48.2520589  48.6167668  25.1490480  54.3754532  64.0883449  21.3579247
  54.5506287  63.6171492  22.1724870  53.6887320  64.7149215  21.5860508
  55.3311595  58.3655955  27.4042548  54.9961427  58.3256725  28.3000198
  54.8315541  57.7000671  26.9312958  58.2670787  55.7111990  17.6779608
  57.6499957  54.9858818  17.5812660  57.7987275  56.4721350  17.3346682
  48.9415617  67.2372812  28.1319107  49.1812215  67.8691336  28.8098126
  48.0984813  66.8860852  28.4184466  50.0569332  49.9297414  16.8000912
  49.1798799  49.8086215  16.4363159  50.5327085  49.1383492  16.5479801
  41.5771473  54.7174574  26.8942419  42.2642512  54.4036304  26.3063434
  41.4219601  55.6215938  26.6209671  53.4543479  63.0451934  30.5360611
  53.3813650  63.8506906  31.0479916  53.0120872  63.2443900  29.7108632
  53.2433258  62.2823704  24.0463433  52.4600780  62.8245385  24.1401657
  53.9426004  62.7997684  24.4457674  57.6359689  56.8490021  24.2636061
  56.7015968  56.9691484  24.0940766  57.8136358  55.9462488  23.9996071
  50.9654076  60.6933212  33.5124340  51.6663535  61.3269695  33.6653735
  50.4949191  61.0347943  32.7519980  59.0908472  59.0351162  21.7972247
  59.3668316  58.9207756  22.7066122  58.2212970  58.6368646  21.7584421
  55.7262536  63.2837512  25.4405061  55.9084930  62.4659168  25.9032813
  56.5495522  63.5005205  25.0029951  56.0604701  62.2105698  22.7020110
  56.5892468  61.6998152  22.0890272  56.3232921  61.8948228  23.5665643
  46.5621794  60.2269567  30.4455443  47.1475231  59.4813255  30.5783347
  46.3646632  60.5373524  31.3292107  49.4160449  63.2620814  25.4617886
  48.7470824  63.7466942  24.9781926  49.2773319  63.5090035  26.3761264
  41.1539449  52.7975167  29.1659886  41.1923548  52.2638758  29.9597004
  40.6479742  52.2710373  28.5470863  53.5565718  65.2964558  32.0600544
  54.1084026  65.4596179  32.8249629  53.8971911  65.8868996  31.3880569
  44.7848026  51.5239269  22.2413818  45.0801467  50.6149948  22.1880871
  43.8836062  51.5027009  21.9194820  46.5135868  49.2053367  22.3653143
  46.1848574  48.3250746  22.1828249  46.8675239  49.1501036  23.2529532
  55.7615447  60.8408270  26.8748128  55.6140409  59.9124977  27.0555698
  56.5868940  60.8628360  26.3905204  49.6277691  49.4926337  22.7328621
  49.9673764  50.0212258  22.0107229  50.0749811  49.8306743  23.5087187
  59.3649569  61.6636828  27.9613001  60.2896116  61.4579690  27.8237452
  59.1964872  61.4153230  28.8702343  51.6145838  47.9900958  20.9321913
  52.3354201  48.3682211  20.4285630  50.9911142  48.7089835  21.0356891
  52.3572565  48.6434368  28.4931880  52.3434134  47.7475462  28.1564178
  53.0744993  48.6505032  29.1270166  59.1544885  62.1822496  23.3175093
  59.3281762  61.6168918  22.5648945  59.6473776  62.9823391  23.1354583
  44.9721845  54.1937165  31.3838651  44.4275313  54.9696973  31.5158926
  45.8501194  54.5407969  31.2257773  51.7609461  47.5248749  23.7619450
  51.8825372  46.5965395  23.9610337  51.4711504  47.5387435  22.8497765
  60.1420057  61.4989260  20.4171991  60.8370962  62.1195953  20.6359306
  60.4843207  60.6484611  20.6924369  62.0411480  58.9488966  21.9459322
  62.5662804  59.2876238  21.2208642  61.9533833  58.0135981  21.7622456
  53.7252141  65.0160949  26.3054575  53.2857131  64.5237328  26.9987432
  54.4760258  64.4733917  26.0646650  46.2044480  61.2072490  26.3079203
  47.0302500  60.9076262  25.9277846  45.8538532  60.4380112  26.7568992
  51.1726013  60.5598958  28.3776876  50.5506023  59.8969663  28.0779104
  51.8430880  60.5860090  27.6950524  44.4053085  59.1258816  27.2668136
  43.5684993  58.6980991  27.0852138  44.3776731  59.3191260  28.2038928
  50.7339520  59.1102881  21.8535337  50.8827641  59.7938346  21.2002010
  51.5405964  59.0907971  22.3684793  48.4892153  55.1368059  22.8596406
  48.2438195  54.2330389  23.0576616  48.6588068  55.1385210  21.9175884
  47.7587801  50.8696417  20.3582567  47.0657046  50.9440772  19.7022603
  47.5139553  50.1056760  20.8804084  54.2334926  61.6051012  19.3247084
  53.6608893  62.2241199  18.8717556  54.8067719  62.1550374  19.8587006
  57.4532186  61.8888162  20.4555667  58.3862859  61.8233724  20.6588542
  57.3655398  62.7244429  19.9970199  60.0820202  61.2054032  17.4159614
  60.0033834  60.8713896  18.3095372  60.9029869  61.6975800  17.4151087
  54.6181724  52.9411825  16.6663137  55.5640829  52.8118033  16.7351555
  54.2395969  52.2026487  17.1432565  52.8024641  50.8661801  16.6018022
  51.8956097  50.5694914  16.6780736  53.0800622  50.5691619  15.7352308
  43.7202582  52.1868164  27.0517069  43.4005366  51.3333473  26.7591443
  43.1736010  52.4016743  27.8075036  47.4982489  54.9030605  30.7686575
  47.7168499  55.8347713  30.7874609  47.9108263  54.5438580  31.5541379
  54.4186707  45.4098691  22.7562263  53.6087435  45.0645776  23.1317510
  55.1071124  45.1006234  23.3449875  51.5723426  47.7248736  16.7430001
  52.4342590  48.0503635  17.0025819  51.7573770  46.9380232  16.2303067
  43.5890842  55.8071076  29.0210190  42.8954313  55.3925029  28.5080145
  44.3363833  55.8491612  28.4243609  45.5027584  55.7389330  26.8976205
  45.4798272  55.8377017  25.9458088  45.8128221  56.5854481  27.2193371
  48.1614962  57.7965485  31.0122819  49.1158216  57.7649427  30.9452751
  47.9627486  57.3356108  31.8273045  48.7514344  56.3666601  33.5793617
  49.5707233  56.8610679  33.6028454  49.0251152  55.4498569  33.5511185
  46.5165191  63.3385104  28.0293017  46.3819659  62.5785505  27.4631015
  46.0997253  64.0626004  27.5621806  57.6524154  58.5222028  17.0369593
  58.3560004  58.7272030  17.6527248  56.9286803  59.0898790  17.3018676
  58.4821964  54.2731889  23.1571863  58.4257166  54.7300440  22.3179495
  59.0350307  53.5122574  22.9794706  49.6734317  64.2354421  28.2411460
  49.5566701  65.1799854  28.1390150  48.8526763  63.9327983  28.6297259
  59.5610851  58.9604557  19.0868053  60.3956455  58.5285755  18.9045527
  59.3995194  58.7886571  20.0144947  59.2156744  55.4636670  20.4524392
  59.1605547  55.2980942  19.5112836  58.5902799  56.1712703  20.6086582
  52.5252869  44.9644779  20.0309710  52.5131539  45.9086619  20.1877981
  53.4176291  44.7814925  19.7369172  50.6988831  64.8882683  31.4567388
  51.6016078  64.9206293  31.7733883  50.4726201  63.9583134  31.4713724
  52.4542433  63.6413670  28.1177467  51.5038064  63.6415531  28.0041839
  52.7574919  62.8946404  27.6013502  68.1895126  69.4774208  29.1823229
  68.8273536  69.3580955  28.4786569  68.0715969  70.4255052  29.2411182
  64.9984833  69.4301636  29.1184754  64.6603344  69.3142701  28.2305289
  65.8674601  69.0292801  29.0985760  60.8571648  71.2837113  25.1081645
  60.2936514  71.1927050  24.3397933  60.7424043  70.4637017  25.5884138
  65.4804616  70.5836488  35.0770960  65.4693256  70.1889286  34.2051463
  65.6425255  69.8502561  35.6704731  58.4036080  72.7788304  27.9465866
  59.1957372  72.4379129  27.5312165  58.6432731  72.8883279  28.8668019
  66.4371207  74.9508080  20.4196110  65.7859187  75.5362161  20.0330124
  67.2315570  75.4814275  20.4791147  60.3626834  72.0397217  20.8183244
  61.1357710  71.4926205  20.6796120  60.7152233  72.9041467  21.0297706
  62.2011877  73.3673600  34.0250144  61.9101743  74.2719231  33.9096810
  62.8368861  73.4090127  34.7394213  63.1268084  70.7450448  30.6151503
  63.7231656  70.5206471  29.9008466  63.1843055  70.0035194  31.2176951
  62.6993112  68.1989884  18.4501694  62.9518633  67.6771405  17.6885157
  61.7617671  68.0356029  18.5528378  67.7436395  67.2025662  26.2576437
  68.5299484  66.7845085  25.9066854  68.0075099  68.1071754  26.4258086
  67.9146472  72.6398512  20.9565094  67.2792305  72.7133139  21.6685999
  67.5843879  73.2292111  20.2784174  73.1444822  67.1400895  27.1609416
  73.8769994  66.5700112  27.3947245  72.3884178  66.7522496  27.6015922
  62.4189401  70.1017990  20.6526069  62.3025659  69.4262893  21.3207153
  62.5291661  69.6150363  19.8358222  64.7620942  69.5628137  24.3572758
  64.3979149  69.0358758  25.0685680  65.6188058  69.1726606  24.1839244
  64.4026429  64.5918036  19.3534107  64.5700831  65.4598273  19.7204578
  64.2123598  64.7545318  18.4295396  67.1601762  73.0535015  31.0199937
  66.8602485  73.9560054  30.9115745  66.8152821  72.7867198  31.8721090
  60.6114243  69.5048812  27.0536642  59.6864740  69.3725026  27.2614333
  60.8598657  70.2843031  27.5506584  70.5598906  65.5717555  28.6997375
  69.6515783  65.5032964  28.4056136  70.5086502  66.0489500  29.5279200
  64.3815650  67.0475694  20.3380774  64.2615275  67.4932745  21.1766254
  63.6868238  67.3961011  19.7794312  57.9723054  69.1482086  27.8880431
  58.1015436  69.4016565  28.8019843  57.2920506  69.7409794  27.5685086
  62.1422542  79.8179336  23.9870905  62.0646571  80.7687161  24.0659386
  61.5384185  79.4725208  24.6445831  64.6339772  66.9907201  36.6432272
  63.8573106  67.5501121  36.6335137  65.2730335  67.4763984  37.1647142
  70.0800716  67.5197167  21.1661108  70.9918572  67.7524554  20.9908805
  69.5710363  68.1034211  20.6036186  62.8886144  69.7992654  36.2050239
  63.6300828  70.3377698  35.9285063  62.1823129  70.4258943  36.3621791
  68.3641483  71.9421795  34.8022400  68.7724840  71.5004205  34.0577033
  67.6418745  71.3674422  35.0556593  64.7172554  66.8794402  32.1755957
  65.5633749  67.3033815  32.3190606  64.6571191  66.2228026  32.8694520
  68.6870298  72.5022985  28.5574689  68.0579161  72.6668700  27.8550757
  68.2995960  72.9164595  29.3285653  72.5659530  73.4377423  25.9119053
  71.8810568  73.8176325  25.3616086  72.6503379  74.0472750  26.6451001
  69.8210462  71.0837382  32.5114397  70.0327357  71.7269142  31.8348778
  69.7740210  70.2499699  32.0436327  67.4236691  63.6955203  29.4150969
  66.5621170  63.9936457  29.7067706  67.4499125  63.9125602  28.4832001
  64.2398260  72.2397394  25.8224774  64.7036606  72.5185097  25.0329397
  63.9755058  71.3380838  25.6397865  61.1322341  71.7868875  28.7604538
  61.7023698  72.2156143  28.1222022  61.7230453  71.5051460  29.4588723
  63.1767146  68.3620546  22.6314340  63.8791189  68.8141590  23.0988266
  62.8447775  67.7204365  23.2594233  61.6247508  66.9532303  37.0065549
  60.9946168  67.6348583  37.2400946  61.5183595  66.8415384  36.0618687
  56.9192480  66.6204099  27.9331473  56.1291534  66.8761627  27.4571584
  57.4103727  67.4352436  28.0383514  70.9356290  73.9609338  30.6836754
  71.7573733  73.5589525  30.4019436  70.9318692  73.8577572  31.6352870
  58.8707225  66.9848678  24.8914950  58.0738389  67.0967372  25.4098445
  58.6432818  67.3235330  24.0255840  64.7012893  73.5093381  32.8397464
  64.7657326  73.9713788  33.6755636  63.9923817  72.8790746  32.9679774
  55.2030183  66.8734589  30.3646464  55.4538221  67.7581599  30.6304040
  55.7389731  66.6939191  29.5921556  79.0262283  70.3048086  27.0321725
  78.2725991  69.7355484  26.8765730  79.1609824  70.2710751  27.9792360
  64.4160911  75.1761489  22.7076445  64.2806585  76.0213024  23.1361293
  64.9570723  75.3780766  21.9442379  57.8690308  72.6936927  23.2804370
  58.3814829  73.4880177  23.4309934  58.5213021  71.9963217  23.2137971
  59.6785193  75.8102683  25.3627123  59.8551821  76.7320648  25.1748107
  60.4742026  75.4961102  25.7921503  58.9637549  67.8567315  35.2389286
  58.8491064  66.9552572  35.5396385  58.1082067  68.1031011  34.8874103
  66.0429387  75.7985055  36.8376787  65.5993241  75.0121434  36.5197691
  66.7046601  75.9864206  36.1720678  60.8016508  77.3280857  31.3637465
  61.3523933  77.1997920  30.5914459  59.9627984  77.6275746  31.0132358
  68.1410625  76.0787855  34.8658188  68.1229100  76.8996736  34.3738457
  69.0630545  75.9541930  35.0908329  64.5983679  73.5931984  35.7081696
  65.1312016  72.8320273  35.4781004  64.0697760  73.3005636  36.4505851
  55.8339225  71.0225581  24.0563940  56.6714447  71.4322589  23.8397648
  56.0117493  70.0825023  24.0264134  67.7303657  68.6900662  19.7447773
  67.2150280  69.4605266  19.9836161  67.4580965  68.0165798  20.3680835
  65.3150768  63.5350362  24.8033012  64.4592364  63.1457213  24.6238650
  65.7277720  63.6142323  23.9432797  72.7037931  71.4433016  21.6800947
  71.9267374  71.1044176  21.2356109  73.3829412  71.4485639  21.0055912
  67.5189960  66.5627754  21.5707554  67.2140096  66.8773903  22.4217698
  68.4720402  66.6409174  21.6134887  65.9636392  72.7217977  23.2200508
  65.4357754  71.9870737  22.9073746  65.4623895  73.4992653  22.9740477
  70.9429238  70.9166997  28.3367555  70.2852912  71.6066259  28.4247683
  71.7469637  71.3063429  28.6801541  60.6955120  63.3837643  25.5807120
  61.2698871  63.1612825  24.8480313  61.2826102  63.4526338  26.3335721
  69.7534697  69.2711370  26.3871497  70.2666579  69.9041362  26.8893206
  70.4035921  68.6712566  26.0214857  61.0224707  65.4142104  19.6003005
  60.1862019  65.7516791  19.9212280  60.8829476  65.2791084  18.6630142
  64.1088992  70.5398187  16.2235481  63.2016054  70.3087441  16.4226630
  64.6060024  69.7435806  16.4109463  67.0157071  79.2495694  19.1432168
  66.3418770  79.5527391  19.7517125  67.4022893  80.0524775  18.7937625
  66.2315528  66.7460826  28.6329837  65.3138089  66.9675773  28.4751525
  66.6475671  66.8207136  27.7741544  67.0150575  68.1452241  23.7632517
  67.7622394  68.6573639  23.4539639  67.2842165  67.8236294  24.6236911
  65.2877226  70.6410782  20.7459472  64.3788445  70.3569815  20.8431941
  65.3172309  71.0609861  19.8862778  70.5196493  74.2517372  24.5150639
  70.0658820  73.4108281  24.5715830  69.8890460  74.8878770  24.8525419
  69.4629413  65.1809358  25.7451307  68.7252169  64.6686744  26.0761549
  69.7156186  64.7409739  24.9334583  68.9629432  76.0893868  25.4500457
  69.2552407  76.6498925  24.7312823  69.4728053  76.3822429  26.2053616
  55.8565396  68.3616296  24.7274674  55.6589796  67.7685657  24.0025740
  55.3012060  68.0568506  25.4450613  63.8362120  68.2539403  26.8469267
  63.8910729  67.3013239  26.7711744  63.0253322  68.4098842  27.3310565
  64.9853313  72.1819526  18.0847550  64.5472743  71.4655385  17.6253188
  65.7263754  72.4095641  17.5232642  61.7754480  66.8716462  24.6059646
  60.9622345  67.1710633  25.0124838  62.2713474  66.4772151  25.3234128
  63.9263057  76.8674219  26.5393910  63.8839236  77.0935066  25.6102443
  64.8425756  76.6337594  26.6879712  73.1026428  70.4576723  24.1423869
  72.9644327  70.6478319  23.2145058  72.7462647  71.2196106  24.5991920
  61.2668554  64.4434818  30.2220881  61.9067934  64.3023577  29.5243844
  60.4346085  64.1569331  29.8459483  73.1295808  72.5253250  29.1535140
  73.5632314  72.4328539  30.0018194  73.8427388  72.5010750  28.5155156
  62.0428858  73.7437248  26.3355873  62.8369457  73.2487568  26.1338448
  61.3320551  73.2155111  25.9723579  66.8623703  76.1255344  30.6868241
  66.9160725  76.6946280  31.4545957  65.9938484  76.2957229  30.3222278
  58.3511622  67.8880330  22.4115626  57.4209210  67.8264786  22.6285588
  58.4469094  67.3656283  21.6152267  58.2697171  64.4135143  24.9993868
  58.5303988  65.3280476  24.8903028  59.0914343  63.9459585  25.1490480
  73.9911357  72.5676950  31.6868026  74.1847247  73.4722761  31.9327301
  73.8911976  72.1084370  32.5206611  69.0526466  72.7183693  37.2608906
  68.9011972  72.4894245  36.3438990  69.0431145  73.6754295  37.2740251
  65.8211802  70.2915606  32.2455173  66.7503862  70.4426766  32.0724140
  65.4002832  70.3799627  31.3903819  64.6200134  74.3166270  30.0153710
  64.4811220  73.9485055  30.8879648  63.8314730  74.8313910  29.8437668
  65.2148286  79.4175367  21.3579247  65.3900042  78.9463410  22.1724870
  64.5281074  80.0441133  21.5860508  66.1705349  73.6947873  27.4042548
  65.8355182  73.6548643  28.3000198  65.6709295  73.0292589  26.9312958
  60.1449593  69.1015503  32.9295129  60.0069391  68.3695742  33.5306668
  61.0554517  69.0124403  32.6479317  69.1064541  71.0403907  17.6779608
  68.4893712  70.3150736  17.5812660  68.6381029  71.8013268  17.3346682
  62.7731894  68.8135462  32.4178809  63.4831513  68.1728655  32.3765427
  62.7301202  69.0648357  33.3404990  70.7618673  75.7502816  35.3385388
  70.7031219  75.0662036  34.6715971  71.1638191  76.4921806  34.8866014
  61.4860828  65.8000680  34.2374448  60.9498185  65.3491419  34.8896045
  60.8977536  65.9346589  33.4944913  59.7809371  82.5664730  28.1319107
  60.0205970  83.1983254  28.8098126  58.9378568  82.2152770  28.4184466
  60.8963087  65.2589332  16.8000912  60.0192553  65.1378132  16.4363159
  61.3720840  64.4675410  16.5479801  70.7636080  73.7142400  33.5699368
  69.8762859  73.3768321  33.6925767  71.3334631  72.9825431  33.8068133
  52.4165227  70.0466491  26.8942419  53.1036267  69.7328221  26.3063434
  52.2613356  70.9507856  26.6209671  64.2937233  78.3743852  30.5360611
  64.2207405  79.1798824  31.0479916  63.8514626  78.5735818  29.7108632
  64.0827013  77.6115622  24.0463433  63.2994535  78.1537302  24.1401657
  64.7819758  78.1289602  24.4457674  67.3923663  63.4210252  26.6897638
  67.8892363  62.6680214  26.3698708  66.6210645  63.4574568  26.1240847
  75.2453420  69.1250617  28.3315929  75.2343297  70.0075332  27.9609863
  74.3770800  68.7722168  28.1370466  68.4753444  72.1781939  24.2636061
  67.5409722  72.2983401  24.0940766  68.6530112  71.2754405  23.9996071
  63.9758632  65.5627634  26.4169323  63.6056419  65.0098675  27.1050228
  64.4717724  64.9585768  25.8644323  71.8625995  68.0199258  24.7986095
  72.3286447  68.8527250  24.7246398  72.3133496  67.5544240  25.5031354
  61.8047830  76.0225130  33.5124340  62.5057290  76.6561612  33.6653735
  61.3342945  76.3639861  32.7519980  69.9302226  74.3643079  21.7972247
  70.2062070  74.2499674  22.7066122  69.0606725  73.9660564  21.7584421
  69.6049116  68.5769737  31.3376891  68.9520567  68.8245644  30.6829344
  69.9829496  67.7633875  31.0039368  66.5656290  78.6129430  25.4405061
  66.7478685  77.7951086  25.9032813  67.3889276  78.8297122  25.0029951
  66.8998456  77.5397615  22.7020110  67.4286222  77.0290070  22.0890272
  67.1626675  77.2240145  23.5665643  65.6536689  69.3189548  37.8242928
  64.9777326  69.2183677  38.4945303  66.4764323  69.1628762  38.2878925
  57.4015548  75.5561485  30.4455443  57.9868985  74.8105172  30.5783347
  57.2040387  75.8665441  31.3292107  60.2554204  78.5912732  25.4617886
  59.5864579  79.0758860  24.9781926  60.1167073  78.8381952  26.3761264
  51.9933203  68.1267085  29.1659886  52.0317303  67.5930675  29.9597004
  51.4873496  67.6002290  28.5470863  64.3959472  80.6256475  32.0600544
  64.9477780  80.7888097  32.8249629  64.7365666  81.2160913  31.3880569
  69.2470347  75.4517733  37.9149198  69.7910251  76.0647691  37.4204153
  68.6657191  76.0097311  38.4316211  55.6241781  66.8531187  22.2413818
  55.9195222  65.9441865  22.1880871  54.7229817  66.8318926  21.9194820
  67.5327860  78.5738451  29.0464226  67.4078999  77.7728191  28.5375172
  68.1906951  79.0684644  28.5578196  59.1536028  64.9287183  28.2241366
  58.4322614  65.5423151  28.0848840  59.9429284  65.4644948  28.1458012
  69.5962768  76.3747471  30.6743776  68.6493103  76.2552822  30.6022103
  69.9445541  75.4869969  30.7570038  57.3529622  64.5345285  22.3653143
  57.0242329  63.6542663  22.1828249  57.7068993  64.4792953  23.2529532
  66.6009201  76.1700187  26.8748128  66.4534164  75.2416895  27.0555698
  67.4262695  76.1920278  26.3905204  60.4671446  64.8218254  22.7328621
  60.8067518  65.3504176  22.0107229  60.9143566  65.1598660  23.5087187
  70.2043323  76.9928746  27.9613001  71.1289871  76.7871607  27.8237452
  70.0358626  76.7445147  28.8702343  62.4539593  63.3192876  20.9321913
  63.1747955  63.6974129  20.4285630  61.8304897  64.0381753  21.0356891
  66.5970716  64.0238025  21.8680246  66.8134330  64.9062663  21.5669074
  66.1164783  63.6324238  21.1385888  61.3369937  66.9823738  28.4450990
  61.1914518  67.2964041  29.3375272  60.8595141  67.6008638  27.8921889
  65.0492451  64.4063626  30.5385007  64.7910228  65.3280697  30.5369338
  64.5177491  64.0094061  31.2285471  69.9938639  77.5114413  23.3175093
  70.1675517  76.9460836  22.5648945  70.4867531  78.3115308  23.1354583
  55.8115599  69.5229083  31.3838651  55.2669067  70.2988891  31.5158926
  56.6894949  69.8699887  31.2257773  62.6003216  62.8540666  23.7619450
  62.7219127  61.9257313  23.9610337  62.3105258  62.8679352  22.8497765
  75.8478030  70.2750836  24.9365392  76.2909176  69.5258162  24.5384516
  74.9704541  70.2660973  24.5539124  70.9813812  76.8281178  20.4171991
  71.6764716  77.4487871  20.6359306  71.3236962  75.9776529  20.6924369
  56.5981621  68.6498979  34.2768808  55.8563357  68.7981614  34.8633439
  56.2774365  68.9107244  33.4135558  72.8805235  74.2780883  21.9459322
  73.4056559  74.6168156  21.2208642  72.7927587  73.3427899  21.7622456
  64.5425284  78.1914957  34.0749198  64.8512410  77.9464104  34.9471898
  65.3400766  78.3961596  33.5868068  64.5645896  80.3452867  26.3054575
  64.1250886  79.8529245  26.9987432  65.3154013  79.8025834  26.0646650
  57.0438235  76.5364408  26.3079203  57.8696255  76.2368179  25.9277846
  56.6932287  75.7672030  26.7568992  62.0119768  75.8890876  28.3776876
  61.3899777  75.2261581  28.0779104  62.6824635  75.9152008  27.6950524
  55.2446840  74.4550734  27.2668136  54.4078748  74.0272908  27.0852138
  55.2170485  74.6483177  28.2038928  72.5699141  74.9113787  37.2510520
  71.7794685  74.8937926  36.7115019  72.3332496  75.4502081  38.0059556
  72.6897016  71.7606253  34.5643248  72.7395021  71.5956261  35.5058771
  72.5810939  70.8933512  34.1741129  61.5733275  74.4394799  21.8535337
  61.7221395  75.1230264  21.2002010  62.3799718  74.4199889  22.3684793
  64.3143584  65.1204036  34.7255741  63.4446893  65.4137602  34.4538330
  64.5503064  65.7044481  35.4463005  74.1915213  74.1803195  34.8085270
  73.9000021  74.5433175  35.6448731  73.5787344  73.4670203  34.6298602
  75.3910895  71.7456075  27.3287840  76.2257787  72.1845879  27.4925400
  75.5270024  71.2694728  26.5096086  72.4402401  69.3035810  33.2765328
  72.9156523  69.4963456  32.4684179  71.5167966  69.3594995  33.0308711
  59.3285908  70.4659977  22.8596406  59.0831950  69.5622307  23.0576616
  59.4981822  70.4677127  21.9175884  58.5981555  66.1988334  20.3582567
  57.9050800  66.2732689  19.7022603  58.3533307  65.4348678  20.8804084
  65.0728680  76.9342930  19.3247084  64.5002647  77.5533117  18.8717556
  65.6461474  77.4842291  19.8587006  68.2925940  77.2180080  20.4555667
  69.2256613  77.1525641  20.6588542  68.2049153  78.0536347  19.9970199
  70.9213957  76.5345950  17.4159614  70.8427588  76.2005814  18.3095372
  71.7423623  77.0267718  17.4151087  73.6192148  69.4007689  30.6235933
  73.5868468  68.4623690  30.8095617  74.2292772  69.4791726  29.8901758
  65.4575479  68.2703742  16.6663137  66.4034583  68.1409950  16.7351555
  65.0789724  67.5318404  17.1432565  73.7686636  66.1918733  30.6694216
  73.2525685  65.4077189  30.4824145  74.6526585  65.8637449  30.8340736
  79.4368698  70.4623696  29.7641970  80.1672086  70.2008984  30.3249673
  78.8275643  69.7252418  29.8044038  77.5183995  68.6031559  30.3616421
  76.7917158  68.4687524  29.7532912  77.1031282  68.9108387  31.1673139
  65.3414171  72.3221488  38.1263794  66.2617181  72.5000087  38.3203840
  65.3063754  71.3777534  37.9743493  63.6418396  66.1953719  16.6018022
  62.7349851  65.8986831  16.6780736  63.9194377  65.8983537  15.7352308
  54.5596336  67.5160082  27.0517069  54.2399121  66.6625390  26.7591443
  54.0129764  67.7308660  27.8075036  58.3376244  70.2322523  30.7686575
  58.5562254  71.1639631  30.7874609  58.7502018  69.8730498  31.5541379
  62.4117180  63.0540654  16.7430001  63.2736344  63.3795552  17.0025819
  62.5967525  62.2672150  16.2303067  54.4284596  71.1362994  29.0210190
  53.7348068  70.7216946  28.5080145  55.1757587  71.1783530  28.4243609
  70.5649817  61.9269180  23.8865224  69.9848486  62.5853984  23.5043277
  70.2985750  61.1046525  23.4752642  63.0735379  69.2352868  38.9754386
  62.5902461  70.0353228  39.1818275  63.1596318  69.2460813  38.0221830
  56.3421339  71.0681247  26.8976205  56.3192027  71.1668935  25.9458088
  56.6521975  71.9146398  27.2193371  59.0008717  73.1257402  31.0122819
  59.9551970  73.0941345  30.9452751  58.8021240  72.6648026  31.8273045
  59.5908099  71.6958518  33.5793617  60.4100988  72.1902597  33.6028454
  59.8644906  70.7790487  33.5511185  69.3474695  64.0869271  22.9421573
  68.4600550  64.3718921  22.7241767  69.7628684  63.9263034  22.0948850
  72.6989231  64.1115792  26.6575912  73.4749621  64.6012244  26.9300529
  71.9737365  64.5373846  27.1147781  75.1361790  64.8243411  27.7149853
  75.7306281  64.5839147  27.0043161  75.2088373  64.1050542  28.3423389
  57.3558945  78.6677022  28.0293017  57.2213413  77.9077423  27.4631015
  56.9391008  79.3917922  27.5621806  68.4917908  73.8513945  17.0369593
  69.1953759  74.0563948  17.6527248  67.7680557  74.4190707  17.3018676
  69.3215719  69.6023807  23.1571863  69.2650920  70.0592358  22.3179495
  69.8744061  68.8414491  22.9794706  73.1320525  65.3913539  23.9821982
  72.8757459  64.9910174  24.8130190  72.5073393  66.1057333  23.8572121
  77.4432862  68.1309612  26.4893274  76.8832420  68.2002801  27.2624836
  76.8376366  67.9550596  25.7692770  60.5128071  79.5646339  28.2411460
  60.3960455  80.5091771  28.1390150  59.6920518  79.2619900  28.6297259
  70.4004606  74.2896475  19.0868053  71.2350210  73.8577673  18.9045527
  70.2388949  74.1178488  20.0144947  70.0550498  70.7928588  20.4524392
  69.9999302  70.6272859  19.5112836  69.4296553  71.5004621  20.6086582
  67.3696405  73.0977500  39.7777955  68.2387565  73.2718152  39.4164590
  66.8903157  73.9171917  39.6553684  63.3646624  60.2936697  20.0309710
  63.3525293  61.2378537  20.1877981  64.2570045  60.1106842  19.7369172
  61.5382585  80.2174601  31.4567388  62.4409832  80.2498211  31.7733883
  61.3119956  79.2875052  31.4713724  63.2936187  78.9705587  28.1177467
  62.3431818  78.9707449  28.0041839  63.5968674  78.2238322  27.6013502
  79.0288881  84.8066126  29.1823229  79.6667291  84.6872873  28.4786569
  78.9109724  85.7546970  29.2411182  75.8378587  84.7593554  29.1184754
  75.4997099  84.6434619  28.2305289  76.7068355  84.3584719  29.0985760
  71.6965403  86.6129030  25.1081645  71.1330268  86.5218967  24.3397933
  71.5817798  85.7928935  25.5884138  76.3198370  85.9128406  35.0770960
  76.3087011  85.5181204  34.2051463  76.4819010  85.1794478  35.6704731
  69.2429835  88.1080222  27.9465866  70.0351127  87.7671047  27.5312165
  69.4826485  88.2175197  28.8668019  77.2764962  90.2799998  20.4196110
  76.6252941  90.8654078  20.0330124  78.0709324  90.8106193  20.4791147
  71.2020589  87.3689135  20.8183244  71.9751465  86.8218122  20.6796120
  71.5545988  88.2333384  21.0297706  73.0405631  88.6965517  34.0250144
  72.7495497  89.6011148  33.9096810  73.6762616  88.7382045  34.7394213
  73.9661838  86.0742366  30.6151503  74.5625410  85.8498388  29.9008466
  74.0236810  85.3327111  31.2176951  73.5386867  83.5281801  18.4501694
  73.7912387  83.0063323  17.6885157  72.6011426  83.3647947  18.5528378
  78.5830149  82.5317580  26.2576437  79.3693239  82.1137003  25.9066854
  78.8468854  83.4363672  26.4258086  78.7540227  87.9690430  20.9565094
  78.1186060  88.0425056  21.6685999  78.4237633  88.5584029  20.2784174
  83.9838577  82.4692813  27.1609416  84.7163749  81.8992030  27.3947245
  83.2277932  82.0814413  27.6015922  73.2583155  85.4309907  20.6526069
  73.1419413  84.7554811  21.3207153  73.3685415  84.9442281  19.8358222
  75.6014696  84.8920054  24.3572758  75.2372904  84.3650675  25.0685680
  76.4581812  84.5018523  24.1839244  81.5063997  76.1814387  31.6204025
  81.1747322  77.0509798  31.3965240  80.9109610  75.8650671  32.2998055
  75.2420183  79.9209954  19.3534107  75.4094586  80.7890190  19.7204578
  75.0517352  80.0837236  18.4295396  77.9995516  88.3826933  31.0199937
  77.6996240  89.2851972  30.9115745  77.6546576  88.1159116  31.8721090
  71.4507998  84.8340730  27.0536642  70.5258494  84.7016944  27.2614333
  71.6992411  85.6134949  27.5506584  81.3992660  80.9009473  28.6997375
  80.4909538  80.8324882  28.4056136  81.3480256  81.3781418  29.5279200
  75.2209404  82.3767611  20.3380774  75.1009029  82.8224662  21.1766254
  74.5261993  82.7252929  19.7794312  68.8116809  84.4774003  27.8880431
  68.9409190  84.7308482  28.8019843  68.1314260  85.0701711  27.5685086
  72.9816296  95.1471253  23.9870905  72.9040326  96.0979078  24.0659386
  72.3777940  94.8017126  24.6445831  75.4733526  82.3199119  36.6432272
  74.6966860  82.8793039  36.6335137  76.1124089  82.8055902  37.1647142
  83.2654307  79.1025911  30.4775249  82.6228687  79.3958445  29.8315043
  82.7609235  78.9878832  31.2828445  80.9194470  82.8489085  21.1661108
  81.8312326  83.0816471  20.9908805  80.4104117  83.4326129  20.6036186
  73.7279898  85.1284572  36.2050239  74.4694583  85.6669616  35.9285063
  73.0216884  85.7550861  36.3621791  79.2035238  87.2713712  34.8022400
  79.6118594  86.8296123  34.0577033  78.4812499  86.6966340  35.0556593
  75.5566308  82.2086319  32.1755957  76.4027503  82.6325733  32.3190606
  75.4964946  81.5519944  32.8694520  79.5264053  87.8314903  28.5574689
  78.8972915  87.9960617  27.8550757  79.1389715  88.2456513  29.3285653
  83.4053285  88.7669341  25.9119053  82.7204323  89.1468242  25.3616086
  83.4897134  89.3764668  26.6451001  78.7065753  79.8690688  33.8337131
  78.4626685  80.6232748  33.2971407  78.9825684  80.2476035  34.6684378
  80.6604216  86.4129300  32.5114397  80.8721111  87.0561060  31.8348778
  80.6133964  85.5791617  32.0436327  78.2630445  79.0247121  29.4150969
  77.4014924  79.3228374  29.7067706  78.2892880  79.2417520  28.4832001
  75.0792014  87.5689311  25.8224774  75.5430360  87.8477014  25.0329397
  74.8148813  86.6672756  25.6397865  71.9716096  87.1160793  28.7604538
  72.5417453  87.5448061  28.1222022  72.5624207  86.8343377  29.4588723
  74.0160901  83.6912464  22.6314340  74.7184944  84.1433507  23.0988266
  73.6841529  83.0496282  23.2594233  72.4641262  82.2824220  37.0065549
  71.8339923  82.9640501  37.2400946  72.3577350  82.1707302  36.0618687
  67.7586234  81.9496016  27.9331473  66.9685288  82.2053545  27.4571584
  68.2497482  82.7644354  28.0383514  81.7750044  89.2901255  30.6836754
  82.5967488  88.8881443  30.4019436  81.7712447  89.1869490  31.6352870
  69.7100980  82.3140595  24.8914950  68.9132143  82.4259290  25.4098445
  69.4826572  82.6527248  24.0255840  75.5406648  88.8385299  32.8397464
  75.6051080  89.3005706  33.6755636  74.8317571  88.2082664  32.9679774
  66.0423937  82.2026507  30.3646464  66.2931976  83.0873517  30.6304040
  66.5783486  82.0231108  29.5921556  89.8656037  85.6340004  27.0321725
  89.1119745  85.0647402  26.8765730  90.0003578  85.6002668  27.9792360
  75.2554665  90.5053406  22.7076445  75.1200340  91.3504942  23.1361293
  75.7964478  90.7072684  21.9442379  71.7422005  76.5844986  39.3690800
  71.3488950  76.0311185  40.0438444  72.5588145  76.8955565  39.7597317
  68.7084063  88.0228844  23.2804370  69.2208583  88.8172094  23.4309934
  69.3606775  87.3255135  23.2137971  70.5178947  91.1394601  25.3627123
  70.6945576  92.0612565  25.1748107  71.3135781  90.8253020  25.7921503
  74.6589966  78.0002865  36.9611057  75.3999679  78.6010018  36.8815519
  74.8907889  77.2580503  36.4029099  69.8031304  83.1859232  35.2389286
  69.6884819  82.2844490  35.5396385  68.9475822  83.4322929  34.8874103
  76.8823142  91.1276973  36.8376787  76.4386996  90.3413351  36.5197691
  77.5440355  91.3156123  36.1720678  71.6410263  92.6572774  31.3637465
  72.1917688  92.5289838  30.5914459  70.8021739  92.9567663  31.0132358
  78.9804380  91.4079773  34.8658188  78.9622855  92.2288654  34.3738457
  79.9024300  91.2833848  35.0908329  75.4377434  88.9223902  35.7081696
  75.9705771  88.1612190  35.4781004  74.9091515  88.6297554  36.4505851
  78.6047129  74.0283968  31.2375338  78.2611398  74.9185610  31.1614449
  78.9726091  73.8385626  30.3744923  66.6732979  86.3517499  24.0563940
  67.5108201  86.7614507  23.8397648  66.8511247  85.4116941  24.0264134
  78.5697411  84.0192579  19.7447773  78.0544035  84.7897184  19.9836161
  78.2974720  83.3457715  20.3680835  76.1544522  78.8642280  24.8033012
  75.2986119  78.4749130  24.6238650  76.5671474  78.9434241  23.9432797
  77.6843669  76.3988623  29.2024571  77.1808465  76.3618758  28.3892377
  77.9774276  77.3081366  29.2621228  73.9286555  76.4827353  28.2090753
  74.7939552  76.2870162  27.8496643  73.9964064  76.2537705  29.1360110
  83.5431686  86.7724934  21.6800947  82.7661128  86.4336093  21.2356109
  84.2223167  86.7777557  21.0055912  78.3583715  81.8919671  21.5707554
  78.0533850  82.2065820  22.4217698  79.3114157  81.9701091  21.6134887
  76.8030146  88.0509895  23.2200508  76.2751508  87.3162654  22.9073746
  76.3017649  88.8284571  22.9740477  81.7822992  86.2458915  28.3367555
  81.1246667  86.9358176  28.4247683  82.5863392  86.6355347  28.6801541
  71.5348874  78.7129561  25.5807120  72.1092626  78.4904742  24.8480313
  72.1219857  78.7818255  26.3335721  80.5928451  84.6003288  26.3871497
  81.1060333  85.2333280  26.8893206  81.2429675  84.0004483  26.0214857
  71.8618461  80.7434022  19.6003005  71.0255773  81.0808708  19.9212280
  71.7223231  80.6083002  18.6630142  73.8371542  75.5870810  24.3082189
  73.1835954  75.2719827  23.6838804  73.7952016  74.9646550  25.0342012
  74.9482747  85.8690105  16.2235481  74.0409808  85.6379358  16.4226630
  75.4453779  85.0727724  16.4109463  77.0709282  82.0752743  28.6329837
  76.1531844  82.2967690  28.4751525  77.4869426  82.1499054  27.7741544
  77.8544330  83.4744159  23.7632517  78.6016149  83.9865556  23.4539639
  78.1235919  83.1528212  24.6236911  76.1270980  85.9702700  20.7459472
  75.2182199  85.6861733  20.8431941  76.1566064  86.3901778  19.8862778
  81.3590248  89.5809289  24.5150639  80.9052575  88.7400199  24.5715830
  80.7284214  90.2170688  24.8525419  80.3023167  80.5101275  25.7451307
  79.5645924  79.9978661  26.0761549  80.5549941  80.0701657  24.9334583
  79.8023187  91.4185786  25.4500457  80.0946161  91.9790843  24.7312823
  80.3121807  91.7114347  26.2053616  80.4034794  73.2877527  26.3393076
  80.7093671  72.4274891  26.0518991  81.1287399  73.8795147  26.1392070
  66.6959150  83.6908214  24.7274674  66.4983550  83.0977575  24.0025740
  66.1405814  83.3860424  25.4450613  74.6755874  83.5831320  26.8469267
  74.7304484  82.6305157  26.7711744  73.8647076  83.7390759  27.3310565
  75.8247068  87.5111443  18.0847550  75.3866498  86.7947302  17.6253188
  76.5657509  87.7387558  17.5232642  72.6148234  82.2008380  24.6059646
  71.8016100  82.5002551  25.0124838  73.1107228  81.8064069  25.3234128
  74.7656812  92.1966137  26.5393910  74.7232991  92.4226983  25.6102443
  75.6819511  91.9629512  26.6879712  78.2122446  82.6650205  33.4374540
  78.5671833  82.8921678  34.2969005  78.8594577  82.9968581  32.8151795
  83.9420183  85.7868640  24.1423869  83.8038081  85.9770236  23.2145058
  83.5856401  86.5488023  24.5991920  72.1062309  79.7726736  30.2220881
  72.7461688  79.6315495  29.5243844  71.2739839  79.4861249  29.8459483
  83.9689562  87.8545167  29.1535140  84.4026069  87.7620457  30.0018194
  84.6821143  87.8302668  28.5155156  72.8822613  89.0729166  26.3355873
  73.6763211  88.5779486  26.1338448  72.1714305  88.5447029  25.9723579
  77.7017457  91.4547262  30.6868241  77.7554479  92.0238198  31.4545957
  76.8332239  91.6249147  30.3222278  69.1905376  83.2172248  22.4115626
  68.2602964  83.1556703  22.6285588  69.2862848  82.6948201  21.6152267
  69.1090925  79.7427061  24.9993868  69.3697743  80.6572394  24.8903028
  69.9308098  79.2751503  25.1490480  70.5815851  81.1564818  32.1692692
  71.2538904  80.9482180  31.5205341  69.7545637  80.9586904  31.7297924
  84.8305112  87.8968868  31.6868026  85.0241002  88.8014679  31.9327301
  84.7305730  87.4376287  32.5206611  76.4841423  77.7826759  34.1858353
  75.8369338  78.4816708  34.0922829  77.2542438  78.2162903  34.5534601
  79.8920221  88.0475611  37.2608906  79.7405727  87.8186163  36.3438990
  79.8824900  89.0046212  37.2740251  76.6605557  85.6207524  32.2455173
  77.5897617  85.7718683  32.0724140  76.2396587  85.7091544  31.3903819
  75.4593889  89.6458188  30.0153710  75.3204974  89.2776972  30.8879648
  74.6708485  90.1605827  29.8437668  76.0542041  94.7467284  21.3579247
  76.2293796  94.2755328  22.1724870  75.3674829  95.3733051  21.5860508
  77.0099104  89.0239791  27.4042548  76.6748936  88.9840561  28.3000198
  76.5103050  88.3584507  26.9312958  70.9843348  84.4307421  32.9295129
  70.8463146  83.6987660  33.5306668  71.8948271  84.3416321  32.6479317
  73.6125648  84.1427380  32.4178809  74.3225267  83.5020572  32.3765427
  73.5694957  84.3940275  33.3404990  81.6012427  91.0794733  35.3385388
  81.5424973  90.3953954  34.6715971  82.0031946  91.8213723  34.8866014
  72.3254582  81.1292598  34.2374448  71.7891939  80.6783336  34.8896045
  71.7371291  81.2638507  33.4944913  70.6203126  97.8956647  28.1319107
  70.8599724  98.5275171  28.8098126  69.7772322  97.5444687  28.4184466
  71.7356841  80.5881249  16.8000912  70.8586308  80.4670050  16.4363159
  72.2114594  79.7967328  16.5479801  81.6029834  89.0434317  33.5699368
  80.7156613  88.7060239  33.6925767  82.1728385  88.3117349  33.8068133
  63.2558982  85.3758409  26.8942419  63.9430021  85.0620139  26.3063434
  63.1007110  86.2799774  26.6209671  68.0593704  80.2648606  31.3227443
  67.9751892  79.6574275  30.5877853  67.2376410  80.7557624  31.3236939
  75.1330988  93.7035770  30.5360611  75.0601159  94.5090741  31.0479916
  74.6908381  93.9027736  29.7108632  74.9220767  92.9407540  24.0463433
  74.1388289  93.4829220  24.1401657  75.6213513  93.4581519  24.4457674
  78.2317418  78.7502169  26.6897638  78.7286117  77.9972132  26.3698708
  77.4604399  78.7866486  26.1240847  86.0847175  84.4542535  28.3315929
  86.0737051  85.3367250  27.9609863  85.2164554  84.1014086  28.1370466
  77.5929671  93.6022604  32.6918770  78.3057644  94.2370069  32.6194671
  77.1019700  93.6986470  31.8758771  79.3147198  87.5073856  24.2636061
  78.3803477  87.6275319  24.0940766  79.4923867  86.6046323  23.9996071
  74.8152386  80.8919552  26.4169323  74.4450174  80.3390593  27.1050228
  75.3111479  80.2877686  25.8644323  82.7019750  83.3491176  24.7986095
  83.1680202  84.1819167  24.7246398  83.1527250  82.8836157  25.5031354
  72.6441585  91.3517047  33.5124340  73.3451044  91.9853530  33.6653735
  72.1736700  91.6931779  32.7519980  80.7695981  89.6934997  21.7972247
  81.0455825  89.5791592  22.7066122  79.9000479  89.2952482  21.7584421
  80.6736412  75.7171763  28.8376997  79.7599492  75.9475990  29.0059204
  81.1029514  75.8010207  29.6891029  80.4442871  83.9061655  31.3376891
  79.7914321  84.1537562  30.6829344  80.8223251  83.0925793  31.0039368
  77.4050045  93.9421348  25.4405061  77.5872439  93.1243004  25.9032813
  78.2283031  94.1589040  25.0029951  77.7392210  92.8689533  22.7020110
  78.2679977  92.3581988  22.0890272  78.0020430  92.5532063  23.5665643
  76.4930444  84.6481466  37.8242928  75.8171081  84.5475595  38.4945303
  77.3158078  84.4920679  38.2878925  68.2409303  90.8853402  30.4455443
  68.8262740  90.1397090  30.5783347  68.0434141  91.1957359  31.3292107
  71.0947958  93.9204650  25.4617886  70.4258333  94.4050777  24.9781926
  70.9560828  94.1673870  26.3761264  62.8326958  83.4559002  29.1659886
  62.8711057  82.9222593  29.9597004  62.3267250  82.9294208  28.5470863
  75.2353227  95.9548393  32.0600544  75.7871535  96.1180015  32.8249629
  75.5759420  96.5452831  31.3880569  70.2117720  78.3023543  32.6622429
  70.2759046  79.1638374  32.2499826  70.1484840  77.6897545  31.9294787
  69.6869992  80.3746675  36.3095463  70.3142031  79.9923753  36.9232987
  68.8297911  80.1560877  36.6751155  80.0864101  90.7809651  37.9149198
  80.6304005  91.3939609  37.4204153  79.5050946  91.3389229  38.4316211
  66.4635535  82.1823105  22.2413818  66.7588976  81.2733783  22.1880871
  65.5623571  82.1610844  21.9194820  78.3721614  93.9030369  29.0464226
  78.2472753  93.1020109  28.5375172  79.0300705  94.3976562  28.5578196
  69.9929782  80.2579101  28.2241366  69.2716368  80.8715069  28.0848840
  70.7823038  80.7936866  28.1458012  80.4356522  91.7039389  30.6743776
  79.4886858  91.5844740  30.6022103  80.7839296  90.8161887  30.7570038
  72.7956096  77.5933528  34.4982018  73.3190498  77.8395824  35.2608327
  72.5768429  78.4253562  34.0785155  68.1923377  79.8637202  22.3653143
  67.8636083  78.9834581  22.1828249  68.5462748  79.8084871  23.2529532
  77.4402956  91.4992105  26.8748128  77.2927918  90.5708812  27.0555698
  78.2656449  91.5212196  26.3905204  71.3065200  80.1510172  22.7328621
  71.6461273  80.6796093  22.0107229  71.7537320  80.4890578  23.5087187
  81.0437078  92.3220664  27.9613001  81.9683625  92.1163525  27.8237452
  80.8752381  92.0737065  28.8702343  74.0008641  78.5347223  32.1831689
  73.6605461  77.7355036  32.5852368  73.2947647  78.8348934  31.6108522
  74.6525113  75.6196535  30.6359012  75.4751182  75.1457013  30.5137902
  74.8963176  76.3987019  31.1357698  73.2933347  78.6484794  20.9321913
  74.0141710  79.0266046  20.4285630  72.6698651  79.3673670  21.0356891
  77.4364470  79.3529943  21.8680246  77.6528084  80.2354580  21.5669074
  76.9558537  78.9616156  21.1385888  72.1763691  82.3115656  28.4450990
  72.0308272  82.6255959  29.3375272  71.6988895  82.9300556  27.8921889
  74.0360074  79.3018204  28.4931880  74.0221643  78.4059297  28.1564178
  74.7532502  79.3088868  29.1270166  75.8886205  79.7355544  30.5385007
  75.6303983  80.6572615  30.5369338  75.3571245  79.3385979  31.2285471
  80.8332394  92.8406331  23.3175093  81.0069271  92.2752754  22.5648945
  81.3261285  93.6407226  23.1354583  66.6509354  84.8521000  31.3838651
  66.1062822  85.6280808  31.5158926  67.5288703  85.1991805  31.2257773
  73.4396970  78.1832584  23.7619450  73.5612881  77.2549230  23.9610337
  73.1499013  78.1971270  22.8497765  76.3088161  75.8687495  26.8986170
  76.3309857  75.9326828  25.9438149  76.7256220  75.0292003  27.0926676
  86.6871785  85.6042754  24.9365392  87.1302931  84.8550079  24.5384516
  85.8098295  85.5952890  24.5539124  67.4375375  83.9790897  34.2768808
  66.6957111  84.1273532  34.8633439  67.1168120  84.2399162  33.4135558
  83.7198989  89.6072801  21.9459322  84.2450313  89.9460074  21.2208642
  83.6321342  88.6719816  21.7622456  75.3819038  93.5206875  34.0749198
  75.6906165  93.2756021  34.9471898  76.1794520  93.7253513  33.5868068
  75.4039650  95.6744784  26.3054575  74.9644640  95.1821163  26.9987432
  76.1547767  95.1317752  26.0646650  67.8831989  91.8656325  26.3079203
  68.7090009  91.5660097  25.9277846  67.5326041  91.0963948  26.7568992
  72.8513522  91.2182793  28.3776876  72.2293532  90.5553498  28.0779104
  73.5218389  91.2443925  27.6950524  66.0840594  89.7842652  27.2668136
  65.2472502  89.3564826  27.0852138  66.0564240  89.9775095  28.2038928
  72.9238050  79.6964581  37.9709383  72.9726205  80.5726704  37.5887152
  73.4660564  79.1541975  37.3981026  83.4092895  90.2405705  37.2510520
  82.6188439  90.2229844  36.7115019  83.1726250  90.7793998  38.0059556
  83.5290770  87.0898171  34.5643248  83.5788775  86.9248179  35.5058771
  83.4204694  86.2225430  34.1741129  72.4127029  89.7686717  21.8535337
  72.5615150  90.4522181  21.2002010  73.2193473  89.7491807  22.3684793
  80.8194533  83.0729099  35.8802555  81.7204396  82.9335564  35.5886553
  80.8942507  83.2383554  36.8200732  75.1537338  80.4495954  34.7255741
  74.2840648  80.7429520  34.4538330  75.3896819  81.0336399  35.4463005
  85.0308967  89.5095113  34.8085270  84.7393776  89.8725093  35.6448731
  84.4181099  88.7962121  34.6298602  86.2304650  87.0747992  27.3287840
  87.0651541  87.5137796  27.4925400  86.3663778  86.5986646  26.5096086
  83.2796156  84.6327727  33.2765328  83.7550277  84.8255374  32.4684179
  82.3561721  84.6886913  33.0308711  70.1679662  85.7951894  22.8596406
  69.9225704  84.8914224  23.0576616  70.3375577  85.7969045  21.9175884
  77.8576372  76.6675571  32.2421162  78.3758316  77.4036598  31.9167650
  77.5031505  76.9739564  33.0767921  69.4375310  81.5280252  20.3582567
  68.7444555  81.6024607  19.7022603  69.1927062  80.7640596  20.8804084
  78.1088966  73.0875853  27.7622058  78.3890720  72.4199042  28.3882485
  78.8939573  73.2804949  27.2496722  81.9797825  81.5093487  31.5093633
  82.9315247  81.6091585  31.5305857  81.8101275  80.7171756  32.0191718
  80.0012204  78.5949071  31.6953034  79.4062136  78.8754083  30.9999523
  79.7161901  79.0842971  32.4669775  84.4585902  84.7299607  30.6235933
  84.4262222  83.7915608  30.8095617  85.0686526  84.8083644  29.8901758
  76.2969233  83.5995660  16.6663137  77.2428338  83.4701868  16.7351555
  75.9183478  82.8610322  17.1432565  84.6080391  81.5210650  30.6694216
  84.0919439  80.7369107  30.4824145  85.4920339  81.1929367  30.8340736
  82.2691118  75.2651666  26.6290029  82.0715939  74.9566754  27.5133361
  82.8790823  75.9913305  26.7587959  90.2762452  85.7915614  29.7641970
  91.0065841  85.5300902  30.3249673  89.6669398  85.0544336  29.8044038
  88.3577749  83.9323476  30.3616421  87.6310913  83.7979441  29.7532912
  87.9425036  84.2400305  31.1673139  76.1807926  87.6513406  38.1263794
  77.1010935  87.8292005  38.3203840  76.1457509  86.7069451  37.9743493
  74.4812150  81.5245636  16.6018022  73.5743606  81.2278749  16.6780736
  74.7588131  81.2275454  15.7352308  65.3990091  82.8452000  27.0517069
  65.0792875  81.9917308  26.7591443  64.8523519  83.0600578  27.8075036
  69.1769998  85.5614441  30.7686575  69.3956008  86.4931549  30.7874609
  69.5895772  85.2022415  31.5541379  76.0974216  76.0682526  22.7562263
  75.2874944  75.7229611  23.1317510  76.7858633  75.7590070  23.3449875
  78.0264764  75.1460573  24.3786560  78.5795803  75.5656026  25.0376583
  78.2634851  74.2196321  24.4209516  74.0497864  81.1347647  40.1589324
  73.9494590  82.0842004  40.0901415  73.8319406  80.8065885  39.2865394
  73.2510935  78.3832572  16.7430001  74.1130099  78.7087470  17.0025819
  73.4361279  77.5964067  16.2303067  65.2678351  86.4654911  29.0210190
  64.5741822  86.0508864  28.5080145  66.0151342  86.5075448  28.4243609
  81.4043571  77.2561098  23.8865224  80.8242241  77.9145902  23.5043277
  81.1379504  76.4338443  23.4752642  79.8547138  76.6566156  26.0886545
  80.3546916  76.7682690  25.2800864  80.4982746  76.3527209  26.7287353
  73.9129134  84.5644785  38.9754386  73.4296215  85.3645145  39.1818275
  73.9990073  84.5752730  38.0221830  67.1815093  86.3973165  26.8976205
  67.1585781  86.4960852  25.9458088  67.4915730  87.2438316  27.2193371
  69.8402471  88.4549320  31.0122819  70.7945725  88.4233262  30.9452751
  69.6414995  87.9939944  31.8273045  70.4301853  87.0250436  33.5793617
  71.2494742  87.5194515  33.6028454  70.7038661  86.1082404  33.5511185
  80.1868449  79.4161188  22.9421573  79.2994305  79.7010839  22.7241767
  80.6022439  79.2554952  22.0948850  83.5382986  79.4407709  26.6575912
  84.3143376  79.9304162  26.9300529  82.8131120  79.8665764  27.1147781
  85.9755544  80.1535329  27.7149853  86.5700035  79.9131065  27.0043161
  86.0482128  79.4342459  28.3423389  68.1952700  93.9968940  28.0293017
  68.0607168  93.2369340  27.4631015  67.7784762  94.7209839  27.5621806
  80.1609473  84.9315724  23.1571863  80.1044675  85.3884276  22.3179495
  80.7137816  84.1706409  22.9794706  83.9714279  80.7205456  23.9821982
  83.7151213  80.3202092  24.8130190  83.3467147  81.4349250  23.8572121
  88.2826617  83.4601529  26.4893274  87.7226175  83.5294719  27.2624836
  87.6770120  83.2842514  25.7692770  71.3521826  94.8938257  28.2411460
  71.2354210  95.8383689  28.1390150  70.5314272  94.5911818  28.6297259
  80.8944253  86.1220506  20.4524392  80.8393056  85.9564777  19.5112836
  80.2690308  86.8296539  20.6086582  65.6836768  81.3588570  34.2785814
  66.3295631  80.8487524  34.7673039  65.4753919  82.0957252  34.8529239
  78.2090160  88.4269417  39.7777955  79.0781319  88.6010070  39.4164590
  77.7296911  89.2463834  39.6553684  74.2040378  75.6228615  20.0309710
  74.1919048  76.5670455  20.1877981  75.0963800  75.4398760  19.7369172
  72.3776340  95.5466518  31.4567388  73.2803587  95.5790129  31.7733883
  72.1513710  94.6166969  31.4713724  74.1329942  94.2997505  28.1177467
  73.1825573  94.2999367  28.0041839  74.4362428  93.5530240  27.6013502
  78.0192497  72.2171391  24.2855647  77.2524893  71.6629878  24.4312330
  78.4303202  72.2893260  25.1469799  70.0234259  78.5056187  38.3760828
  70.8865720  78.1492992  38.5864153  69.4499669  78.1670082  39.0636233
  86.6772342 100.0885472  29.1184754  86.3390853  99.9726536  28.2305289
  87.5462110  99.6876637  29.0985760  87.1592125 101.2420323  35.0770960
  87.1480765 100.8473122  34.2051463  87.3212764 100.5086396  35.6704731
  80.0823589 103.4372140  27.9465866  80.8744881 103.0962964  27.5312165
  80.3220240 103.5467115  28.8668019  83.8799386 104.0257435  34.0250144
  83.5889252 104.9303066  33.9096810  84.5156370 104.0673963  34.7394213
  84.8055593 101.4034284  30.6151503  85.4019165 101.1790306  29.9008466
  84.8630564 100.6619029  31.2176951  92.3457751  91.5106305  31.6204025
  92.0141076  92.3801716  31.3965240  91.7503365  91.1942589  32.2998055
  82.2901752 100.1632647  27.0536642  81.3652249 100.0308862  27.2614333
  82.5386166 100.9426867  27.5506584  92.2386415  96.2301391  28.6997375
  91.3303292  96.1616799  28.4056136  92.1874011  96.7073336  29.5279200
  79.6510563  99.8065921  27.8880431  79.7802945 100.0600400  28.8019843
  78.9708015 100.3993629  27.5685086  86.3127280  97.6491036  36.6432272
  85.5360615  98.2084956  36.6335137  86.9517844  98.1347819  37.1647142
  94.1048061  94.4317829  30.4775249  93.4622441  94.7250362  29.8315043
  93.6002990  94.3170749  31.2828445  84.5673653 100.4576490  36.2050239
  85.3088337 100.9961534  35.9285063  83.8610638 101.0842778  36.3621791
  90.0428992 102.6005630  34.8022400  90.4512348 102.1588041  34.0577033
  89.3206254 102.0258258  35.0556593  86.3960062  97.5378237  32.1755957
  87.2421258  97.9617650  32.3190606  86.3358700  96.8811861  32.8694520
  89.5459508  95.1982605  33.8337131  89.3020440  95.9524666  33.2971407
  89.8219438  95.5767953  34.6684378  91.4997971 101.7421218  32.5114397
  91.7114866 102.3852978  31.8348778  91.4527719 100.9083534  32.0436327
  89.1024200  94.3539038  29.4150969  88.2408679  94.6520292  29.7067706
  89.1286634  94.5709437  28.4832001  83.3035017  97.6116138  37.0065549
  82.6733677  98.2932419  37.2400946  83.1971104  97.4999219  36.0618687
  78.5979989  97.2787934  27.9331473  77.8079043  97.5345462  27.4571584
  79.0891236  98.0936272  28.0383514  86.3800402 104.1677216  32.8397464
  86.4444835 104.6297624  33.6755636  85.6711326 103.5374581  32.9679774
  76.8817692  97.5318424  30.3646464  77.1325730  98.4165434  30.6304040
  77.4177240  97.3523026  29.5921556  82.5815759  91.9136904  39.3690800
  82.1882705  91.3603102  40.0438444  83.3981900  92.2247482  39.7597317
  85.4983720  93.3294783  36.9611057  86.2393434  93.9301936  36.8815519
  85.7301643  92.5872421  36.4029099  80.6425058  98.5151150  35.2389286
  80.5278573  97.6136407  35.5396385  79.7869576  98.7614847  34.8874103
  86.2771188 104.2515820  35.7081696  86.8099525 103.4904108  35.4781004
  85.7485269 103.9589472  36.4505851  89.4440883  89.3575886  31.2375338
  89.1005153  90.2477527  31.1614449  89.8119846  89.1677543  30.3744923
  88.5237424  91.7280541  29.2024571  88.0202219  91.6910676  28.3892377
  88.8168030  92.6373284  29.2621228  84.7680309  91.8119271  28.2090753
  85.6333306  91.6162079  27.8496643  84.8357818  91.5829622  29.1360110
  82.3742629  94.0421479  25.5807120  82.9486380  93.8196660  24.8480313
  82.9613611  94.1110173  26.3335721  84.6765296  90.9162727  24.3082189
  84.0229709  90.6011745  23.6838804  84.6345770  90.2938468  25.0342012
  87.9103037  97.4044661  28.6329837  86.9925598  97.6259608  28.4751525
  88.3263180  97.4790971  27.7741544  91.2428549  88.6169445  26.3393076
  91.5487426  87.7566808  26.0518991  91.9681154  89.2087065  26.1392070
  77.5352905  99.0200132  24.7274674  77.3377305  98.4269492  24.0025740
  76.9799569  98.7152342  25.4450613  85.5149629  98.9123238  26.8469267
  85.5698238  97.9597074  26.7711744  84.7040831  99.0682677  27.3310565
  89.0516200  97.9942122  33.4374540  89.4065588  98.2213595  34.2969005
  89.6988331  98.3260499  32.8151795  82.9456063  95.1018653  30.2220881
  83.5855443  94.9607412  29.5243844  82.1133594  94.8153167  29.8459483
  79.9484680  95.0718978  24.9993868  80.2091497  95.9864312  24.8903028
  80.7701852  94.6043421  25.1490480  81.4209605  96.4856735  32.1692692
  82.0932658  96.2774098  31.5205341  80.5939392  96.2878821  31.7297924
  87.3235177  93.1118676  34.1858353  86.6763092  93.8108626  34.0922829
  88.0936192  93.5454820  34.5534601  90.7313975 103.3767529  37.2608906
  90.5799481 103.1478080  36.3438990  90.7218654 104.3338130  37.2740251
  87.4999311 100.9499441  32.2455173  88.4291371 101.1010601  32.0724140
  87.0790341 101.0383462  31.3903819  81.8237102  99.7599338  32.9295129
  81.6856900  99.0279577  33.5306668  82.7342026  99.6708239  32.6479317
  84.4519403  99.4719298  32.4178809  85.1619021  98.8312490  32.3765427
  84.4088711  99.7232193  33.3404990  83.1648337  96.4584516  34.2374448
  82.6285694  96.0075254  34.8896045  82.5765045  96.5930424  33.4944913
  74.0952736 100.7050327  26.8942419  74.7823776 100.3912057  26.3063434
  73.9400865 101.6091691  26.6209671  78.8987458  95.5940523  31.3227443
  78.8145647  94.9866193  30.5877853  78.0770165  96.0849542  31.3236939
  89.0711172  94.0794087  26.6897638  89.5679872  93.3264049  26.3698708
  88.2998154  94.1158404  26.1240847  85.6546141  96.2211470  26.4169323
  85.2843928  95.6682510  27.1050228  86.1505233  95.6169603  25.8644323
  83.4835339 106.6808965  33.5124340  84.1844799 107.3145448  33.6653735
  83.0130454 107.0223696  32.7519980  91.5130167  91.0463680  28.8376997
  90.5993247  91.2767907  29.0059204  91.9423268  91.1302124  29.6891029
  91.2836625  99.2353572  31.3376891  90.6308076  99.4829480  30.6829344
  91.6617005  98.4217710  31.0039368  87.3324198  99.9773383  37.8242928
  86.6564835  99.8767513  38.4945303  88.1551832  99.8212597  38.2878925
  79.0803057 106.2145320  30.4455443  79.6656494 105.4689008  30.5783347
  78.8827896 106.5249277  31.3292107  73.6720712  98.7850920  29.1659886
  73.7104812  98.2514511  29.9597004  73.1661005  98.2586126  28.5470863
  81.0511474  93.6315461  32.6622429  81.1152801  94.4930292  32.2499826
  80.9878595  93.0189462  31.9294787  80.5263747  95.7038593  36.3095463
  81.1535786  95.3215670  36.9232987  79.6691666  95.4852795  36.6751155
  80.8323537  95.5871019  28.2241366  80.1110123  96.2006987  28.0848840
  81.6216793  96.1228784  28.1458012  83.6349850  92.9225445  34.4982018
  84.1584252  93.1687742  35.2608327  83.4162184  93.7545480  34.0785155
  79.0317131  95.1929120  22.3653143  78.7029837  94.3126499  22.1828249
  79.3856502  95.1376789  23.2529532  84.8402395  93.8639140  32.1831689
  84.4999216  93.0646954  32.5852368  84.1341402  94.1640851  31.6108522
  85.4918867  90.9488453  30.6359012  86.3144936  90.4748931  30.5137902
  85.7356931  91.7278937  31.1357698  83.0157446  97.6407574  28.4450990
  82.8702027  97.9547877  29.3375272  82.5382650  98.2592474  27.8921889
  84.8753829  94.6310122  28.4931880  84.8615398  93.7351215  28.1564178
  85.5926257  94.6380785  29.1270166  86.7279959  95.0647462  30.5385007
  86.4697737  95.9864532  30.5369338  86.1965000  94.6677896  31.2285471
  77.4903108 100.1812918  31.3838651  76.9456576 100.9572726  31.5158926
  78.3682458 100.5283722  31.2257773  87.1481915  91.1979412  26.8986170
  87.1703612  91.2618745  25.9438149  87.5649974  90.3583921  27.0926676
  78.2769130  99.3082814  34.2768808  77.5350866  99.4565450  34.8633439
  77.9561874  99.5691080  33.4135558  76.9234349 105.1134569  27.2668136
  76.0866257 104.6856744  27.0852138  76.8957994 105.3067013  28.2038928
  83.7631804  95.0256499  37.9709383  83.8119960  95.9018622  37.5887152
  84.3054318  94.4833892  37.3981026  91.6588287  98.4021017  35.8802555
  92.5598150  98.2627482  35.5886553  91.7336262  98.5675472  36.8200732
  85.9931093  95.7787872  34.7255741  85.1234402  96.0721438  34.4538330
  86.2290573  96.3628317  35.4463005  94.1189910  99.9619645  33.2765328
  94.5944032 100.1547291  32.4684179  93.1955475 100.0178831  33.0308711
  88.6970127  91.9967488  32.2421162  89.2152070  92.7328515  31.9167650
  88.3425259  92.3031482  33.0767921  88.9482721  88.4167771  27.7622058
  89.2284474  87.7490960  28.3882485  89.7333328  88.6096867  27.2496722
  92.8191579  96.8385405  31.5093633  93.7709002  96.9383503  31.5305857
  92.6495029  96.0463674  32.0191718  90.8405959  93.9240988  31.6953034
  90.2455891  94.2046001  30.9999523  90.5555655  94.4134889  32.4669775
  95.4474145  96.8502568  30.6694216  94.9313194  96.0661025  30.4824145
  96.3314094  96.5221285  30.8340736  93.1084872  90.5943584  26.6290029
  92.9109693  90.2858672  27.5133361  93.7184578  91.3205223  26.7587959
  87.0201680 102.9805324  38.1263794  87.9404690 103.1583923  38.3203840
  86.9851263 102.0361369  37.9743493  76.2383845  98.1743917  27.0517069
  75.9186630  97.3209226  26.7591443  75.6917273  98.3892496  27.8075036
  80.0163753 100.8906358  30.7686575  80.2349763 101.8223466  30.7874609
  80.4289527 100.5314333  31.5541379  88.8658519  90.4752491  24.3786560
  89.4189557  90.8947944  25.0376583  89.1028605  89.5488239  24.4209516
  84.8891618  96.4639564  40.1589324  84.7888345  97.4133921  40.0901415
  84.6713160  96.1357803  39.2865394  76.1072105 101.7946829  29.0210190
  75.4135577 101.3800782  28.5080145  76.8545096 101.8367365  28.4243609
  90.6940892  91.9858073  26.0886545  91.1940671  92.0974608  25.2800864
  91.3376500  91.6819126  26.7287353  84.7522888  99.8936703  38.9754386
  84.2689970 100.6937063  39.1818275  84.8383827  99.9044648  38.0221830
  78.0208848 101.7265083  26.8976205  77.9979536 101.8252770  25.9458088
  78.3309484 102.5730234  27.2193371  80.6796226 103.7841238  31.0122819
  81.6339479 103.7525180  30.9452751  80.4808749 103.3231862  31.8273045
  81.2695608 102.3542354  33.5793617  82.0888497 102.8486432  33.6028454
  81.5432415 101.4374322  33.5511185  76.5230522  96.6880488  34.2785814
  77.1689386  96.1779442  34.7673039  76.3147673  97.4249169  34.8529239
  89.0483914 103.7561335  39.7777955  89.9175074 103.9301987  39.4164590
  88.5690666 104.5755752  39.6553684  88.8586252  87.5463309  24.2855647
  88.0918648  86.9921796  24.4312330  89.2696957  87.6185178  25.1469799
  80.8628013  93.8348105  38.3760828  81.7259475  93.4784910  38.5864153
  80.2893424  93.4962000  39.0636233  36.7289084   6.4704103  24.6394505
  37.2728988   7.0834061  24.1449460  36.1475929   7.0283681  25.1561518
  40.0517879   5.9300157  23.9755826  39.2613422   5.9124295  23.4360326
  39.8151233   6.4688450  24.7304863  34.8515143   4.1163869  26.5023261
  35.7206303   4.2904522  26.1409896  34.3721894   4.9358286  26.3798991
  46.5107619  15.8252495  15.9068536  47.1486029  15.7059243  15.2031876
  46.3928462  16.7733339  15.9656488  43.8017108  16.9314775  21.8016266
  43.7905749  16.5367573  20.9296770  43.9637747  16.1980848  22.3950038
  40.5224369  19.7151887  20.7495450  40.2314235  20.6197518  20.6342117
  41.1581354  19.7568415  21.4639520  41.4480576  17.0928735  17.3396810
  42.0444148  16.8684758  16.6253773  41.5055548  16.3513481  17.9422258
  51.4657314  13.4879182  13.8854723  52.1982486  12.9178399  14.1192552
  50.7096670  13.1000783  14.3261228  48.9882735   7.2000756  18.3449331
  48.6566059   8.0696167  18.1210546  48.3928348   6.8837040  19.0243362
  45.4814254  19.4013302  17.7445244  45.1814977  20.3038341  17.6361051
  45.1365314  19.1345486  18.5966397  40.4635034  26.1657623  10.7116212
  40.3859064  27.1165448  10.7904692  39.8596678  25.8203495  11.3691138
  42.9552264  13.3385488  23.3677579  42.1785598  13.8979408  23.3580443
  43.5942827  13.8242271  23.8892449  50.7473044  10.1212281  17.2020555
  50.1047425  10.4144814  16.5560350  50.2427973  10.0065201  18.0073752
  41.2098636  16.1470942  22.9295546  41.9513320  16.6855986  22.6530369
  40.5035622  16.7737230  23.0867097  46.6853976  18.2900082  21.5267707
  47.0937332  17.8482493  20.7822339  45.9631237  17.7152710  21.7801900
  43.0385046  13.2272689  18.9001264  43.8846241  13.6512102  19.0435913
  42.9783683  12.5706313  19.5939827  47.0082790  18.8501273  15.2819996
  46.3791653  19.0146987  14.5796064  46.6208452  19.2642882  16.0530960
  50.8872022  19.7855711  12.6364360  50.2023060  20.1654612  12.0861393
  50.9715872  20.3951037  13.3696307  46.1884491  10.8877057  20.5582438
  45.9445423  11.6419118  20.0216713  46.4644422  11.2662405  21.3929685
  48.1422954  17.4315670  19.2359703  48.3539849  18.0747429  18.5594084
  48.0952702  16.5977986  18.7681633  39.4534833  18.1347162  15.4849844
  40.0236190  18.5634431  14.8467329  40.0442945  17.8529747  16.1834030
  39.9460000  13.3010590  23.7310856  39.3158660  13.9826871  23.9646252
  39.8396088  13.1893671  22.7863994  49.2568782  20.3087625  17.4082061
  50.0786226  19.9067812  17.1264742  49.2531185  20.2055859  18.3598176
  43.0225385  19.8571668  19.5642771  43.0869818  20.3192076  20.4000943
  42.3136309  19.2269033  19.6925081  57.3474775  16.6526373  13.7567032
  56.5938483  16.0833772  13.6011036  57.4822316  16.6189038  14.7037667
  39.2240743   7.6031356  26.0936107  38.8307688   7.0497554  26.7683751
  40.0406883   7.9141934  26.4842624  42.1408704   9.0189235  23.6856363
  42.8818417   9.6196388  23.6060826  42.3726626   8.2766873  23.1274406
  37.2850042  14.2045602  21.9634593  37.1703557  13.3030859  22.2641692
  36.4294559  14.4509299  21.6119409  44.3641879  22.1463342  23.5622093
  43.9205734  21.3599721  23.2442998  45.0259093  22.3342493  22.8965984
  39.1229001  23.6759144  18.0882772  39.6736426  23.5476207  17.3159766
  38.2840476  23.9754033  17.7377665  46.4623117  22.4266142  21.5903495
  46.4441593  23.2475023  21.0983764  47.3843037  22.3020217  21.8153636
  42.9196172  19.9410272  22.4327003  43.4524508  19.1798560  22.2026311
  42.3910253  19.6483924  23.1751158  49.2641730  17.2645285  15.0612861
  48.6065405  17.9544546  15.1492990  50.0682129  17.6541717  15.4046848
  48.8408985  20.5995659  11.2395946  48.3871312  19.7586569  11.2961136
  48.2102952  21.2357057  11.5770726  47.2841925  22.4372155  12.1745764
  47.5764899  22.9977213  11.4558130  47.7940545  22.7300716  12.9298923
  42.2475550  23.2152507  13.2639217  42.2051729  23.4413353  12.3347749
  43.1638249  22.9815881  13.4125018  45.6941184  13.6836574  20.1619846
  46.0490571  13.9108047  21.0214312  46.3413315  14.0154951  19.5397102
  51.4508300  18.8731537  15.8780447  51.8844807  18.7806826  16.7263501
  52.1639881  18.8489037  15.2400463  45.1836195  22.4733631  17.4113547
  45.2373217  23.0424567  18.1791263  44.3150976  22.6435516  17.0467585
  52.3123850  18.9155238  18.4113332  52.5059740  19.8201048  18.6572607
  52.2124468  18.4562657  19.2451917  43.9660160   8.8013128  20.9103660
  43.3188075   9.5003078  20.8168136  44.7361176   9.2349272  21.2779908
  47.3738958  19.0661980  23.9854213  47.2224465  18.8372532  23.0684297
  47.3643638  20.0232582  23.9985558  44.1424295  16.6393893  18.9700479
  45.0716355  16.7905053  18.7969447  43.7215325  16.7277914  18.1149126
  42.9412626  20.6644558  16.7399017  42.8023712  20.2963342  17.6124955
  42.1527223  21.1792197  16.5682975  44.4917842  20.0426160  14.1287855
  44.1567674  20.0026930  15.0245505  43.9921787  19.3770876  13.6558265
  38.4662086  15.4493790  19.6540436  38.3281884  14.7174029  20.2551975
  39.3767009  15.3602690  19.3724624  41.0944386  15.1613750  19.1424116
  41.8044005  14.5206942  19.1010734  41.0513694  15.4126644  20.0650296
  49.0831165  22.0981103  22.0630695  49.0243711  21.4140323  21.3961278
  49.4850683  22.8400093  21.6111321  39.8073320  12.1478968  20.9619755
  39.2710677  11.6969706  21.6141351  39.2190029  12.2824876  20.2190219
  38.1021864  28.9143017  14.8564414  38.3418462  29.5461541  15.5343432
  37.2591060  28.5631057  15.1429773  49.0848572  20.0620687  20.2944674
  48.1975351  19.7246609  20.4171073  49.6547123  19.3303718  20.5313440
  42.6149726  24.7222139  17.2605918  42.5419897  25.5277111  17.7725222
  42.1727119  24.9214105  16.4353939  42.4039505  23.9593909  10.7708739
  41.6207027  24.5015589  10.8646964  43.1032250  24.4767889  11.1702980
  53.5665913  15.4728904  15.0561236  53.5555789  16.3553620  14.6855169
  52.6983292  15.1200455  14.8615773  45.0748409  24.6208973  19.4164076
  45.7876381  25.2556438  19.3439978  44.5838438  24.7172839  18.6004078
  40.1260323  22.3703417  20.2369647  40.8269782  23.0039900  20.3899041
  39.6555438  22.7118148  19.4765286  47.9261609  14.9248024  18.0622197
  47.2733059  15.1723932  17.4074650  48.3041989  14.1112162  17.7284675
  44.8868783  24.9607717  12.1650368  45.0691177  24.1429373  12.6278120
  45.7101769  25.1775410  11.7275258  43.9749182  15.6667835  24.5488235
  43.2989819  15.5661965  25.2190610  44.7976816  15.5107049  25.0124232
  35.7228041  21.9039772  17.1700750  36.3081478  21.1583460  17.3028654
  35.5252879  22.2143729  18.0537414  38.5766696  24.9391019  12.1863192
  37.9077071  25.4237147  11.7027232  38.4379566  25.1860240  13.1006571
  42.7171965  26.9734763  18.7845851  43.2690273  27.1366384  19.5494936
  43.0578158  27.5639201  18.1125875  37.1688730  11.3933045  23.0340770
  37.7960769  11.0110122  23.6478294  36.3116649  11.1747247  23.3996462
  47.5682839  21.7996020  24.6394505  48.1122743  22.4125978  24.1449460
  46.9869684  22.3575599  25.1561518  45.8540352  24.9216738  15.7709533
  45.7291491  24.1206478  15.2620478  46.5119443  25.4162932  15.2823503
  47.9175260  22.7225758  17.3989083  46.9705596  22.6031110  17.3267410
  48.2658033  21.8348256  17.4815344  40.2774834   8.6119897  21.2227325
  40.8009235   8.8582194  21.9853634  40.0587167   9.4439932  20.8030462
  44.9221694  22.5178475  13.5993435  44.7746656  21.5895182  13.7801005
  45.7475187  22.5398565  13.1150510  48.5255815  23.3407033  14.6858308
  49.4502363  23.1349895  14.5482759  48.3571119  23.0923434  15.5947649
  48.3151132  23.8592701  10.0420399  48.4888009  23.2939123   9.2894252
  48.8080023  24.6593596   9.8599889  54.1690523  16.6229124  11.6610699
  54.6121669  15.8736449  11.2629822  53.2917033  16.6139260  11.2784431
  34.9194113  14.9977266  21.0014115  34.1775849  15.1459901  21.5878745
  34.5986857  15.2585532  20.1380864  42.8637776  24.5393244  20.7994505
  43.1724902  24.2942391  21.6717204  43.6613258  24.7439883  20.3113375
  42.8858388  26.6931154  13.0299881  42.4463378  26.2007533  13.7232738
  43.6366505  26.1504122  12.7891957  40.3332260  22.2369163  15.1022183
  39.7112269  21.5739868  14.8024411  41.0037127  22.2630295  14.4195831
  40.4056788  10.7150951  24.6954689  40.4544943  11.5913074  24.3132459
  40.9479302  10.1728344  24.1226332  50.8911633  21.2592074  23.9755826
  50.1007177  21.2416213  23.4360326  50.6544988  21.7980368  24.7304863
  51.0109508  18.1084541  21.2888555  51.0607513  17.9434548  22.2304078
  50.9023432  17.2411800  20.8986436  48.3013271  14.0915469  22.6047861
  49.2023133  13.9521934  22.3131859  48.3761245  14.2569924  23.5446039
  42.6356076  11.4682323  21.4501048  41.7659385  11.7615889  21.1783636
  42.8715556  12.0522768  22.1708311  52.5127705  20.5281482  21.5330576
  52.2212513  20.8911463  22.3694037  51.8999836  19.8148490  21.3543908
  53.7123387  18.0934362  14.0533147  54.5470279  18.5324166  14.2170707
  53.8482516  17.6173015  13.2341392  50.7614893  15.6514097  20.0010634
  51.2369015  15.8441743  19.1929486  49.8380459  15.7073283  19.7554018
  45.3395110   7.6861940  18.9666468  45.8577054   8.4222967  18.6412957
  44.9850243   7.9925934  19.8013227  49.4616562  12.5279857  18.2338940
  50.4133985  12.6277955  18.2551164  49.2920013  11.7358125  18.7437024
  47.4830942   9.6135440  18.4198341  46.8880874   9.8940453  17.7244829
  47.1980639  10.1029341  19.1915082  51.9404640  15.7485977  17.3481240
  51.9080960  14.8101977  17.5340923  52.5505264  15.8270013  16.6147064
  52.0899129  12.5397020  17.3939523  51.5738177  11.7555477  17.2069452
  52.9739077  12.2115737  17.5586042  57.7581190  16.8101983  16.4887276
  58.4884578  16.5487272  17.0494980  57.1488135  16.0730705  16.5289344
  55.8396487  14.9509846  17.0861728  55.1129651  14.8165811  16.4778219
  55.4243774  15.2586675  17.8918446  43.6626664  18.6699776  24.8509101
  44.5829673  18.8478375  25.0449147  43.6276247  17.7255821  24.6988800
  36.6588736  16.5800810  17.4931882  36.8774746  17.5117918  17.5119916
  37.0714510  16.2208785  18.2786686  41.5316601  12.1534016  26.8834631
  41.4313328  13.1028373  26.8146722  41.3138143  11.8252255  26.0110701
  41.3947871  15.5831155  25.6999692  40.9114953  16.3831515  25.9063581
  41.4808810  15.5939100  24.7467136  37.3221209  19.4735690  17.7368126
  38.2764462  19.4419632  17.6698058  37.1233733  19.0126313  18.5518352
  37.9120591  18.0436806  20.3038924  38.7313480  18.5380884  20.3273761
  38.1857399  17.1268774  20.2756491  53.4574282  11.1721698  14.4395159
  54.0518773  10.9317434  13.7288467  53.5300866  10.4528829  15.0668695
  35.6771438  25.0155309  14.7538324  35.5425906  24.2555710  14.1876322
  35.2603500  25.7396209  14.2867113  55.7645355  14.4787899  13.2138580
  55.2044913  14.5481088  13.9870142  55.1588858  14.3028884  12.4938077
  38.8340564  25.9124626  14.9656767  38.7172948  26.8570059  14.8635457
  38.0133010  25.6098188  15.3542566  45.6908897  19.4455787  26.5023261
  46.5600057  19.6196439  26.1409896  45.2115649  20.2650204  26.3798991
  39.8595078  26.5652888  18.1812695  40.7622324  26.5976498  18.4979190
  39.6332448  25.6353339  18.1959031  41.6148680  25.3183875  14.8422774
  40.6644311  25.3185736  14.7287146  41.9181166  24.5716609  14.3258808
  37.5052996   9.5242557  25.1006135  38.3684458   9.1679361  25.3109460
  36.9318407   9.1856451  25.7881539  57.3501373  31.1544413  15.9068536
  57.9879783  31.0351160  15.2031876  57.2322216  32.1025257  15.9656488
  54.1591080  31.1071841  15.8430061  53.8209591  30.9912906  14.9550596
  55.0280848  30.7063006  15.8231067  50.0177895  32.9607318  11.8326952
  49.4542760  32.8697254  11.0643239  49.9030290  32.1407222  12.3129444
  54.6410863  32.2606693  21.8016266  54.6299503  31.8659491  20.9296770
  54.8031502  31.5272765  22.3950038  47.5642327  34.4558509  14.6711172
  48.3563619  34.1149334  14.2557471  47.8038977  34.5653484  15.5913325
  55.5977454  36.6278285   7.1441417  54.9465434  37.2132366   6.7575430
  56.3921817  37.1584480   7.2036454  49.5233081  33.7167422   7.5428551
  50.2963957  33.1696409   7.4041427  49.8758480  34.5811672   7.7543012
  51.3618124  35.0443805  20.7495450  51.0707990  35.9489435  20.6342117
  51.9975108  35.0860332  21.4639520  52.2874330  32.4220653  17.3396810
  52.8837903  32.1976676  16.6253773  52.3449302  31.6805399  17.9422258
  51.8599359  29.8760088   5.1747001  52.1124880  29.3541610   4.4130464
  50.9223918  29.7126234   5.2773684  56.9042642  28.8795867  12.9821744
  57.6905731  28.4615290  12.6312161  57.1681346  29.7841959  13.1503392
  57.0752719  34.3168717   7.6810401  56.4398552  34.3903344   8.3931306
  56.7450125  34.9062316   7.0029480  62.3051069  28.8171100  13.8854723
  63.0376241  28.2470317  14.1192552  61.5490425  28.4292700  14.3261228
  51.5795648  31.7788194   7.3771376  51.4631906  31.1033098   8.0452460
  51.6897908  31.2920568   6.5603529  53.9227189  31.2398342  11.0818065
  53.5585396  30.7128963  11.7930987  54.7794304  30.8496811  10.9084550
  59.8276489  22.5292674  18.3449331  59.4959814  23.3988085  18.1210546
  59.2322103  22.2128958  19.0243362  53.5632676  26.2688241   6.0779414
  53.7307078  27.1368478   6.4449885  53.3729845  26.4315523   5.1540703
  56.3208009  34.7305220  17.7445244  56.0208732  35.6330259  17.6361051
  55.9759068  34.4637403  18.5966397  49.7720490  31.1819017  13.7781948
  48.8470987  31.0495231  13.9859640  50.0204903  31.9613236  14.2751891
  59.7205153  27.2487760  15.4242681  58.8122030  27.1803169  15.1301442
  59.6692748  27.7259705  16.2524507  53.5421896  28.7245899   7.0626080
  53.4221522  29.1702949   7.9011561  52.8474485  29.0731216   6.5039619
  47.1329301  30.8252291  14.6125737  47.2621682  31.0786769  15.5265149
  46.4526753  31.4179999  14.2930393  51.3028789  41.4949540  10.7116212
  51.2252818  42.4457366  10.7904692  50.6990432  41.1495413  11.3691138
  53.7946018  28.6677406  23.3677579  53.0179352  29.2271326  23.3580443
  54.4336581  29.1534189  23.8892449  61.5866799  25.4504199  17.2020555
  60.9441179  25.7436732  16.5560350  61.0821727  25.3357119  18.0073752
  59.2406963  29.1967372   7.8906414  60.1524819  29.4294759   7.7154112
  58.7316610  29.7804416   7.3281493  52.0492391  31.4762859  22.9295546
  52.7907075  32.0147903  22.6530369  51.3429376  32.1029148  23.0867097
  57.5247730  33.6192000  21.5267707  57.9331086  33.1774410  20.7822339
  56.8024992  33.0444627  21.7801900  53.8778800  28.5564607  18.9001264
  54.7239995  28.9804020  19.0435913  53.8177438  27.8998231  19.5939827
  57.8476545  34.1793190  15.2819996  57.2185407  34.3438904  14.5796064
  57.4602207  34.5934800  16.0530960  61.7265777  35.1147628  12.6364360
  61.0416815  35.4946530  12.0861393  61.8109626  35.7242955  13.3696307
  57.0278246  26.2168975  20.5582438  56.7839177  26.9711035  20.0216713
  57.3038176  26.5954322  21.3929685  58.9816708  32.7607587  19.2359703
  59.1933604  33.4039347  18.5594084  58.9346457  31.9269904  18.7681633
  56.5842937  25.3725408  16.1396275  55.7227416  25.6706661  16.4313013
  56.6105372  25.5895807  15.2077308  53.4004507  33.9167598  12.5470081
  53.8642852  34.1955301  11.7574703  53.1361305  33.0151043  12.3643172
  50.2928588  33.4639080  15.4849844  50.8629945  33.8926348  14.8467329
  50.8836700  33.1821665  16.1834030  52.3373393  30.0390751   9.3559646
  53.0397436  30.4911794   9.8233573  52.0054021  29.3974570   9.9839539
  50.7853754  28.6302507  23.7310856  50.1552415  29.3118788  23.9646252
  50.6789842  28.5185589  22.7863994  46.0798727  28.2974303  14.6576780
  45.2897781  28.5531832  14.1816890  46.5709974  29.1122641  14.7628820
  60.0962536  35.6379543  17.4082061  60.9179980  35.2359730  17.1264742
  60.0924939  35.5347777  18.3598176  48.0313472  28.6618883  11.6160256
  47.2344635  28.7737577  12.1343752  47.8039064  29.0005535  10.7501147
  53.8619140  35.1863586  19.5642771  53.9263572  35.6483993  20.4000943
  53.1530064  34.5560951  19.6925081  44.3636430  28.5504794  17.0891771
  44.6144468  29.4351804  17.3549346  44.8995978  28.3709395  16.3166862
  68.1868529  31.9818291  13.7567032  67.4332238  31.4125689  13.6011036
  68.3216071  31.9480956  14.7037667  53.5767157  36.8531693   9.4321751
  53.4412832  37.6983229   9.8606599  54.1176970  37.0550971   8.6687685
  50.0634497  22.9323273  26.0936107  49.6701443  22.3789472  26.7683751
  50.8800637  23.2433852  26.4842624  47.0296555  34.3707131  10.0049676
  47.5421075  35.1650382  10.1555241  47.6819268  33.6733422   9.9383278
  48.8391440  37.4872888  12.0872430  49.0158068  38.4090852  11.8993414
  49.6348273  37.1731307  12.5166809  52.9802458  24.3481152  23.6856363
  53.7212171  24.9488306  23.6060826  53.2120381  23.6058790  23.1274406
  48.1243796  29.5337520  21.9634593  48.0097311  28.6322777  22.2641692
  47.2688314  29.7801216  21.6119409  49.9622755  39.0051062  18.0882772
  50.5130180  38.8768125  17.3159766  49.1234231  39.3045951  17.7377665
  53.7589926  35.2702189  22.4327003  54.2918263  34.5090478  22.2026311
  53.2304007  34.9775841  23.1751158  56.9259621  20.3762255  17.9620645
  56.5823890  21.2663897  17.8859755  57.2938584  20.1863913  17.0990230
  44.9945472  32.6995786  10.7809247  45.8320694  33.1092794  10.5642955
  45.1723739  31.7595228  10.7509441  56.8909904  30.3670866   6.4693080
  56.3756527  31.1375471   6.7081467  56.6187212  29.6936003   7.0926141
  54.4757015  25.2120567  11.5278318  53.6198611  24.8227418  11.3483957
  54.8883967  25.2912528  10.6678104  56.0056161  22.7466910  15.9269878
  55.5020957  22.7097046  15.1137683  56.2986768  23.6559653  15.9866535
  52.2499047  22.8305640  14.9336060  53.1152044  22.6348449  14.5741949
  52.3176556  22.6015992  15.8605417  61.8644178  33.1203221   8.4046253
  61.0873621  32.7814381   7.9601415  62.5435659  33.1255844   7.7301218
  56.6796207  28.2397959   8.2952861  56.3746342  28.5544108   9.1463004
  57.6326649  28.3179378   8.3380194  55.1242639  34.3988182   9.9445815
  54.5964000  33.6640941   9.6319053  54.6230141  35.1762858   9.6985783
  60.1035485  32.5937202  15.0612861  59.4459159  33.2836464  15.1492990
  60.9075884  32.9833634  15.4046848  49.8561366  25.0607848  12.3052427
  50.4305118  24.8383030  11.5725620  50.4432349  25.1296543  13.0581028
  58.9140944  30.9481575  13.1116803  59.4272825  31.5811567  13.6138513
  59.5642167  30.3482771  12.7460163  52.1584034  21.9349097  11.0327496
  51.5048446  21.6198114  10.4084111  52.1164508  21.3124837  11.7587319
  53.2695239  32.2168392   2.9480788  52.3622301  31.9857646   3.1471937
  53.7666271  31.4206011   3.1354770  56.1763318  40.9265899   5.8677474
  55.5025017  41.2297596   6.4762432  56.5629140  41.7294980   5.5182931
  55.3921774  28.4231031  15.3575144  54.4744336  28.6445978  15.1996832
  55.8081918  28.4977341  14.4986851  56.1756822  29.8222446  10.4877824
  56.9228641  30.3343843  10.1784946  56.4448412  29.5006499  11.3482217
  54.4483472  32.3180987   7.4704778  53.5394692  32.0340020   7.5677248
  54.4778556  32.7380066   6.6108085  59.6802740  35.9287576  11.2395946
  59.2265067  35.0878486  11.2961136  59.0496706  36.5648975  11.5770726
  58.6235659  26.8579563  12.4696613  57.8858416  26.3456949  12.8006856
  58.8762433  26.4179944  11.6579890  58.1235679  37.7664073  12.1745764
  58.4158653  38.3269130  11.4558130  58.6334300  38.0592634  12.9298923
  58.7247287  19.6355815  13.0638383  59.0306163  18.7753178  12.7764298
  59.4499891  20.2273435  12.8637376  45.0171643  30.0386501  11.4519980
  44.8196043  29.4455862  10.7271047  44.4618307  29.7338711  12.1695919
  52.9968366  29.9309608  13.5714574  53.0516976  28.9783444  13.4957050
  52.1859568  30.0869047  14.0555872  54.1459560  33.8589731   4.8092857
  53.7078990  33.1425590   4.3498494  54.8870001  34.0865845   4.2477948
  50.9360726  28.5486667  11.3304952  50.1228592  28.8480838  11.7370145
  51.4319721  28.1542356  12.0479435  53.0869304  38.5444424  13.2639217
  53.0445483  38.7705271  12.3347749  54.0032003  38.3107799  13.4125018
  56.5334938  29.0128492  20.1619846  56.8884326  29.2399965  21.0214312
  57.1807069  29.3446869  19.5397102  62.2632675  32.1346928  10.8669175
  62.1250574  32.3248524   9.9390365  61.9068894  32.8966311  11.3237227
  50.4274801  26.1205023  16.9466187  51.0674180  25.9793782  16.2489151
  49.5952332  25.8339536  16.5704789  62.2902055  34.2023455  15.8780447
  62.7238561  34.1098744  16.7263501  63.0033635  34.1780955  15.2400463
  51.2035105  35.4207453  13.0601180  51.9975703  34.9257773  12.8583755
  50.4926797  34.8925316  12.6968885  56.0229949  37.8025549  17.4113547
  56.0766972  38.3716485  18.1791263  55.1544731  37.9727434  17.0467585
  47.5117868  29.5650535   9.1360933  46.5815457  29.5034990   9.3530895
  47.6075340  29.0426488   8.3397574  47.4303417  26.0905348  11.7239174
  47.6910235  27.0050681  11.6148335  48.2520590  25.6229790  11.8735787
  48.9028343  27.5043105  18.8937999  49.5751396  27.2960467  18.2450648
  48.0758129  27.3065191  18.4543231  63.1517604  34.2447155  18.4113332
  63.3453494  35.1492966  18.6572607  63.0518222  33.7854574  19.2451917
  54.8053915  24.1305046  20.9103660  54.1581830  24.8294996  20.8168136
  55.5754930  24.5641190  21.2779908  58.2132713  34.3953898  23.9854213
  58.0618219  34.1664450  23.0684297  58.2037392  35.3524500  23.9985558
  54.9818049  31.9685811  18.9700479  55.9110109  32.1196970  18.7969447
  54.5609079  32.0569832  18.1149126  53.7806381  35.9936475  16.7399017
  53.6417467  35.6255260  17.6124955  52.9920977  36.5084115  16.5682975
  54.3754533  41.0945572   8.0824553  54.5506289  40.6233615   8.8970176
  53.6887321  41.7211338   8.3105814  55.3311596  35.3718078  14.1287855
  54.9961429  35.3318848  15.0245505  54.8315542  34.7062794  13.6558265
  49.3055840  30.7785708  19.6540436  49.1675638  30.0465947  20.2551975
  50.2160764  30.6894608  19.3724624  58.2670788  32.7174112   4.4024914
  57.6499958  31.9920940   4.3057967  57.7987276  33.4783473   4.0591989
  51.9338141  30.4905667  19.1424116  52.6437759  29.8498859  19.1010734
  51.8907449  30.7418562  20.0650296  50.6467075  27.4770885  20.9619755
  50.1104432  27.0261624  21.6141351  50.0583783  27.6116794  20.2190219
  48.9415618  44.2434934  14.8564414  49.1812216  44.8753459  15.5343432
  48.0984815  43.8922975  15.1429773  59.9242327  35.3912605  20.2944674
  59.0369105  35.0538526  20.4171073  60.4940878  34.6595636  20.5313440
  41.5771474  31.7236696  13.6187726  42.2642514  31.4098426  13.0308741
  41.4219603  32.6278061  13.3454977  46.3806196  26.6126893  18.0472750
  46.2964385  26.0052562  17.3123159  45.5588902  27.1035911  18.0482246
  53.4543480  40.0514057  17.2605918  53.3813652  40.8569028  17.7725222
  53.0120873  40.2506023  16.4353939  53.2433260  39.2885827  10.7708739
  52.4600782  39.8307507  10.8646964  53.9426005  39.8059807  11.1702980
  56.5529910  25.0980456  13.4142945  57.0498609  24.3450419  13.0944015
  55.7816891  25.1344773  12.8486154  64.4059667  30.8020822  15.0561236
  64.3949543  31.6845537  14.6855169  63.5377047  30.4492373  14.8615773
  55.9142164  39.9500891  19.4164076  56.6270136  40.5848356  19.3439978
  55.4232192  40.0464757  18.6004078  57.6359691  33.8552144  10.9881368
  56.7015969  33.9753606  10.8186072  57.8136359  32.9524610  10.7241378
  53.1364879  27.2397839  13.1414629  52.7662666  26.6868880  13.8295535
  53.6323971  26.6355973  12.5889629  61.0232242  29.6969463  11.5231402
  61.4892694  30.5297455  11.4491705  61.4739742  29.2314444  12.2276661
  50.9654077  37.6995334  20.2369647  51.6663537  38.3331817  20.3899041
  50.4949192  38.0410066  19.4765286  59.0908473  36.0413284   8.5217554
  59.3668317  35.9269879   9.4311428  58.2212972  35.6430769   8.4829727
  58.9948905  22.0650050  15.5622303  58.0811984  22.2954277  15.7304510
  59.4242006  22.1488494  16.4136336  58.7655363  30.2539942  18.0622197
  58.1126813  30.5015849  17.4074650  59.1435743  29.4404080  17.7284675
  55.7262537  40.2899635  12.1650368  55.9084932  39.4721291  12.6278120
  56.5495523  40.5067327  11.7275258  56.0604702  39.2167820   9.4265416
  56.5892469  38.7060275   8.8135578  56.3232922  38.9010350  10.2910949
  54.8142936  30.9959753  24.5488235  54.1383573  30.8953882  25.2190610
  55.6370570  30.8398967  25.0124232  46.5621795  37.2331689  17.1700750
  47.1475232  36.4875377  17.3028654  46.3646634  37.5435646  18.0537414
  49.4160450  40.2682937  12.1863192  48.7470826  40.7529064  11.7027232
  49.2773320  40.5152157  13.1006571  41.1539450  29.8037290  15.8905193
  41.1923549  29.2700880  16.6842311  40.6479743  29.2772495  15.2716170
  53.5565719  42.3026680  18.7845851  54.1084027  42.4658302  19.5494936
  53.8971912  42.8931118  18.1125875  48.5330212  24.6501830  19.3867735
  48.5971539  25.5116661  18.9745133  48.4697332  24.0375832  18.6540094
  48.0082485  26.7224963  23.0340770  48.6354524  26.3402040  23.6478294
  47.1510404  26.5039165  23.3996462  44.7848028  28.5301392   8.9659124
  45.0801469  27.6212070   8.9126178  43.8836063  28.5089131   8.6440127
  56.6934106  40.2508656  15.7709533  56.5685246  39.4498396  15.2620478
  57.3513197  40.7454849  15.2823503  48.3142275  26.6057388  14.9486673
  47.5928860  27.2193356  14.8094146  49.1035530  27.1415153  14.8703319
  58.7569015  38.0517676  17.3989083  57.8099350  37.9323027  17.3267410
  59.1051788  37.1640174  17.4815344  51.1168588  23.9411815  21.2227325
  51.6402990  24.1874111  21.9853634  50.8980921  24.7731850  20.8030462
  46.5135869  26.2115489   9.0898449  46.1848575  25.3312868   8.9073555
  46.8675240  26.1563158   9.9774839  55.7615448  37.8470392  13.5993435
  55.6140410  36.9187100  13.7801005  56.5868941  37.8690483  13.1150510
  49.6277692  26.4988459   9.4573927  49.9673765  27.0274381   8.7352536
  50.0749813  26.8368865  10.2332494  59.3649570  38.6698951  14.6858308
  60.2896117  38.4641812  14.5482759  59.1964873  38.4215352  15.5947649
  52.3221133  24.8825510  18.9076995  51.9817953  24.0833323  19.3097675
  51.6160139  25.1827221  18.3353828  52.9737605  21.9674822  17.3604318
  53.7963674  21.4935301  17.2383209  53.2175668  22.7465306  17.8603005
  51.6145839  24.9963081   7.6567220  52.3354202  25.3744334   7.1530937
  50.9911144  25.7151958   7.7602198  55.7576962  25.7008230   8.5925552
  55.9740577  26.5832868   8.2914380  55.2771029  25.3094443   7.8631194
  50.4976184  28.6593943  15.1696297  50.3520764  28.9734246  16.0620578
  50.0201387  29.2778843  14.6167195  52.3572567  25.6496491  15.2177186
  52.3434135  24.7537584  14.8809484  53.0744995  25.6567155  15.8515472
  54.2098697  26.0833831  17.2630314  53.9516475  27.0050902  17.2614644
  53.6783738  25.6864266  17.9530778  59.1544886  39.1884618  10.0420399
  59.3281764  38.6231041   9.2894252  59.6473777  39.9885513   9.8599889
  44.9721846  31.1999287  18.1083958  44.4275314  31.9759095  18.2404232
  45.8501196  31.5470092  17.9503079  51.7609462  24.5310871  10.4864757
  51.8825374  23.6027518  10.6855644  51.4711505  24.5449557   9.5743072
  54.6300653  22.2165782  13.6231476  54.6522350  22.2805115  12.6683456
  55.0468712  21.3770290  13.8171983  65.0084277  31.9521041  11.6610699
  65.4515423  31.2028367  11.2629822  64.1310787  31.9431178  11.2784431
  60.1420059  38.5051383   7.1417298  60.8370963  39.1258075   7.3604612
  60.4843209  37.6546734   7.4169675  45.7587868  30.3269184  21.0014115
  45.0169604  30.4751819  21.5878745  45.4380612  30.5877449  20.1380864
  62.0411482  35.9551088   8.6704628  62.5662806  36.2938361   7.9453948
  61.9533834  35.0198104   8.4867763  53.7031530  39.8685162  20.7994505
  54.0118657  39.6234309  21.6717204  54.5007012  40.0731800  20.3113375
  53.7252142  42.0223072  13.0299881  53.2857133  41.5299450  13.7232738
  54.4760259  41.4796039  12.7891957  46.2044481  38.2134612  13.0324510
  47.0302501  37.9138384  12.6523153  45.8538533  37.4442235  13.4814298
  51.1726015  37.5661081  15.1022183  50.5506024  36.9031786  14.8024411
  51.8430881  37.5922213  14.4195831  44.4053086  36.1320939  13.9913443
  43.5684995  35.7043113  13.8097444  44.3776732  36.3253382  14.9284234
  51.2450542  26.0442869  24.6954689  51.2938698  26.9204992  24.3132459
  51.7873056  25.5020262  24.1226332  61.8503263  33.4376458  21.2888555
  61.9001268  33.2726466  22.2304078  61.7417186  32.5703717  20.8986436
  50.7339521  36.1165004   8.5780644  50.8827642  36.8000468   7.9247316
  51.5405965  36.0970094   9.0930099  59.1407025  29.4207386  22.6047861
  60.0416888  29.2813851  22.3131859  59.2155000  29.5861841  23.5446039
  53.4749830  26.7974241  21.4501048  52.6053140  27.0907807  21.1783636
  53.7109311  27.3814686  22.1708311  64.5517142  33.4226280  14.0533147
  65.3864033  33.8616084  14.2170707  64.6876271  32.9464933  13.2341392
  61.6008648  30.9806014  20.0010634  62.0762769  31.1733661  19.1929486
  60.6774213  31.0365200  19.7554018  48.4892154  32.1430182   9.5841713
  48.2438196  31.2392512   9.7821923  48.6588069  32.1447332   8.6421191
  56.1788864  23.0153858  18.9666468  56.6970808  23.7514885  18.6412957
  55.8243997  23.3217851  19.8013227  56.4301458  19.4354141  14.4867365
  56.7103212  18.7677330  15.1127791  57.2152065  19.6283236  13.9742029
  54.2334927  38.6113134   6.0492391  53.6608894  39.2303322   5.5962863
  54.8067721  39.1612496   6.5832313  60.3010317  27.8571775  18.2338940
  61.2527740  27.9569872  18.2551164  60.1313767  27.0650043  18.7437024
  58.3224696  24.9427358  18.4198341  57.7274628  25.2232371  17.7244829
  58.0374393  25.4321259  19.1915082  57.4532187  38.8950285   7.1800973
  58.3862860  38.8295846   7.3833849  57.3655400  39.7306551   6.7215506
  60.0820203  38.2116155   4.1404921  60.0033835  37.8776019   5.0340679
  60.9029870  38.7037923   4.1396393  62.7798395  31.0777894  17.3481240
  62.7474715  30.1393895  17.5340923  63.3899018  31.1561931  16.6147064
  54.6181725  29.9473947   3.3908444  55.5640830  29.8180155   3.4596862
  54.2395970  29.2088609   3.8677872  62.9292883  27.8688938  17.3939523
  62.4131932  27.0847394  17.2069452  63.8132832  27.5407654  17.5586042
  60.5903610  21.6129953  13.3535335  60.3928431  21.3045041  14.2378667
  61.2003316  22.3391592  13.4833265  68.5974944  32.1393901  16.4887276
  69.3278333  31.8779189  17.0494980  67.9881890  31.4022623  16.5289344
  66.6790242  30.2801764  17.0861728  65.9523405  30.1457729  16.4778219
  66.2637528  30.5878592  17.8918446  54.5020418  33.9991693  24.8509101
  55.4223427  34.1770292  25.0449147  54.4670001  33.0547739  24.6988800
  43.7202583  29.1930287  13.7762375  43.4005367  28.3395595  13.4836749
  43.1736011  29.4078865  14.5320343  47.4982491  31.9092728  17.4931882
  47.7168500  32.8409836  17.5119916  47.9108264  31.5500702  18.2786686
  54.4186708  22.4160813   9.4807570  53.6087437  22.0707898   9.8562816
  55.1071125  22.1068357  10.0695182  56.3477257  21.4938860  11.1031867
  56.9008295  21.9134314  11.7621890  56.5847343  20.5674608  11.1454823
  52.3710356  27.4825934  26.8834631  52.2707083  28.4320291  26.8146722
  52.1531898  27.1544173  26.0110701  43.5890843  32.8133199  15.7455497
  42.8954314  32.3987151  15.2325451  44.3363834  32.8553735  15.1488916
  59.7256064  23.6039385  10.6110531  59.1454733  24.2624189  10.2288583
  59.4591996  22.7816730  10.1997949  58.1759630  23.0044443  12.8131851
  58.6759408  23.1160978  12.0046170  58.8195238  22.7005496  13.4532660
  52.2341626  30.9123073  25.6999692  51.7508708  31.7123433  25.9063581
  52.3202565  30.9231017  24.7467136  45.5027586  32.7451452  13.6221512
  45.4798274  32.8439140  12.6703395  45.8128222  33.5916603  13.9438678
  48.1614963  34.8027607  17.7368126  49.1158217  34.7711550  17.6698058
  47.9627487  34.3418231  18.5518352  48.7514346  33.3728723  20.3038924
  49.5707235  33.8672802  20.3273761  49.0251153  32.4560692  20.2756491
  58.5080942  25.7639476   9.6666879  57.6206797  26.0489126   9.4487074
  58.9234931  25.6033239   8.8194156  61.8595478  25.7885997  13.3821219
  62.6355868  26.2782449  13.6545835  61.1343612  26.2144051  13.8393088
  64.2968037  26.5013616  14.4395159  64.8912527  26.2609352  13.7288467
  64.3694620  25.7820746  15.0668695  46.5165192  40.3447227  14.7538324
  46.3819660  39.5847628  14.1876322  46.0997254  41.0688127  14.2867113
  57.6524155  35.5284150   3.7614899  58.3560005  35.7334153   4.3772555
  56.9286804  36.0960912   4.0263983  58.4821965  31.2794012   9.8817169
  58.4257167  31.7362563   9.0424802  59.0350308  30.5184696   9.7040012
  62.2926771  27.0683743  10.7067289  62.0363706  26.6680379  11.5375497
  61.6679639  27.7827537  10.5817428  66.6039109  29.8079817  13.2138580
  66.0438667  29.8773006  13.9870142  65.9982613  29.6320801  12.4938077
  49.6734318  41.2416544  14.9656767  49.5566702  42.1861976  14.8635457
  48.8526764  40.9390105  15.3542566  59.5610853  35.9666680   5.8113359
  60.3956457  35.5347878   5.6290834  59.3995196  35.7948693   6.7390254
  59.2156745  32.4698793   7.1769699  59.1605549  32.3043064   6.2358143
  58.5902800  33.1774826   7.3331888  44.0049260  27.7066857  21.0031121
  44.6508123  27.1965811  21.4918346  43.7966411  28.4435539  21.5774546
  50.6988832  41.8944806  18.1812695  51.6016079  41.9268416  18.4979190
  50.4726202  40.9645257  18.1959031  52.4542434  40.6475792  14.8422774
  51.5038065  40.6477654  14.7287146  52.7574920  39.9008527  14.3258808
  56.3404990  18.5649679  11.0100954  55.5737386  18.0108165  11.1557636
  56.7515695  18.6371547  11.8715105  48.3446751  24.8534474  25.1006135
  49.2078212  24.4971279  25.3109460  47.7712161  24.5148369  25.7881539
  68.1895128  46.4836331  15.9068536  68.8273538  46.3643078  15.2031876
  68.0715971  47.4317175  15.9656488  64.9984834  46.4363759  15.8430061
  64.6603346  46.3204823  14.9550596  65.8674602  46.0354924  15.8231067
  60.8571650  48.2899235  11.8326952  60.2936515  48.1989172  11.0643239
  60.7424045  47.4699140  12.3129444  58.4036082  49.7850427  14.6711172
  59.1957374  49.4441251  14.2557471  58.6432732  49.8945402  15.5913325
  66.4371208  51.9570203   7.1441417  65.7859188  52.5424283   6.7575430
  67.2315571  52.4876398   7.2036454  60.3626836  49.0459340   7.5428551
  61.1357712  48.4988327   7.4041427  60.7152234  49.9103589   7.7543012
  62.2011878  50.3735722  20.7495450  61.9101744  51.2781353  20.6342117
  62.8368862  50.4152250  21.4639520  63.1268085  47.7512571  17.3396810
  63.7231657  47.5268593  16.6253773  63.1843057  47.0097316  17.9422258
  62.6993113  45.2052006   5.1747001  62.9518634  44.6833527   4.4130464
  61.7617672  45.0418152   5.2773684  67.7436396  44.2087785  12.9821744
  68.5299485  43.7907208  12.6312161  68.0075101  45.1133877  13.1503392
  67.9146474  49.6460635   7.6810401  67.2792307  49.7195261   8.3931306
  67.5843880  50.2354234   7.0029480  73.1444823  44.1463018  13.8854723
  73.8769995  43.5762235  14.1192552  72.3884179  43.7584618  14.3261228
  62.4189402  47.1080112   7.3771376  62.3025660  46.4325015   8.0452460
  62.5291662  46.6212486   6.5603529  64.7620943  46.5690259  11.0818065
  64.3979150  46.0420880  11.7930987  65.6188059  46.1788728  10.9084550
  64.4026430  41.5980159   6.0779414  64.5700832  42.4660395   6.4449885
  64.2123599  41.7607441   5.1540703  67.1601763  50.0597138  17.7445244
  66.8602486  50.9622177  17.6361051  66.8152823  49.7929321  18.5966397
  60.6114245  46.5110935  13.7781948  59.6864741  46.3787149  13.9859640
  60.8598658  47.2905154  14.2751891  70.5598907  42.5779678  15.4242681
  69.6515784  42.5095086  15.1301442  70.5086503  43.0551623  16.2524507
  64.3815651  44.0537816   7.0626080  64.2615276  44.4994867   7.9011561
  63.6868239  44.4023134   6.5039619  57.9723056  46.1544208  14.6125737
  58.1015437  46.4078687  15.5265149  57.2920507  46.7471916  14.2930393
  62.1422543  56.8241458  10.7116212  62.0646573  57.7749283  10.7904692
  61.5384187  56.4787331  11.3691138  72.4260553  40.7796116  17.2020555
  71.7834934  41.0728650  16.5560350  71.9215482  40.6649037  18.0073752
  70.0800717  44.5259290   7.8906414  70.9918573  44.7586676   7.7154112
  69.5710364  45.1096334   7.3281493  64.7172555  43.8856524  18.9001264
  65.5633750  44.3095938  19.0435913  64.6571192  43.2290149  19.5939827
  68.6870299  49.5085108  15.2819996  68.0579162  49.6730822  14.5796064
  68.2995961  49.9226718  16.0530960  72.5659531  50.4439546  12.6364360
  71.8810569  50.8238447  12.0861393  72.6503381  51.0534873  13.3696307
  69.8210463  48.0899505  19.2359703  70.0327358  48.7331265  18.5594084
  69.7740211  47.2561821  18.7681633  64.2398261  49.2459516  12.5470081
  64.7036607  49.5247219  11.7574703  63.9755059  48.3442961  12.3643172
  61.1322342  48.7930998  15.4849844  61.7023699  49.2218266  14.8467329
  61.7230454  48.5113582  16.1834030  63.1767147  45.3682669   9.3559646
  63.8791191  45.8203712   9.8233573  62.8447776  44.7266487   9.9839539
  56.9192481  43.6266221  14.6576780  56.1291535  43.8823750  14.1816890
  57.4103729  44.4414559  14.7628820  70.9356291  50.9671460  17.4082061
  71.7573735  50.5651648  17.1264742  70.9318694  50.8639695  18.3598176
  58.8707227  43.9910800  11.6160256  58.0738390  44.1029495  12.1343752
  58.6432819  44.3297453  10.7501147  55.2030184  43.8796712  17.0891771
  55.4538223  44.7643722  17.3549346  55.7389733  43.7001313  16.3166862
  79.0262284  47.3110209  13.7567032  78.2725992  46.7417607  13.6011036
  79.1609825  47.2772873  14.7037667  64.4160912  52.1823611   9.4321751
  64.2806587  53.0275147   9.8606599  64.9570724  52.3842889   8.6687685
  57.8690309  49.6999049  10.0049676  58.3814830  50.4942299  10.1555241
  58.5213022  49.0025340   9.9383278  59.6785194  52.8164805  12.0872430
  59.8551822  53.7382770  11.8993414  60.4742028  52.5023225  12.5166809
  60.8016509  54.3342979  18.0882772  61.3523935  54.2060043  17.3159766
  59.9627985  54.6337868  17.7377665  55.8339226  48.0287703  10.7809247
  56.6714448  48.4384712  10.5642955  56.0117494  47.0887146  10.7509441
  67.7303658  45.6962784   6.4693080  67.2150282  46.4667389   6.7081467
  67.4580967  45.0227920   7.0926141  65.3150769  40.5412485  11.5278318
  64.4592366  40.1519335  11.3483957  65.7277721  40.6204446  10.6678104
  63.0892802  38.1597558  14.9336060  63.9545799  37.9640367  14.5741949
  63.1570311  37.9307910  15.8605417  72.7037932  48.4495139   8.4046253
  71.9267375  48.1106298   7.9601415  73.3829413  48.4547762   7.7301218
  67.5189961  43.5689876   8.2952861  67.2140097  43.8836025   9.1463004
  68.4720404  43.6471296   8.3380194  65.9636393  49.7280100   9.9445815
  65.4357755  48.9932859   9.6319053  65.4623896  50.5054776   9.6985783
  70.9429239  47.9229120  15.0612861  70.2852914  48.6128381  15.1492990
  71.7469638  48.3125552  15.4046848  60.6955121  40.3899766  12.3052427
  61.2698873  40.1674947  11.5725620  61.2826103  40.4588460  13.0581028
  69.7534698  46.2773493  13.1116803  70.2666580  46.9103485  13.6138513
  70.4035922  45.6774688  12.7460163  61.0224708  42.4204227   6.3248312
  60.1862020  42.7578913   6.6457587  60.8829478  42.2853207   5.3875449
  62.9977789  37.2641015  11.0327496  62.3442201  36.9490032  10.4084111
  62.9558263  36.6416755  11.7587319  64.1088993  47.5460310   2.9480788
  63.2016055  47.3149563   3.1471937  64.6060025  46.7497929   3.1354770
  67.0157072  56.2557817   5.8677474  66.3418771  56.5589514   6.4762432
  67.4022894  57.0586897   5.5182931  66.2315529  43.7522948  15.3575144
  65.3138090  43.9737895  15.1996832  66.6475673  43.8269259  14.4986851
  67.0150577  45.1514364  10.4877824  67.7622396  45.6635761  10.1784946
  67.2842166  44.8298417  11.3482217  65.2877227  47.6472905   7.4704778
  64.3788446  47.3631937   7.5677248  65.3172311  48.0671983   6.6108085
  70.5196494  51.2579494  11.2395946  70.0658821  50.4170404  11.2961136
  69.8890461  51.8940893  11.5770726  69.4629414  42.1871480  12.4696613
  68.7252171  41.6748866  12.8006856  69.7156187  41.7471862  11.6579890
  68.9629434  53.0955991  12.1745764  69.2552408  53.6561048  11.4558130
  69.4728054  53.3884552  12.9298923  69.5641041  34.9647732  13.0638383
  69.8699918  34.1045096  12.7764298  70.2893646  35.5565352  12.8637376
  55.8565397  45.3678419  11.4519980  55.6589797  44.7747779  10.7271047
  55.3012061  45.0630629  12.1695919  63.8362121  45.2601525  13.5714574
  63.8910731  44.3075362  13.4957050  63.0253323  45.4160964  14.0555872
  64.9853315  49.1881648   4.8092857  64.5472745  48.4717507   4.3498494
  65.7263756  49.4157763   4.2477948  61.7754481  43.8778585  11.3304952
  60.9622346  44.1772756  11.7370145  62.2713475  43.4834274  12.0479435
  63.9263059  53.8736342  13.2639217  63.8839237  54.0997188  12.3347749
  64.8425758  53.6399717  13.4125018  73.1026429  47.4638845  10.8669175
  72.9644328  47.6540441   9.9390365  72.7462648  48.2258228  11.3237227
  61.2668556  41.4496941  16.9466187  61.9067935  41.3085700  16.2489151
  60.4346086  41.1631454  16.5704789  73.1295809  49.5315372  15.8780447
  73.5632316  49.4390661  16.7263501  73.8427390  49.5072873  15.2400463
  62.0428859  50.7499371  13.0601180  62.8369458  50.2549691  12.8583755
  61.3320552  50.2217234  12.6968885  66.8623704  53.1317466  17.4113547
  66.9160726  53.7008403  18.1791263  65.9938485  53.3019352  17.0467585
  58.3511623  44.8942453   9.1360933  57.4209211  44.8326908   9.3530895
  58.4469095  44.3718405   8.3397574  58.2697172  41.4197266  11.7239174
  58.5303989  42.3342599  11.6148335  59.0914344  40.9521708  11.8735787
  73.9911359  49.5739073  18.4113332  74.1847249  50.4784884  18.6572607
  73.8911977  49.1146492  19.2451917  65.8211804  47.2977729  18.9700479
  66.7503864  47.4488888  18.7969447  65.4002834  47.3861749  18.1149126
  64.6200135  51.3228393  16.7399017  64.4811221  50.9547177  17.6124955
  63.8314732  51.8376032  16.5682975  65.2148287  56.4237489   8.0824553
  65.3900043  55.9525533   8.8970176  64.5281075  57.0503256   8.3105814
  66.1705351  50.7009996  14.1287855  65.8355183  50.6610766  15.0245505
  65.6709296  50.0354712  13.6558265  69.1064542  48.0466030   4.4024914
  68.4893713  47.3212858   4.3057967  68.6381031  48.8075390   4.0591989
  59.7809373  59.5726852  14.8564414  60.0205971  60.2045376  15.5343432
  58.9378569  59.2214892  15.1429773  60.8963088  42.2651454   3.5246219
  60.0192554  42.1440255   3.1608465  61.3720841  41.4737533   3.2725107
  52.4165228  47.0528614  13.6187726  53.1036268  46.7390344  13.0308741
  52.2613357  47.9569979  13.3454977  57.2199950  41.9418811  18.0472750
  57.1358139  41.3344480  17.3123159  56.3982657  42.4327829  18.0482246
  64.2937235  55.3805975  17.2605918  64.2207406  56.1860946  17.7725222
  63.8514628  55.5797940  16.4353939  64.0827014  54.6177745  10.7708739
  63.2994536  55.1599425  10.8646964  64.7819759  55.1351724  11.1702980
  67.3923664  40.4272374  13.4142945  67.8892364  39.6742336  13.0944015
  66.6210646  40.4636691  12.8486154  75.2453422  46.1312740  15.0561236
  75.2343298  47.0137455  14.6855169  74.3770801  45.7784290  14.8615773
  68.4753445  49.1844061  10.9881368  67.5409724  49.3045524  10.8186072
  68.6530113  48.2816528  10.7241378  63.9758633  42.5689757  13.1414629
  63.6056421  42.0160797  13.8295535  64.4717726  41.9647891  12.5889629
  71.8625996  45.0261381  11.5231402  72.3286449  45.8589372  11.4491705
  72.3133497  44.5606362  12.2276661  61.8047832  53.0287252  20.2369647
  62.5057291  53.6623735  20.3899041  61.3342947  53.3701984  19.4765286
  69.9302227  51.3705202   8.5217554  70.2062071  51.2561796   9.4311428
  69.0606726  50.9722687   8.4829727  69.8342659  37.3941968  15.5622303
  68.9205739  37.6246194  15.7304510  70.2635761  37.4780412  16.4136336
  69.6049118  45.5831860  18.0622197  68.9520568  45.8307767  17.4074650
  69.9829498  44.7695998  17.7284675  66.5656291  55.6191553  12.1650368
  66.7478686  54.8013209  12.6278120  67.3889278  55.8359245  11.7275258
  66.8998457  54.5459738   9.4265416  67.4286223  54.0352192   8.8135578
  67.1626677  54.2302268  10.2910949  57.4015550  52.5623607  17.1700750
  57.9868987  51.8167295  17.3028654  57.2040388  52.8727564  18.0537414
  60.2554205  55.5974855  12.1863192  59.5864580  56.0820982  11.7027232
  60.1167075  55.8444075  13.1006571  51.9933204  45.1329207  15.8905193
  52.0317304  44.5992798  16.6842311  51.4873497  44.6064413  15.2716170
  55.6241782  43.8593310   8.9659124  55.9195223  42.9503988   8.9126178
  54.7229818  43.8381049   8.6440127  67.5327861  55.5800574  15.7709533
  67.4079000  54.7790313  15.2620478  68.1906952  56.0746767  15.2823503
  59.1536029  41.9349306  14.9486673  58.4322615  42.5485274  14.8094146
  59.9429285  42.4707071  14.8703319  69.5962769  53.3809594  17.3989083
  68.6493105  53.2614945  17.3267410  69.9445542  52.4932092  17.4815344
  57.3529624  41.5407407   9.0898449  57.0242330  40.6604786   8.9073555
  57.7068994  41.4855076   9.9774839  66.6009202  53.1762310  13.5993435
  66.4534165  52.2479017  13.7801005  67.4262696  53.1982401  13.1150510
  60.4671447  41.8280377   9.4573927  60.8067519  42.3566298   8.7352536
  60.9143567  42.1660783  10.2332494  70.2043324  53.9990869  14.6858308
  71.1289872  53.7933730  14.5482759  70.0358628  53.7507270  15.5947649
  62.4539594  40.3254999   7.6567220  63.1747956  40.7036251   7.1530937
  61.8304898  41.0443875   7.7602198  66.5970717  41.0300148   8.5925552
  66.8134331  41.9124785   8.2914380  66.1164784  40.6386361   7.8631194
  61.3369938  43.9885861  15.1696297  61.1914519  44.3026164  16.0620578
  60.8595142  44.6070761  14.6167195  63.1966321  40.9788409  15.2177186
  63.1827890  40.0829502  14.8809484  63.9138749  40.9859072  15.8515472
  69.9938641  54.5176536  10.0420399  70.1675518  53.9522959   9.2894252
  70.4867532  55.3177431   9.8599889  55.8115600  46.5291205  18.1083958
  55.2669068  47.3051013  18.2404232  56.6894950  46.8762010  17.9503079
  62.6003217  39.8602789  10.4864757  62.7219128  38.9319435  10.6855644
  62.3105259  39.8741475   9.5743072  65.4694407  37.5457699  13.6231476
  65.4916104  37.6097033  12.6683456  65.8862466  36.7062208  13.8171983
  75.8478032  47.2812959  11.6610699  76.2909178  46.5320284  11.2629822
  74.9704542  47.2723095  11.2784431  70.9813813  53.8343300   7.1417298
  71.6764718  54.4549993   7.3604612  71.3236963  52.9838652   7.4169675
  56.5981622  45.6561101  21.0014115  55.8563358  45.8043737  21.5878745
  56.2774366  45.9169367  20.1380864  72.8805236  51.2843006   8.6704628
  73.4056560  51.6230279   7.9453948  72.7927589  50.3490021   8.4867763
  64.5645897  57.3514989  13.0299881  64.1250887  56.8591368  13.7232738
  65.3154014  56.8087957  12.7891957  57.0438236  53.5426530  13.0324510
  57.8696256  53.2430302  12.6523153  56.6932288  52.7734153  13.4814298
  62.0119769  52.8952998  15.1022183  61.3899778  52.2323703  14.8024411
  62.6824636  52.9214130  14.4195831  55.2446841  51.4612857  13.9913443
  54.4078749  51.0335031  13.8097444  55.2170486  51.6545300  14.9284234
  61.5733276  51.4456922   8.5780644  61.7221396  52.1292386   7.9247316
  62.3799719  51.4262012   9.0930099  74.1915214  51.1865318  21.5330576
  73.9000022  51.5495298  22.3694037  73.5787345  50.4732326  21.3543908
  75.3910896  48.7518197  14.0533147  76.2257788  49.1908001  14.2170707
  75.5270025  48.2756851  13.2341392  72.4402402  46.3097932  20.0010634
  72.9156524  46.5025578  19.1929486  71.5167968  46.3657118  19.7554018
  59.3285909  47.4722099   9.5841713  59.0831951  46.5684429   9.7821923
  59.4981823  47.4739250   8.6421191  58.5981556  43.2050457   7.0827874
  57.9050801  43.2794812   6.4267910  58.3533308  42.4410801   7.6049391
  67.2695213  34.7646058  14.4867365  67.5496967  34.0969247  15.1127791
  68.0545820  34.9575154  13.9742029  65.0728681  53.9405052   6.0492391
  64.5002649  54.5595239   5.5962863  65.6461475  54.4904414   6.5832313
  71.1404071  43.1863692  18.2338940  72.0921494  43.2861790  18.2551164
  70.9707522  42.3941961  18.7437024  68.2925941  54.2242202   7.1800973
  69.2256614  54.1587764   7.3833849  68.2049154  55.0598469   6.7215506
  70.9213958  53.5408073   4.1404921  70.8427589  53.2067936   5.0340679
  71.7423625  54.0329841   4.1396393  73.6192149  46.4069812  17.3481240
  73.5868469  45.4685813  17.5340923  74.2292773  46.4853849  16.6147064
  65.4575480  45.2765865   3.3908444  66.4034585  45.1472073   3.4596862
  65.0789725  44.5380527   3.8677872  73.7686638  43.1980855  17.3939523
  73.2525686  42.4139312  17.2069452  74.6526586  42.8699572  17.5586042
  71.4297365  36.9421871  13.3535335  71.2322186  36.6336959  14.2378667
  72.0397070  37.6683510  13.4833265  79.4368699  47.4685819  16.4887276
  80.1672087  47.2071107  17.0494980  78.8275644  46.7314541  16.5289344
  77.5183996  45.6093681  17.0861728  76.7917160  45.4749646  16.4778219
  77.1031283  45.9170510  17.8918446  63.6418397  43.2015841   3.3263329
  62.7349853  42.9048954   3.4026042  63.9194378  42.9045659   2.4597615
  54.5596338  44.5222205  13.7762375  54.2399122  43.6687513  13.4836749
  54.0129766  44.7370783  14.5320343  58.3376245  47.2384646  17.4931882
  58.5562255  48.1701754  17.5119916  58.7502019  46.8792620  18.2786686
  65.2580463  37.7452731   9.4807570  64.4481191  37.3999816   9.8562816
  65.9464880  37.4360275  10.0695182  67.1871011  36.8230778  11.1031867
  67.7402050  37.2426231  11.7621890  67.4241097  35.8966526  11.1454823
  62.4117182  40.0602777   3.4675308  63.2736346  40.3857675   3.7271125
  62.5967526  39.2734272   2.9548374  54.4284598  48.1425116  15.7455497
  53.7348069  47.7279069  15.2325451  55.1757589  48.1845653  15.1488916
  70.5649818  38.9331303  10.6110531  69.9848487  39.5916107  10.2288583
  70.2985751  38.1108648  10.1997949  69.0153385  38.3336361  12.8131851
  69.5153163  38.4452895  12.0046170  69.6588993  38.0297414  13.4532660
  56.3421340  48.0743370  13.6221512  56.3192028  48.1731057  12.6703395
  56.6521977  48.9208521  13.9438678  59.0008718  50.1319525  17.7368126
  59.9551971  50.1003467  17.6698058  58.8021241  49.6710149  18.5518352
  59.5908100  48.7020641  20.3038924  60.4100989  49.1964720  20.3273761
  59.8644908  47.7852609  20.2756491  69.3474696  41.0931393   9.6666879
  68.4600551  41.3781044   9.4487074  69.7628685  40.9325157   8.8194156
  72.6989232  41.1177914  13.3821219  73.4749622  41.6074367  13.6545835
  71.9737367  41.5435969  13.8393088  75.1361791  41.8305534  14.4395159
  75.7306282  41.5901270  13.7288467  75.2088375  41.1112664  15.0668695
  57.3558947  55.6739145  14.7538324  57.2213415  54.9139545  14.1876322
  56.9391009  56.3980044  14.2867113  68.4917910  50.8576068   3.7614899
  69.1953760  51.0626071   4.3772555  67.7680558  51.4252830   4.0263983
  69.3215720  46.6085929   9.8817169  69.2650921  47.0654481   9.0424802
  69.8744062  45.8476614   9.7040012  73.1320526  42.3975661  10.7067289
  72.8757460  41.9972297  11.5375497  72.5073394  43.1119455  10.5817428
  77.4432864  45.1371734  13.2138580  76.8832422  45.2064924  13.9870142
  76.8376367  44.9612719  12.4938077  60.5128073  56.5708462  14.9656767
  60.3960457  57.5153894  14.8635457  59.6920519  56.2682023  15.3542566
  70.4004607  51.2958597   5.8113359  71.2350211  50.8639796   5.6290834
  70.2388950  51.1240611   6.7390254  70.0550499  47.7990711   7.1769699
  69.9999303  47.6334982   6.2358143  69.4296555  48.5066743   7.3331888
  54.8443014  43.0358775  21.0031121  55.4901878  42.5257729  21.4918346
  54.6360165  43.7727457  21.5774546  63.3646625  37.2998820   6.7555017
  63.3525295  38.2440659   6.9123288  64.2570047  37.1168965   6.4614478
  61.5382587  57.2236723  18.1812695  62.4409833  57.2560334  18.4979190
  61.3119957  56.2937174  18.1959031  63.2936189  55.9767710  14.8422774
  62.3431820  55.9769572  14.7287146  63.5968675  55.2300445  14.3258808
  67.1798744  33.8941596  11.0100954  66.4131140  33.3400083  11.1557636
  67.5909449  33.9663465  11.8715105  79.0288882  61.8128248  15.9068536
  79.6667292  61.6934996  15.2031876  78.9109725  62.7609092  15.9656488
  75.8378588  61.7655676  15.8430061  75.4997100  61.6496741  14.9550596
  76.7068357  61.3646842  15.8231067  71.6965404  63.6191153  11.8326952
  71.1330269  63.5281090  11.0643239  71.5817799  62.7991057  12.3129444
  76.3198371  62.9190528  21.8016266  76.3087012  62.5243326  20.9296770
  76.4819011  62.1856601  22.3950038  69.2429836  65.1142344  14.6711172
  70.0351128  64.7733169  14.2557471  69.4826486  65.2237320  15.5913325
  77.2764963  67.2862121   7.1441417  76.6252943  67.8716201   6.7575430
  78.0709326  67.8168315   7.2036454  71.2020590  64.3751258   7.5428551
  71.9751466  63.8280245   7.4041427  71.5545989  65.2395507   7.7543012
  73.0405633  65.7027640  20.7495450  72.7495499  66.6073271  20.6342117
  73.6762617  65.7444168  21.4639520  73.9661839  63.0804489  17.3396810
  74.5625412  62.8560511  16.6253773  74.0236811  62.3389234  17.9422258
  73.5386868  60.5343924   5.1747001  73.7912389  60.0125445   4.4130464
  72.6011427  60.3710069   5.2773684  78.5830151  59.5379702  12.9821744
  79.3693240  59.1199125  12.6312161  78.8468855  60.4425794  13.1503392
  78.7540228  64.9752553   7.6810401  78.1186061  65.0487179   8.3931306
  78.4237634  65.5646151   7.0029480  83.9838578  59.4754935  13.8854723
  84.7163750  58.9054152  14.1192552  83.2277934  59.0876536  14.3261228
  73.2583157  62.4372030   7.3771376  73.1419415  61.7616933   8.0452460
  73.3685417  61.9504404   6.5603529  75.6014698  61.8982177  11.0818065
  75.2372905  61.3712798  11.7930987  76.4581813  61.5080646  10.9084550
  81.5063998  53.1876510  18.3449331  81.1747323  54.0571920  18.1210546
  80.9109612  52.8712794  19.0243362  75.2420185  56.9272077   6.0779414
  75.4094587  57.7952313   6.4449885  75.0517354  57.0899358   5.1540703
  77.9995518  65.3889055  17.7445244  77.6996241  66.2914094  17.6361051
  77.6546577  65.1221239  18.5966397  71.4507999  61.8402852  13.7781948
  70.5258496  61.7079066  13.9859640  71.6992412  62.6197072  14.2751891
  81.3992661  57.9071596  15.4242681  80.4909539  57.8387004  15.1301442
  81.3480257  58.3843541  16.2524507  75.2209405  59.3829734   7.0626080
  75.1009031  59.8286785   7.9011561  74.5261994  59.7315052   6.5039619
  68.8116810  61.4836126  14.6125737  68.9409191  61.7370605  15.5265149
  68.1314262  62.0763834  14.2930393  72.9816298  72.1533376  10.7116212
  72.9040327  73.1041201  10.7904692  72.3777941  71.8079248  11.3691138
  75.4733527  59.3261241  23.3677579  74.6966861  59.8855161  23.3580443
  76.1124090  59.8118024  23.8892449  83.2654308  56.1088034  17.2020555
  82.6228688  56.4020567  16.5560350  82.7609236  55.9940954  18.0073752
  80.9194472  59.8551207   7.8906414  81.8312328  60.0878594   7.7154112
  80.4104119  60.4388251   7.3281493  73.7279900  62.1346695  22.9295546
  74.4694584  62.6731739  22.6530369  73.0216885  62.7612983  23.0867097
  79.2035239  64.2775835  21.5267707  79.6118595  63.8358246  20.7822339
  78.4812501  63.7028463  21.7801900  75.5566309  59.2148442  18.9001264
  76.4027504  59.6387855  19.0435913  75.4964947  58.5582066  19.5939827
  79.5264054  64.8377026  15.2819996  78.8972916  65.0022740  14.5796064
  79.1389716  65.2518635  16.0530960  83.4053286  65.7731464  12.6364360
  82.7204324  66.1530365  12.0861393  83.4897135  66.3826790  13.3696307
  78.7065755  56.8752810  20.5582438  78.4626686  57.6294871  20.0216713
  78.9825685  57.2538158  21.3929685  80.6604217  63.4191423  19.2359703
  80.8721113  64.0623182  18.5594084  80.6133966  62.5853739  18.7681633
  78.2630446  56.0309243  16.1396275  77.4014925  56.3290497  16.4313013
  78.2892881  56.2479642  15.2077308  75.0792016  64.5751434  12.5470081
  75.5430361  64.8539137  11.7574703  74.8148814  63.6734878  12.3643172
  71.9716097  64.1222915  15.4849844  72.5417454  64.5510184  14.8467329
  72.5624209  63.8405500  16.1834030  74.0160902  60.6974586   9.3559646
  74.7184945  61.1495630   9.8233573  73.6841530  60.0558405   9.9839539
  67.7586236  58.9558139  14.6576780  66.9685290  59.2115667  14.1816890
  68.2497483  59.7706477  14.7628820  81.7750045  66.2963378  17.4082061
  82.5967489  65.8943565  17.1264742  81.7712448  66.1931612  18.3598176
  69.7100981  59.3202718  11.6160256  68.9132144  59.4321412  12.1343752
  69.4826573  59.6589370  10.7501147  75.5406649  65.8447421  19.5642771
  75.6051081  66.3067829  20.4000943  74.8317573  65.2144786  19.6925081
  66.0423939  59.2088629  17.0891771  66.2931977  60.0935639  17.3549346
  66.5783487  59.0293231  16.3166862  89.8656038  62.6402126  13.7567032
  89.1119747  62.0709525  13.6011036  90.0003580  62.6064791  14.7037667
  75.2554666  67.5115529   9.4321751  75.1200341  68.3567065   9.8606599
  75.7964479  67.7134806   8.6687685  68.7084064  65.0290967  10.0049676
  69.2208584  65.8234217  10.1555241  69.3606777  64.3317257   9.9383278
  70.5178949  68.1456723  12.0872430  70.6945577  69.0674688  11.8993414
  71.3135782  67.8315142  12.5166809  76.8823143  68.1339095  23.5622093
  76.4386997  67.3475474  23.2442998  77.5440356  68.3218246  22.8965984
  71.6410264  69.6634897  18.0882772  72.1917689  69.5351960  17.3159766
  70.8021740  69.9629786  17.7377665  78.9804381  68.4141895  21.5903495
  78.9622856  69.2350776  21.0983764  79.9024301  68.2895970  21.8153636
  75.4377435  65.9286025  22.4327003  75.9705772  65.1674313  22.2026311
  74.9091516  65.6359677  23.1751158  78.6047130  51.0346091  17.9620645
  78.2611399  51.9247732  17.8859755  78.9726093  50.8447748  17.0990230
  66.6732981  63.3579621  10.7809247  67.5108203  63.7676630  10.5642955
  66.8511248  62.4179063  10.7509441  78.5697413  61.0254702   6.4693080
  78.0544036  61.7959306   6.7081467  78.2974721  60.3519838   7.0926141
  76.1544524  55.8704403  11.5278318  75.2986120  55.4811253  11.3483957
  76.5671476  55.9496363  10.6678104  77.6843670  53.4050746  15.9269878
  77.1808466  53.3680881  15.1137683  77.9774277  54.3143489  15.9866535
  73.9286556  53.4889476  14.9336060  74.7939553  53.2932284  14.5741949
  73.9964065  53.2599827  15.8605417  83.5431687  63.7787056   8.4046253
  82.7661130  63.4398216   7.9601415  84.2223168  63.7839680   7.7301218
  78.3583716  58.8981794   8.2952861  78.0533851  59.2127943   9.1463004
  79.3114158  58.9763214   8.3380194  76.8030148  65.0572017   9.9445815
  76.2751509  64.3224777   9.6319053  76.3017650  65.8346694   9.6985783
  81.7822994  63.2521038  15.0612861  81.1246668  63.9420299  15.1492990
  82.5863393  63.6417470  15.4046848  71.5348875  55.7191683  12.3052427
  72.1092627  55.4966865  11.5725620  72.1219858  55.7880378  13.0581028
  80.5928453  61.6065410  13.1116803  81.1060334  62.2395402  13.6138513
  81.2429676  61.0066606  12.7460163  71.8618462  57.7496145   6.3248312
  71.0255775  58.0870831   6.6457587  71.7223232  57.6145124   5.3875449
  73.8371543  52.5932932  11.0327496  73.1835955  52.2781950  10.4084111
  73.7952017  51.9708673  11.7587319  74.9482748  62.8752227   2.9480788
  74.0409810  62.6441481   3.1471937  75.4453780  62.0789847   3.1354770
  77.0709283  59.0814866  15.3575144  76.1531845  59.3029813  15.1996832
  77.4869427  59.1561176  14.4986851  77.8544331  60.4806282  10.4877824
  78.6016150  60.9927679  10.1784946  78.1235921  60.1590334  11.3482217
  76.1270981  62.9764822   7.4704778  75.2182201  62.6923855   7.5677248
  76.1566065  63.3963901   6.6108085  81.3590249  66.5871412  11.2395946
  80.9052576  65.7462322  11.2961136  80.7284215  67.2232810  11.5770726
  80.3023168  57.5163398  12.4696613  79.5645925  57.0040784  12.8006856
  80.5549942  57.0763779  11.6579890  79.8023188  68.4247909  12.1745764
  80.0946162  68.9852966  11.4558130  80.3121809  68.7176470  12.9298923
  80.4034796  50.2939650  13.0638383  80.7093672  49.4337013  12.7764298
  81.1287400  50.8857270  12.8637376  66.6959152  60.6970336  11.4519980
  66.4983552  60.1039697  10.7271047  66.1405816  60.3922547  12.1695919
  74.6755875  60.5893443  13.5714574  74.7304485  59.6367279  13.4957050
  73.8647077  60.7452882  14.0555872  75.8247069  64.5173566   4.8092857
  75.3866499  63.8009425   4.3498494  76.5657510  64.7449681   4.2477948
  72.6148235  59.2070503  11.3304952  71.8016101  59.5064673  11.7370145
  73.1107229  58.8126191  12.0479435  74.7656813  69.2028260  13.2639217
  74.7232992  69.4289106  12.3347749  75.6819512  68.9691634  13.4125018
  78.2122447  59.6712327  20.1619846  78.5671835  59.8983800  21.0214312
  78.8594578  60.0030704  19.5397102  83.9420184  62.7930763  10.8669175
  83.8038083  62.9832359   9.9390365  83.5856403  63.5550146  11.3237227
  72.1062310  56.7788858  16.9466187  72.7461689  56.6377617  16.2489151
  71.2739841  56.4923372  16.5704789  83.9689564  64.8607290  15.8780447
  84.4026070  64.7682579  16.7263501  84.6821144  64.8364791  15.2400463
  72.8822614  66.0791289  13.0601180  73.6763212  65.5841609  12.8583755
  72.1714306  65.5509152  12.6968885  77.7017458  68.4609384  17.4113547
  77.7554481  69.0300320  18.1791263  76.8332240  68.6311269  17.0467585
  69.1905377  60.2234370   9.1360933  68.2602966  60.1618826   9.3530895
  69.2862849  59.7010323   8.3397574  69.1090926  56.7489183  11.7239174
  69.3697744  57.6634516  11.6148335  69.9308099  56.2813626  11.8735787
  84.8305113  64.9030991  18.4113332  85.0241003  65.8076801  18.6572607
  84.7305731  64.4438410  19.2451917  76.4841424  54.7888881  20.9103660
  75.8369339  55.4878831  20.8168136  77.2542439  55.2225025  21.2779908
  79.8920222  65.0537733  23.9854213  79.7405728  64.8248285  23.0684297
  79.8824901  66.0108335  23.9985558  76.6605558  62.6269646  18.9700479
  77.5897618  62.7780806  18.7969447  76.2396588  62.7153667  18.1149126
  75.4593890  66.6520311  16.7399017  75.3204976  66.2839095  17.6124955
  74.6708486  67.1667950  16.5682975  76.0542042  71.7529407   8.0824553
  76.2293798  71.2817450   8.8970176  75.3674830  72.3795173   8.3105814
  77.0099105  66.0301913  14.1287855  76.6748938  65.9902683  15.0245505
  76.5103051  65.3646629  13.6558265  70.9843349  61.4369543  19.6540436
  70.8463147  60.7049782  20.2551975  71.8948273  61.3478443  19.3724624
  73.6125650  61.1489503  19.1424116  74.3225268  60.5082695  19.1010734
  73.5694958  61.4002398  20.0650296  81.6012428  68.0856856  22.0630695
  81.5424975  67.4016076  21.3961278  82.0031947  68.8275846  21.6111321
  70.6203127  74.9018770  14.8564414  70.8599725  75.5337294  15.5343432
  69.7772324  74.5506810  15.1429773  71.7356843  57.5943372   3.5246219
  70.8586309  57.4732173   3.1608465  72.2114596  56.8029450   3.2725107
  81.6029836  66.0496440  20.2944674  80.7156614  65.7122362  20.4171073
  82.1728387  65.3179471  20.5313440  63.2558983  62.3820532  13.6187726
  63.9430023  62.0682262  13.0308741  63.1007111  63.2861896  13.3454977
  75.1330989  70.7097892  17.2605918  75.0601161  71.5152864  17.7725222
  74.6908382  70.9089858  16.4353939  74.9220769  69.9469662  10.7708739
  74.1388291  70.4891342  10.8646964  75.6213514  70.4643642  11.1702980
  78.2317419  55.7564292  13.4142945  78.7286118  55.0034254  13.0944015
  77.4604400  55.7928608  12.8486154  86.0847176  61.4604657  15.0561236
  86.0737052  62.3429373  14.6855169  85.2164556  61.1076208  14.8615773
  77.5929673  70.6084726  19.4164076  78.3057645  71.2432191  19.3439978
  77.1019701  70.7048592  18.6004078  79.3147200  64.5135979  10.9881368
  78.3803478  64.6337441  10.8186072  79.4923868  63.6108446  10.7241378
  74.8152388  57.8981675  13.1414629  74.4450175  57.3452715  13.8295535
  75.3111480  57.2939808  12.5889629  82.7019751  60.3553298  11.5231402
  83.1680203  61.1881290  11.4491705  83.1527251  59.8898280  12.2276661
  72.6441586  68.3579170  20.2369647  73.3451046  68.9915653  20.3899041
  72.1736701  68.6993901  19.4765286  80.7695982  66.6997120   8.5217554
  81.0455826  66.5853714   9.4311428  79.9000481  66.3014604   8.4829727
  80.6736414  52.7233885  15.5622303  79.7599493  52.9538112  15.7304510
  81.1029515  52.8072329  16.4136336  80.4442872  60.9123777  18.0622197
  79.7914322  61.1599685  17.4074650  80.8223252  60.0987915  17.7284675
  77.4050046  70.9483470  12.1650368  77.5872441  70.1305126  12.6278120
  78.2283032  71.1651163  11.7275258  77.7392211  69.8751656   9.4265416
  78.2679978  69.3644110   8.8135578  78.0020431  69.5594186  10.2910949
  76.4930445  61.6543588  24.5488235  75.8171082  61.5537718  25.2190610
  77.3158079  61.4982802  25.0124232  68.2409304  67.8915525  17.1700750
  68.8262741  67.1459213  17.3028654  68.0434143  68.2019482  18.0537414
  71.0947959  70.9266772  12.1863192  70.4258335  71.4112900  11.7027232
  70.9560829  71.1735993  13.1006571  62.8326959  60.4621125  15.8905193
  62.8711058  59.9284716  16.6842311  62.3267252  59.9356331  15.2716170
  75.2353228  72.9610516  18.7845851  75.7871536  73.1242137  19.5494936
  75.5759421  73.5514954  18.1125875  80.0864102  67.7871773  24.6394505
  80.6304006  68.4001732  24.1449460  79.5050947  68.3451352  25.1561518
  66.4635537  59.1885227   8.9659124  66.7588978  58.2795906   8.9126178
  65.5623572  59.1672967   8.6440127  78.3721615  70.9092491  15.7709533
  78.2472755  70.1082231  15.2620478  79.0300706  71.4038685  15.2823503
  69.9929784  57.2641224  14.9486673  69.2716369  57.8777191  14.8094146
  70.7823039  57.7998989  14.8703319  80.4356524  68.7101511  17.3989083
  79.4886859  68.5906863  17.3267410  80.7839297  67.8224009  17.4815344
  68.1923378  56.8699325   9.0898449  67.8636084  55.9896704   8.9073555
  68.5462749  56.8146994   9.9774839  77.4402957  68.5054228  13.5993435
  77.2927919  67.5770935  13.7801005  78.2656450  68.5274318  13.1150510
  71.3065201  57.1572295   9.4573927  71.6461274  57.6858216   8.7352536
  71.7537322  57.4952701  10.2332494  81.0437079  69.3282786  14.6858308
  81.9683626  69.1225648  14.5482759  80.8752382  69.0799187  15.5947649
  74.0008642  55.5409345  18.9076995  73.6605462  54.7417158  19.3097675
  73.2947648  55.8411056  18.3353828  74.6525114  52.6258658  17.3604318
  75.4751183  52.1519136  17.2383209  74.8963177  53.4049142  17.8603005
  73.2933348  55.6546916   7.6567220  74.0141711  56.0328169   7.1530937
  72.6698653  56.3735793   7.7602198  77.4364471  56.3592065   8.5925552
  77.6528086  57.2416703   8.2914380  76.9558538  55.9678279   7.8631194
  72.1763693  59.3177778  15.1696297  72.0308273  59.6318082  16.0620578
  71.6988896  59.9362679  14.6167195  74.0360076  56.3080326  15.2177186
  74.0221644  55.4121420  14.8809484  74.7532504  56.3150990  15.8515472
  75.8886206  56.7417667  17.2630314  75.6303984  57.6634737  17.2614644
  75.3571247  56.3448101  17.9530778  80.8332395  69.8468454  10.0420399
  81.0069273  69.2814876   9.2894252  81.3261286  70.6469349   9.8599889
  73.4396971  55.1894707  10.4864757  73.5612883  54.2611353  10.6855644
  73.1499014  55.2033393   9.5743072  76.3088162  52.8749617  13.6231476
  76.3309859  52.9388950  12.6683456  76.7256221  52.0354126  13.8171983
  86.6871786  62.6104877  11.6610699  87.1302932  61.8612202  11.2629822
  85.8098296  62.6015013  11.2784431  83.7198991  66.6134924   8.6704628
  84.2450315  66.9522196   7.9453948  83.6321343  65.6781939   8.4867763
  75.3819039  70.5268997  20.7994505  75.6906166  70.2818144  21.6717204
  76.1794521  70.7315636  20.3113375  75.4039651  72.6806907  13.0299881
  74.9644642  72.1883286  13.7232738  76.1547768  72.1379875  12.7891957
  67.8831990  68.8718448  13.0324510  68.7090010  68.5722220  12.6523153
  67.5326042  68.1026070  13.4814298  72.8513524  68.2244916  15.1022183
  72.2293533  67.5615621  14.8024411  73.5218390  68.2506048  14.4195831
  66.0840595  66.7904774  13.9913443  65.2472504  66.3626949  13.8097444
  66.0564241  66.9837218  14.9284234  83.4092897  67.2467827  23.9755826
  82.6188440  67.2291966  23.4360326  83.1726251  67.7856121  24.7304863
  83.5290772  64.0960294  21.2888555  83.5788777  63.9310301  22.2304078
  83.4204695  63.2287553  20.8986436  72.4127030  66.7748839   8.5780644
  72.5615151  67.4584304   7.9247316  73.2193474  66.7553929   9.0930099
  80.8194534  60.0791222  22.6047861  81.7204397  59.9397687  22.3131859
  80.8942509  60.2445677  23.5446039  75.1537339  57.4558076  21.4501048
  74.2840649  57.7491643  21.1783636  75.3896820  58.0398521  22.1708311
  85.0308969  66.5157235  21.5330576  84.7393777  66.8787216  22.3694037
  84.4181100  65.8024243  21.3543908  86.2304651  64.0810115  14.0533147
  87.0651542  64.5199919  14.2170707  86.3663780  63.6048768  13.2341392
  83.2796157  61.6389850  20.0010634  83.7550278  61.8317496  19.1929486
  82.3561722  61.6949036  19.7554018  70.1679663  62.8014017   9.5841713
  69.9225705  61.8976347   9.7821923  70.3375578  62.8031167   8.6421191
  77.8576373  53.6737693  18.9666468  78.3758317  54.4098720  18.6412957
  77.5031506  53.9801687  19.8013227  69.4375311  58.5342375   7.0827874
  68.7444556  58.6086730   6.4267910  69.1927063  57.7702718   7.6049391
  78.1088967  50.0937976  14.4867365  78.3890721  49.4261165  15.1127791
  78.8939574  50.2867072  13.9742029  81.9797826  58.5155610  18.2338940
  82.9315249  58.6153708  18.2551164  81.8101276  57.7233878  18.7437024
  80.0012205  55.6011193  18.4198341  79.4062137  55.8816206  17.7244829
  79.7161902  56.0905094  19.1915082  84.4585904  61.7361730  17.3481240
  84.4262224  60.7977730  17.5340923  85.0686527  61.8145766  16.6147064
  76.2969234  60.6057783   3.3908444  77.2428339  60.4763991   3.4596862
  75.9183479  59.8672444   3.8677872  84.6080392  58.5272773  17.3939523
  84.0919441  57.7431230  17.2069452  85.4920341  58.1991490  17.5586042
  82.2691119  52.2713789  13.3535335  82.0715940  51.9628877  14.2378667
  82.8790825  52.9975428  13.4833265  90.2762453  62.7977736  16.4887276
  91.0065842  62.5363025  17.0494980  89.6669399  62.0606458  16.5289344
  88.3577751  60.9385599  17.0861728  87.6310914  60.8041564  16.4778219
  87.9425037  61.2462428  17.8918446  76.1807927  64.6575529  24.8509101
  77.1010936  64.8354128  25.0449147  76.1457510  63.7131574  24.6988800
  74.4812152  58.5307759   3.3263329  73.5743607  58.2340872   3.4026042
  74.7588133  58.2337577   2.4597615  65.3990092  59.8514122  13.7762375
  65.0792876  58.9979431  13.4836749  64.8523520  60.0662701  14.5320343
  69.1770000  62.5676563  17.4931882  69.3956009  63.4993671  17.5119916
  69.5895773  62.2084538  18.2786686  76.0974217  53.0744649   9.4807570
  75.2874946  52.7291734   9.8562816  76.7858634  52.7652192  10.0695182
  78.0264766  52.1522696  11.1031867  78.5795804  52.5718149  11.7621890
  78.2634852  51.2258444  11.1454823  73.2510936  55.3894694   3.4675308
  74.1130100  55.7149593   3.7271125  73.4361280  54.6026190   2.9548374
  65.2678352  63.4717034  15.7455497  64.5741823  63.0570987  15.2325451
  66.0151343  63.5137570  15.1488916  81.4043573  54.2623221  10.6110531
  80.8242242  54.9208025  10.2288583  81.1379505  53.4400565  10.1997949
  79.8547139  53.6628278  12.8131851  80.3546917  53.7744813  12.0046170
  80.4982747  53.3589331  13.4532660  73.9129135  61.5706908  25.6999692
  73.4296217  62.3707268  25.9063581  73.9990074  61.5814853  24.7467136
  67.1815095  63.4035288  13.6221512  67.1585783  63.5022975  12.6703395
  67.4915731  64.2500438  13.9438678  69.8402472  65.4611443  17.7368126
  70.7945726  65.4295385  17.6698058  69.6414996  65.0002066  18.5518352
  70.4301855  64.0312559  20.3038924  71.2494744  64.5256637  20.3273761
  70.7038662  63.1144527  20.2756491  80.1868451  56.4223311   9.6666879
  79.2994306  56.7072962   9.4487074  80.6022440  56.2617074   8.8194156
  83.5382987  56.4469832  13.3821219  84.3143377  56.9366284  13.6545835
  82.8131121  56.8727886  13.8393088  85.9755545  57.1597451  14.4395159
  86.5700036  56.9193187  13.7288467  86.0482129  56.4404582  15.0668695
  68.1952701  71.0031062  14.7538324  68.0607169  70.2431463  14.1876322
  67.7784763  71.7271962  14.2867113  80.1609474  61.9377847   9.8817169
  80.1044676  62.3946398   9.0424802  80.7137817  61.1768532   9.7040012
  83.9714280  57.7267579  10.7067289  83.7151215  57.3264215  11.5375497
  83.3467148  58.4411373  10.5817428  88.2826618  60.4663652  13.2138580
  87.7226176  60.5356841  13.9870142  87.6770122  60.2904637  12.4938077
  71.3521827  71.9000379  14.9656767  71.2354211  72.8445812  14.8635457
  70.5314273  71.5973941  15.3542566  80.8944254  63.1282628   7.1769699
  80.8393058  62.9626900   6.2358143  80.2690309  63.8358661   7.3331888
  78.2090161  65.4331540  26.5023261  79.0781321  65.6072192  26.1409896
  77.7296912  66.2525957  26.3798991  74.2040379  52.6290737   6.7555017
  74.1919049  53.5732577   6.9123288  75.0963801  52.4460883   6.4614478
  72.3776341  72.5528641  18.1812695  73.2803588  72.5852251  18.4979190
  72.1513711  71.6229092  18.1959031  74.1329943  71.3059628  14.8422774
  73.1825574  71.3061489  14.7287146  74.4362429  70.5592362  14.3258808
  78.0192499  49.2233514  11.0100954  77.2524895  48.6692001  11.1557636
  78.4303204  49.2955383  11.8715105  86.6772343  77.0947594  15.8430061
  86.3390854  76.9788659  14.9550596  87.5462111  76.6938759  15.8231067
  87.1592126  78.2482446  21.8016266  87.1480767  77.8535244  20.9296770
  87.3212765  77.5148518  22.3950038  80.0823591  80.4434262  14.6711172
  80.8744883  80.1025087  14.2557471  80.3220241  80.5529237  15.5913325
  83.8799387  81.0319558  20.7495450  83.5889253  81.9365189  20.6342117
  84.5156371  81.0736085  21.4639520  84.8055594  78.4096406  17.3396810
  85.4019166  78.1852429  16.6253773  84.8630565  77.6681152  17.9422258
  92.3457753  68.5168427  18.3449331  92.0141077  69.3863838  18.1210546
  91.7503366  68.2004711  19.0243362  82.2901754  77.1694770  13.7781948
  81.3652250  77.0370984  13.9859640  82.5386167  77.9488989  14.2751891
  92.2386416  73.2363513  15.4242681  91.3303293  73.1678922  15.1301442
  92.1874012  73.7135458  16.2524507  79.6510565  76.8128044  14.6125737
  79.7802946  77.0662522  15.5265149  78.9708016  77.4055752  14.2930393
  86.3127282  74.6553159  23.3677579  85.5360616  75.2147079  23.3580443
  86.9517845  75.1409942  23.8892449  94.1048062  71.4379952  17.2020555
  93.4622443  71.7312485  16.5560350  93.6002991  71.3232872  18.0073752
  84.5673654  77.4638612  22.9295546  85.3088338  78.0023656  22.6530369
  83.8610640  78.0904901  23.0867097  90.0428994  79.6067753  21.5267707
  90.4512350  79.1650163  20.7822339  89.3206255  79.0320380  21.7801900
  86.3960064  74.5440360  18.9001264  87.2421259  74.9679773  19.0435913
  86.3358701  73.8873984  19.5939827  89.5459509  72.2044728  20.5582438
  89.3020441  72.9586788  20.0216713  89.8219440  72.5830076  21.3929685
  91.4997972  78.7483340  19.2359703  91.7114867  79.3915100  18.5594084
  91.4527720  77.9145657  18.7681633  89.1024201  71.3601161  16.1396275
  88.2408680  71.6582414  16.4313013  89.1286635  71.5771560  15.2077308
  83.3035018  74.6178260  23.7310856  82.6733678  75.2994541  23.9646252
  83.1971106  74.5061342  22.7863994  78.5979990  74.2850057  14.6576780
  77.8079044  74.5407585  14.1816890  79.0891238  75.0998394  14.7628820
  86.3800403  81.1739339  19.5642771  86.4444836  81.6359746  20.4000943
  85.6711327  80.5436704  19.6925081  76.8817693  74.5380547  17.0891771
  77.1325732  75.4227557  17.3549346  77.4177242  74.3585148  16.3166862
  82.5815761  68.9199026  26.0936107  82.1882706  68.3665225  26.7683751
  83.3981901  69.2309605  26.4842624  85.4983722  70.3356905  23.6856363
  86.2393435  70.9364059  23.6060826  85.7301644  69.5934543  23.1274406
  80.6425060  75.5213273  21.9634593  80.5278575  74.6198530  22.2641692
  79.7869577  75.7676969  21.6119409  87.7216897  83.4631013  23.5622093
  87.2780751  82.6767392  23.2442998  88.3834111  83.6510163  22.8965984
  89.8198135  83.7433813  21.5903495  89.8016611  84.5642694  21.0983764
  90.7418055  83.6187888  21.8153636  86.2771190  81.2577942  22.4327003
  86.8099526  80.4966231  22.2026311  85.7485271  80.9651594  23.1751158
  89.4440884  66.3638008  17.9620645  89.1005154  67.2539650  17.8859755
  89.8119847  66.1739666  17.0990230  88.5237425  68.7342664  15.9269878
  88.0202220  68.6972799  15.1137683  88.8168032  69.6435406  15.9866535
  84.7680311  68.8181393  14.9336060  85.6333308  68.6224202  14.5741949
  84.8357820  68.5891745  15.8605417  82.3742630  71.0483601  12.3052427
  82.9486382  70.8258783  11.5725620  82.9613612  71.1172296  13.0581028
  84.6765298  67.9224850  11.0327496  84.0229710  67.6073867  10.4084111
  84.6345772  67.3000591  11.7587319  87.9103038  74.4106784  15.3575144
  86.9925599  74.6321731  15.1996832  88.3263182  74.4853094  14.4986851
  91.2428550  65.6231568  13.0638383  91.5487427  64.7628931  12.7764298
  91.9681155  66.2149188  12.8637376  77.5352906  76.0262254  11.4519980
  77.3377306  75.4331615  10.7271047  76.9799570  75.7214464  12.1695919
  85.5149630  75.9185361  13.5714574  85.5698240  74.9659197  13.4957050
  84.7040832  76.0744800  14.0555872  89.0516201  75.0004245  20.1619846
  89.4065589  75.2275718  21.0214312  89.6988333  75.3322622  19.5397102
  82.9456065  72.1080776  16.9466187  83.5855444  71.9669535  16.2489151
  82.1133595  71.8215289  16.5704789  79.9484681  72.0781101  11.7239174
  80.2091498  72.9926434  11.6148335  80.7701853  71.6105543  11.8735787
  81.4209606  73.4918858  18.8937999  82.0932660  73.2836220  18.2450648
  80.5939393  73.2940944  18.4543231  87.3235178  70.1180799  20.9103660
  86.6763093  70.8170749  20.8168136  88.0936194  70.5516943  21.2779908
  90.7313976  80.3829651  23.9854213  90.5799483  80.1540203  23.0684297
  90.7218656  81.3400253  23.9985558  87.4999313  77.9561564  18.9700479
  88.4291373  78.1072723  18.7969447  87.0790343  78.0445585  18.1149126
  81.8237104  76.7661461  19.6540436  81.6856902  76.0341700  20.2551975
  82.7342027  76.6770361  19.3724624  84.4519404  76.4781420  19.1424116
  85.1619023  75.8374613  19.1010734  84.4088712  76.7294315  20.0650296
  92.4406183  83.4148774  22.0630695  92.3818729  82.7307994  21.3961278
  92.8425701  84.1567764  21.6111321  83.1648338  73.4646638  20.9619755
  82.6285695  73.0137377  21.6141351  82.5765047  73.5992547  20.2190219
  92.4423590  81.3788358  20.2944674  91.5550369  81.0414279  20.4171073
  93.0122141  80.6471389  20.5313440  74.0952737  77.7112449  13.6187726
  74.7823777  77.3974179  13.0308741  73.9400866  78.6153814  13.3454977
  78.8987459  72.6002646  18.0472750  78.8145648  71.9928315  17.3123159
  78.0770166  73.0911664  18.0482246  89.0711173  71.0856209  13.4142945
  89.5679873  70.3326172  13.0944015  88.2998155  71.1220526  12.8486154
  85.6546142  73.2273592  13.1414629  85.2843930  72.6744633  13.8295535
  86.1505235  72.6231726  12.5889629  83.4835341  83.6871087  20.2369647
  84.1844800  84.3207570  20.3899041  83.0130456  84.0285819  19.4765286
  91.5130168  68.0525803  15.5622303  90.5993248  68.2830030  15.7304510
  91.9423270  68.1364247  16.4136336  91.2836627  76.2415695  18.0622197
  90.6308077  76.4891602  17.4074650  91.6617006  75.4279833  17.7284675
  87.3324200  76.9835506  24.5488235  86.6564837  76.8829635  25.2190610
  88.1551834  76.8274720  25.0124232  79.0803059  83.2207442  17.1700750
  79.6656496  82.4751130  17.3028654  78.8827897  83.5311399  18.0537414
  73.6720713  75.7913043  15.8905193  73.7104813  75.2576633  16.6842311
  73.1661006  75.2648248  15.2716170  81.0511476  70.6377583  19.3867735
  81.1152802  71.4992414  18.9745133  80.9878596  70.0251585  18.6540094
  80.5263748  72.7100716  23.0340770  81.1535787  72.3277793  23.6478294
  79.6691667  72.4914918  23.3996462  90.9257857  83.1163691  24.6394505
  91.4697761  83.7293649  24.1449460  90.3444702  83.6743269  25.1561518
  80.8323538  72.5933141  14.9486673  80.1110124  73.2069109  14.8094146
  81.6216794  73.1290906  14.8703319  83.6349852  69.9287568  21.2227325
  84.1584253  70.1749864  21.9853634  83.4162185  70.7607603  20.8030462
  79.0317133  72.1991243   9.0898449  78.7029839  71.3188621   8.9073555
  79.3856503  72.1438911   9.9774839  84.8402397  70.8701263  18.9076995
  84.4999217  70.0709076  19.3097675  84.1341403  71.1702974  18.3353828
  85.4918868  67.9550575  17.3604318  86.3144938  67.4811054  17.2383209
  85.7356932  68.7341059  17.8603005  83.0157447  74.6469696  15.1696297
  82.8702028  74.9609999  16.0620578  82.5382651  75.2654596  14.6167195
  84.8753830  71.6372244  15.2177186  84.8615399  70.7413337  14.8809484
  85.5926258  71.6442908  15.8515472  86.7279961  72.0709584  17.2630314
  86.4697739  72.9926655  17.2614644  86.1965001  71.6740019  17.9530778
  77.4903109  77.1875040  18.1083958  76.9456577  77.9634848  18.2404232
  78.3682459  77.5345845  17.9503079  87.1481916  68.2041535  13.6231476
  87.1703613  68.2680868  12.6683456  87.5649975  67.3646043  13.8171983
  78.2769131  76.3144937  21.0014115  77.5350867  76.4627572  21.5878745
  77.9561875  76.5753202  20.1380864  86.2212794  85.8560915  20.7994505
  86.5299920  85.6110062  21.6717204  87.0188276  86.0607553  20.3113375
  76.9234350  82.1196692  13.9913443  76.0866258  81.6918866  13.8097444
  76.8957995  82.3129135  14.9284234  83.7631806  72.0318622  24.6954689
  83.8119961  72.9080745  24.3132459  84.3054320  71.4896015  24.1226332
  94.2486651  82.5759745  23.9755826  93.4582195  82.5583884  23.4360326
  94.0120006  83.1148039  24.7304863  94.3684526  79.4252211  21.2888555
  94.4182531  79.2602219  22.2304078  94.2598450  78.5579470  20.8986436
  91.6588289  75.4083139  22.6047861  92.5598151  75.2689604  22.3131859
  91.7336263  75.5737594  23.5446039  85.9931094  72.7849994  21.4501048
  85.1234403  73.0783560  21.1783636  86.2290574  73.3690439  22.1708311
  95.8702723  81.8449153  21.5330576  95.5787531  82.2079133  22.3694037
  95.2574854  81.1316161  21.3543908  94.1189911  76.9681768  20.0010634
  94.5944033  77.1609414  19.1929486  93.1955477  77.0240953  19.7554018
  88.6970128  69.0029611  18.9666468  89.2152072  69.7390638  18.6412957
  88.3425261  69.3093604  19.8013227  88.9482722  65.4229894  14.4867365
  89.2284476  64.7553083  15.1127791  89.7333329  65.6158989  13.9742029
  92.8191580  73.8447528  18.2338940  93.7709003  73.9445625  18.2551164
  92.6495031  73.0525796  18.7437024  90.8405960  70.9303111  18.4198341
  90.2455892  71.2108124  17.7244829  90.5555656  71.4197012  19.1915082
  95.4474147  73.8564691  17.3939523  94.9313195  73.0723147  17.2069452
  96.3314095  73.5283407  17.5586042  93.1084873  67.6005706  13.3535335
  92.9109695  67.2920794  14.2378667  93.7184579  68.3267345  13.4833265
  87.0201681  79.9867446  24.8509101  87.9404691  80.1646045  25.0449147
  86.9851265  79.0423492  24.6988800  76.2383846  75.1806040  13.7762375
  75.9186631  74.3271348  13.4836749  75.6917275  75.3954618  14.5320343
  80.0163754  77.8968481  17.4931882  80.2349764  78.8285589  17.5119916
  80.4289528  77.5376455  18.2786686  88.8658520  67.4814613  11.1031867
  89.4189559  67.9010067  11.7621890  89.1028606  66.5550361  11.1454823
  84.8891619  73.4701687  26.8834631  84.7888346  74.4196044  26.8146722
  84.6713161  73.1419926  26.0110701  76.1072106  78.8008952  15.7455497
  75.4135578  78.3862904  15.2325451  76.8545097  78.8429488  15.1488916
  90.6940894  68.9920196  12.8131851  91.1940672  69.1036731  12.0046170
  91.3376501  68.6881249  13.4532660  84.7522889  76.8998826  25.6999692
  84.2689971  77.6999186  25.9063581  84.8383828  76.9106771  24.7467136
  78.0208849  78.7327205  13.6221512  77.9979537  78.8314893  12.6703395
  78.3309486  79.5792356  13.9438678  80.6796227  80.7903360  17.7368126
  81.6339480  80.7587303  17.6698058  80.4808750  80.3293984  18.5518352
  81.2695609  79.3604476  20.3038924  82.0888498  79.8548555  20.3273761
  81.5432417  78.4436445  20.2756491  76.5230523  73.6942610  21.0031121
  77.1689387  73.1841564  21.4918346  76.3147674  74.4311292  21.5774546
  89.0483915  80.7623458  26.5023261  89.9175075  80.9364110  26.1409896
  88.5690667  81.5817875  26.3798991  88.8586253  64.5525432  11.0100954
  88.0918649  63.9983918  11.1557636  89.2696958  64.6247300  11.8715105
  80.8628014  70.8410227  25.1006135  81.7259476  70.4847032  25.3109460
  80.2893425  70.5024122  25.7881539  93.4209515  84.2490944  26.0936107
  93.0276461  83.6957143  26.7683751  94.2375655  84.5601522  26.4842624
  91.3657503  88.0392633  23.0340770  91.9929542  87.6569711  23.6478294
  90.5085422  87.8206835  23.3996462  95.7285374  88.7993604  26.8834631
  95.6282101  89.7487961  26.8146722  95.5106916  88.4711843  26.0110701
  91.7021769  86.1702145  25.1006135  92.5653230  85.8138950  25.3109460
  91.1287179  85.8316040  25.7881539  58.4076595  14.1350060  11.3639812
  58.9516499  14.7480019  10.8694766  57.8263439  14.6929639  11.8806825
  61.7305389  13.5946115  10.7001133  60.9400933  13.5770253  10.1605632
  61.4938744  14.1334408  11.4550169  56.5302653  11.7809827  13.2268568
  57.3993813  11.9550480  12.8655203  56.0509405  12.6004244  13.1044297
  68.1895129  23.4898453   2.6313843  68.8273539  23.3705201   1.9277183
  68.0715972  24.4379297   2.6901795  65.4804618  24.5960733   8.5261573
  65.4693259  24.2013531   7.6542077  65.6425258  23.8626806   9.1195344
  62.2011879  27.3797845   7.4740757  61.9101745  28.2843476   7.3587423
  62.8368864  27.4214373   8.1884826  63.1268086  24.7574693   4.0642117
  63.7231658  24.5330716   3.3499079  63.1843058  24.0159439   4.6667564
  67.1601764  27.0659260   4.4690551  66.8602488  27.9684299   4.3606358
  66.8152824  26.7991444   5.3211703  62.1422544  33.8303581  -2.5638482
  62.0646574  34.7811406  -2.4850001  61.5384188  33.4849453  -1.9063555
  64.6339774  21.0031446  10.0922885  63.8573108  21.5625366  10.0825750
  65.2730337  21.4888229  10.6137755  72.4260555  17.7858239   3.9265862
  71.7834935  18.0790772   3.2805656  71.9215483  17.6711159   4.7319058
  62.8886146  23.8116900   9.6540852  63.6300831  24.3501944   9.3775676
  62.1823132  24.4383188   9.8112404  68.3641486  25.9546040   8.2513014
  68.7724842  25.5128451   7.5067646  67.6418747  25.3798668   8.5047207
  64.7172556  20.8918647   5.6246571  65.5633751  21.3158060   5.7681220
  64.6571194  20.2352271   6.3185134  68.6870301  26.5147231   2.0065303
  68.0579163  26.6792945   1.3041370  68.2995963  26.9288840   2.7776267
  72.5659533  27.4501668  -0.6390334  71.8810571  27.8300570  -1.1893300
  72.6503382  28.0596995   0.0941614  67.8672001  18.5523015   7.2827744
  67.6232933  19.3065076   6.7462020  68.1431932  18.9308363   8.1174991
  69.8210464  25.0961628   5.9605010  70.0327359  25.7393387   5.2839391
  69.7740212  24.2623944   5.4926940  61.1322344  25.7993120   2.2095151
  61.7023701  26.2280389   1.5712635  61.7230455  25.5175705   2.9079337
  61.6247510  20.9656548  10.4556162  60.9946171  21.6472829  10.6891559
  61.5183598  20.8539629   9.5109300  70.9356292  27.9733583   4.1327367
  71.7573736  27.5713770   3.8510049  70.9318695  27.8701817   5.0843483
  64.7012896  27.5217626   6.2888078  64.7657328  27.9838033   7.1246250
  63.9923819  26.8914991   6.4170388  60.9028253  15.2677314  12.8181413
  60.5095198  14.7143512  13.4929057  61.7194393  15.5787892  13.2087931
  63.8196214  16.6835193  10.4101670  64.5605927  17.2842346  10.3306132
  64.0514137  15.9412830   9.8519712  58.9637552  21.8691560   8.6879899
  58.8491067  20.9676817   8.9886998  58.1082070  22.1155257   8.3364716
  66.0429390  29.8109300  10.2867400  65.5993244  29.0245679   9.9688305
  66.7046603  29.9988451   9.6211291  60.8016511  31.3405102   4.8128079
  61.3523936  31.2122165   4.0405073  59.9627987  31.6399991   4.4622971
  68.1410628  30.0912100   8.3148801  68.1229103  30.9120981   7.8229071
  69.0630548  29.9666175   8.5398943  64.5983682  27.6056230   9.1572310
  65.1312019  26.8444518   8.9271618  64.0697763  27.3129881   9.8996464
  70.9429241  24.9291243   1.7858168  70.2852915  25.6190504   1.8738297
  71.7469640  25.3187675   2.1292154  70.5196496  28.2641617  -2.0358748
  70.0658823  27.4232527  -1.9793557  69.8890462  28.9003015  -1.6983967
  68.9629435  30.1018113  -1.1008929  69.2552409  30.6623171  -1.8196564
  69.4728055  30.3946674  -0.3455770  63.9263060  30.8798465  -0.0115476
  63.8839239  31.1059311  -0.9406944  64.8425759  30.6461839   0.1370325
  67.3728694  21.3482532   6.8865153  67.7278081  21.5754005   7.7459619
  68.0200825  21.6800909   6.2642408  73.1295810  26.5377495   2.6025754
  73.5632317  26.4452784   3.4508808  73.8427391  26.5134995   1.9645770
  66.8623705  30.1379589   4.1358854  66.9160727  30.7070525   4.9036570
  65.9938487  30.3081474   3.7712891  73.9911360  26.5801196   5.1358639
  74.1847250  27.4847006   5.3817914  73.8911978  26.1208615   5.9697224
  65.6447671  16.4659086   7.6348966  64.9975586  17.1649036   7.5413443
  66.4148686  16.8995230   8.0025214  69.0526469  26.7307938  10.7099520
  68.9011975  26.5018490   9.7929603  69.0431148  27.6878540  10.7230865
  65.8211805  24.3039851   5.6945786  66.7503865  24.4551011   5.5214753
  65.4002835  24.3923872   4.8394432  64.6200137  28.3290516   3.4644324
  64.4811222  27.9609300   4.3370262  63.8314733  28.8438155   3.2928281
  66.1705352  27.7072118   0.8533161  65.8355184  27.6672888   1.7490811
  65.6709298  27.0416834   0.3803572  60.1449596  23.1139748   6.3785743
  60.0069394  22.3819987   6.9797282  61.0554519  23.0248648   6.0969930
  62.7731897  22.8259708   5.8669422  63.4831515  22.1852900   5.8256041
  62.7301205  23.0772602   6.7895603  70.7618675  29.7627061   8.7876001
  70.7031221  29.0786281   8.1206584  71.1638194  30.5046051   8.3356627
  61.4860830  19.8124925   7.6865062  60.9498187  19.3615664   8.3386658
  60.8977539  19.9470834   6.9435526  59.7809374  36.5788975   1.5809720
  60.0205972  37.2107499   2.2588739  58.9378570  36.2277015   1.8675080
  70.7636082  27.7266645   7.0189981  69.8762861  27.3892567   7.1416380
  71.3334634  26.9949676   7.2558746  64.2937236  32.3868097   3.9851224
  64.2207407  33.1923069   4.4970529  63.8514629  32.5860063   3.1599246
  64.0827015  31.6239867  -2.5045954  63.2994537  32.1661547  -2.4107730
  64.7819761  32.1413847  -2.1051713  75.2453423  23.1374862   1.7806543
  75.2343299  24.0199578   1.4100476  74.3770802  22.7846413   1.5861080
  66.7535919  32.2854931   6.1409383  67.4663892  32.9202396   6.0685284
  66.2625948  32.3818797   5.3249385  61.8047833  30.0349375   6.9614954
  62.5057292  30.6685858   7.1144348  61.3342948  30.3764106   6.2010593
  69.6049119  22.5893982   4.7867504  68.9520569  22.8369890   4.1319957
  69.9829499  21.7758120   4.4529981  66.5656293  32.6253675  -1.1104326
  66.7478687  31.8075331  -0.6476573  67.3889279  32.8421368  -1.5479436
  65.6536692  23.3313793  11.2733541  64.9777329  23.2307923  11.9435916
  66.4764326  23.1753007  11.7369538  57.4015551  29.5685730   3.8946056
  57.9868988  28.8229418   4.0273961  57.2040389  29.8789686   4.7782720
  60.2554206  32.6036977  -1.0891501  59.5864581  33.0883105  -1.5727461
  60.1167076  32.8506198  -0.1748123  64.3959475  34.6380721   5.5091157
  64.9477783  34.8012342   6.2740242  64.7365668  35.2285158   4.8371182
  58.8476241  19.0579003   9.7586076  59.4748279  18.6756080  10.3723600
  57.9904159  18.8393205  10.1241769  69.2470349  29.4641978  11.3639812
  69.7910253  30.0771936  10.8694766  68.6657194  30.0221557  11.8806825
  67.5327862  32.5862696   2.4954839  67.4079001  31.7852436   1.9865785
  68.1906953  33.0808890   2.0068809  69.5962770  30.3871716   4.1234389
  68.6493106  30.2677067   4.0512716  69.9445544  29.4994214   4.2060651
  61.9562344  16.2765855   7.9472631  62.4796746  16.5228152   8.7098941
  61.7374677  17.1085890   7.5275769  66.6009204  30.1824432   0.3238742
  66.4534166  29.2541140   0.5046312  67.4262697  30.2044523  -0.1604183
  70.2043326  31.0052991   1.4103614  71.1289873  30.7995853   1.2728066
  70.0358629  30.7569392   2.3192956  69.9938642  31.5238659  -3.2334294
  70.1675519  30.9585081  -3.9860442  70.4867533  32.3239554  -3.4154804
  56.5981623  22.6623224   7.7259422  55.8563359  22.8105859   8.3124052
  56.2774368  22.9231490   6.8626171  64.5425286  32.2039202   7.5239812
  64.8512413  31.9588349   8.3962511  65.3400768  32.4085841   7.0358682
  64.5645898  34.3577112  -0.2454812  64.1250888  33.8653491   0.4478045
  65.3154015  33.8150080  -0.4862737  62.0119770  29.9015121   1.8267490
  61.3899780  29.2385826   1.5269718  62.6824637  29.9276253   1.1441138
  62.0844298  18.3796909  11.4199996  62.1332453  19.2559032  11.0377765
  62.6266812  17.8374302  10.8471639  72.5699143  28.9238032  10.7001133
  71.7794687  28.9062171  10.1605632  72.3332498  29.4626326  11.4550169
  72.6897019  25.7730499   8.0133861  72.7395023  25.6080506   8.9549384
  72.5810942  24.9057758   7.6231742  69.9800781  21.7561427   9.3293168
  70.8810644  21.6167891   9.0377166  70.0548755  21.9215881  10.2691346
  64.3143586  19.1328281   8.1746354  63.4446896  19.4261847   7.9028943
  64.5503067  19.7168726   8.8953618  74.1915215  28.1927440   8.2575883
  73.9000024  28.5557421   9.0939344  73.5787347  27.4794448   8.0789215
  72.4402404  23.3160055   6.7255941  72.9156525  23.5087701   5.9174792
  71.5167969  23.3719241   6.4799325  67.0182620  15.3507898   5.6911775
  67.5364564  16.0868925   5.3658263  66.6637753  15.6571892   6.5258534
  71.1404073  20.1925815   4.9584247  72.0921495  20.2923913   4.9796471
  70.9707523  19.4004083   5.4682331  69.1618452  17.2781398   5.1443647
  68.5668384  17.5586411   4.4490136  68.8768149  17.7675299   5.9160389
  73.6192150  23.4131935   4.0726546  73.5868470  22.4747935   4.2586230
  74.2292774  23.4915971   3.3392371  73.7686639  20.2042978   4.1184829
  73.2525687  19.4201435   3.9314758  74.6526587  19.8761695   4.2831349
  77.5183997  22.6155804   3.8107034  76.7917161  22.4811769   3.2023526
  77.1031284  22.9232633   4.6163752  65.3414174  26.3345734  11.5754407
  66.2617183  26.5124333  11.7694454  65.3063757  25.3901779  11.4234106
  58.3376246  24.2446768   4.2177188  58.5562256  25.1763876   4.2365222
  58.7502020  23.8854743   5.0031992  63.2104112  19.8179974  13.6079937
  63.1100839  20.7674331  13.5392028  62.9925654  19.4898213  12.7356007
  63.0735382  23.2477113  12.4244999  62.5902463  24.0477473  12.6308888
  63.1596321  23.2585058  11.4712443  59.0008719  27.1381648   4.4613433
  59.9551973  27.1065590   4.3943364  58.8021243  26.6772271   5.2763659
  59.5908101  25.7082764   7.0284230  60.4100990  26.2026842   7.0519068
  59.8644909  24.7914732   7.0001798  57.3558948  32.6801267   1.4783631
  57.2213416  31.9201668   0.9121629  56.9391010  33.4042167   1.0112419
  60.5128074  33.5770584   1.6902073  60.3960458  34.5216017   1.5880764
  59.6920520  33.2744146   2.0787872  67.3696408  27.1101745  13.2268568
  68.2387567  27.2842397  12.8655203  66.8903159  27.9296162  13.1044297
  61.5382588  34.2298846   4.9058002  62.4409835  34.2622456   5.2224497
  61.3119958  33.2999297   4.9204337  63.2936190  32.9829833   1.5668080
  62.3431821  32.9831694   1.4532453  63.5968676  32.2362567   1.0504115
  59.1840507  17.1888515  11.8251442  60.0471968  16.8325319  12.0354766
  58.6105917  16.8502409  12.5126846  79.0288883  38.8190371   2.6313843
  79.6667293  38.6997118   1.9277183  78.9109726  39.7671215   2.6901795
  75.8378590  38.7717799   2.5675367  75.4997101  38.6558864   1.6795902
  76.7068358  38.3708964   2.5476374  71.6965405  40.6253275  -1.4427742
  71.1330271  40.5343212  -2.2111454  71.5817800  39.8053180  -0.9625249
  76.3198373  39.9252651   8.5261573  76.3087014  39.5305449   7.6542077
  76.4819012  39.1918723   9.1195344  69.2429837  42.1204467   1.3956479
  70.0351129  41.7795292   0.9802778  69.4826488  42.2299442   2.3158632
  77.2764964  44.2924243  -6.1313277  76.6252944  44.8778324  -6.5179263
  78.0709327  44.8230438  -6.0718239  71.2020591  41.3813380  -5.7326142
  71.9751467  40.8342367  -5.8713267  71.5545990  42.2457630  -5.5211681
  73.0405634  42.7089763   7.4740757  72.7495500  43.6135393   7.3587423
  73.6762618  42.7506290   8.1884826  73.9661841  40.0866611   4.0642117
  74.5625413  39.8622633   3.3499079  74.0236812  39.3451357   4.6667564
  78.5830152  36.5441825  -0.2932949  79.3693241  36.1261248  -0.6442532
  78.8468856  37.4487917  -0.1251301  78.7540229  41.9814675  -5.5944292
  78.1186062  42.0549302  -4.8823388  78.4237636  42.5708274  -6.2725213
  73.2583158  39.4434152  -5.8983318  73.1419416  38.7679056  -5.2302233
  73.3685418  38.9566526  -6.7151164  75.6014699  38.9044299  -2.1936628
  75.2372906  38.3774920  -1.4823707  76.4581815  38.5142769  -2.3670143
  81.5063999  30.1938632   5.0694638  81.1747324  31.0634043   4.8455853
  80.9109613  29.8774916   5.7488668  77.9995519  42.3951178   4.4690551
  77.6996242  43.2976217   4.3606358  77.6546578  42.1283361   5.3211703
  71.4508000  38.8464975   0.5027255  70.5258497  38.7141189   0.7104947
  71.6992414  39.6259194   0.9997197  81.3992663  34.9133718   2.1487988
  80.4909540  34.8449127   1.8546749  81.3480259  35.3905663   2.9769813
  75.2209407  36.3891857  -6.2128613  75.1009032  36.8348907  -5.3743133
  74.5261995  36.7377174  -6.7715075  68.8116811  38.4898248   1.3371044
  68.9409193  38.7432727   2.2510456  68.1314263  39.0825956   1.0175699
  72.9816299  49.1595498  -2.5638482  72.9040328  50.1103324  -2.4850001
  72.3777942  48.8141371  -1.9063555  75.4733529  36.3323364  10.0922885
  74.6966863  36.8917284  10.0825750  76.1124092  36.8180147  10.6137755
  83.2654309  33.1150157   3.9265862  82.6228689  33.4082690   3.2805656
  82.7609238  33.0003077   4.7319058  73.7279901  39.1408817   9.6540852
  74.4694585  39.6793861   9.3775676  73.0216886  39.7675106   9.8112404
  79.2035240  41.2837958   8.2513014  79.6118597  40.8420368   7.5067646
  78.4812502  40.7090585   8.5047207  75.5566311  36.2210564   5.6246571
  76.4027506  36.6449978   5.7681220  75.4964948  35.5644189   6.3185134
  79.5264055  41.8439148   2.0065303  78.8972918  42.0084862   1.3041370
  79.1389717  42.2580758   2.7776267  83.4053287  42.7793586  -0.6390334
  82.7204325  43.1592488  -1.1893300  83.4897136  43.3888913   0.0941614
  78.7065756  33.8814933   7.2827744  78.4626688  34.6356993   6.7462020
  78.9825686  34.2600280   8.1174991  80.6604219  40.4253545   5.9605010
  80.8721114  41.0685305   5.2839391  80.6133967  39.5915862   5.4926940
  78.2630448  33.0371366   2.8641582  77.4014927  33.3352619   3.1558320
  78.2892882  33.2541765   1.9322615  75.0792017  41.5813556  -0.7284612
  75.5430363  41.8601259  -1.5179990  74.8148815  40.6797001  -0.9111522
  71.9716098  41.1285038   2.2095151  72.5417455  41.5572306   1.5712635
  72.5624210  40.8467623   2.9079337  74.0160903  37.7036709  -3.9195047
  74.7184946  38.1557752  -3.4521121  73.6841532  37.0620528  -3.2915154
  72.4641265  36.2948465  10.4556162  71.8339925  36.9764746  10.6891559
  72.3577352  36.1831547   9.5109300  67.7586237  35.9620261   1.3822086
  66.9685291  36.2177790   0.9062197  68.2497484  36.7768599   1.4874127
  81.7750047  43.3025501   4.1327367  82.5967490  42.9005688   3.8510049
  81.7712449  43.1993735   5.0843483  69.7100982  36.3264841  -1.6594437
  68.9132146  36.4383535  -1.1410941  69.4826575  36.6651493  -2.5253546
  75.5406650  42.8509544   6.2888078  75.6051083  43.3129951   7.1246250
  74.8317574  42.2206909   6.4170388  66.0423940  36.2150752   3.8137077
  66.2931978  37.0997762   4.0794653  66.5783488  36.0355353   3.0412169
  75.2554668  44.5177651  -3.8432942  75.1200342  45.3629187  -3.4148094
  75.7964480  44.7196929  -4.6067008  71.7422007  30.5969231  12.8181413
  71.3488953  30.0435430  13.4929057  72.5588148  30.9079810  13.2087931
  68.7084065  42.0353089  -3.2705017  69.2208586  42.8296340  -3.1199452
  69.3606778  41.3379380  -3.3371415  70.5178950  45.1518846  -1.1882264
  70.6945578  46.0736810  -1.3761280  71.3135783  44.8377265  -0.7587884
  74.6589968  32.0127110  10.4101670  75.3999682  32.6134263  10.3306132
  74.8907891  31.2704748   9.8519712  69.8031306  37.1983478   8.6879899
  69.6884821  36.2968735   8.9886998  68.9475824  37.4447174   8.3364716
  76.8823144  45.1401218  10.2867400  76.4386998  44.3537596   9.9688305
  77.5440358  45.3280368   9.6211291  71.6410265  46.6697019   4.8128079
  72.1917690  46.5414083   4.0405073  70.8021741  46.9691909   4.4622971
  78.9804382  45.4204018   8.3148801  78.9622857  46.2412899   7.8229071
  79.9024302  45.2958093   8.5398943  75.4377436  42.9348147   9.1572310
  75.9705773  42.1736435   8.9271618  74.9091517  42.6421799   9.8996464
  78.6047131  28.0408213   4.6865951  78.2611401  28.9309855   4.6105062
  78.9726094  27.8509871   3.8235536  66.6732982  40.3641744  -2.4945446
  67.5108204  40.7738752  -2.7111739  66.8511250  39.4241186  -2.5245253
  76.1544525  32.8766525  -1.7476375  75.2986121  32.4873376  -1.9270736
  76.5671477  32.9558486  -2.6076590  77.6843672  30.4112868   2.6515185
  77.1808467  30.3743004   1.8382990  77.9774278  31.3205611   2.7111841
  73.9286558  30.4951598   1.6581366  74.7939554  30.2994407   1.2987256
  73.9964066  30.2661950   2.5850723  76.8030149  42.0634140  -3.3308878
  76.2751511  41.3286899  -3.6435641  76.3017652  42.8408816  -3.5768910
  81.7822995  40.2583160   1.7858168  81.1246669  40.9482422   1.8738297
  82.5863394  40.6479592   2.1292154  71.5348877  32.7253806  -0.9702267
  72.1092628  32.5028988  -1.7029074  72.1219859  32.7942501  -0.2173665
  80.5928454  38.6127533  -0.1637890  81.1060336  39.2457525   0.3383820
  81.2429678  38.0128728  -0.5294530  73.8371544  29.5995055  -2.2427197
  73.1835957  29.2844072  -2.8670583  73.7952018  28.9770795  -1.5167374
  77.0709285  36.0876989   2.0820450  76.1531846  36.3091936   1.9242138
  77.4869428  36.1623299   1.2232158  77.8544332  37.4868404  -2.7876869
  78.6016151  37.9989801  -3.0969747  78.1235922  37.1652457  -1.9272476
  76.1270983  39.9826945  -5.8049915  75.2182202  39.6985978  -5.7077445
  76.1566066  40.4026023  -6.6646608  81.3590250  43.5933534  -2.0358748
  80.9052577  42.7524444  -1.9793557  80.7284217  44.2294933  -1.6983967
  79.8023189  45.4310031  -1.1008929  80.0946164  45.9915088  -1.8196564
  80.3121810  45.7238592  -0.3455770  66.6959153  37.7032459  -1.8234713
  66.4983553  37.1101820  -2.5483646  66.1405817  37.3984669  -1.1058774
  74.6755877  37.5955566   0.2959880  74.7304486  36.6429402   0.2202357
  73.8647079  37.7515005   0.7801179  72.6148237  36.2132625  -1.9449741
  71.8016102  36.5126796  -1.5384549  73.1107231  35.8188314  -1.2275259
  74.7656814  46.2090382  -0.0115476  74.7232993  46.4351229  -0.9406944
  75.6819513  45.9753757   0.1370325  78.2122448  36.6774450   6.8865153
  78.5671836  36.9045923   7.7459619  78.8594579  37.0092827   6.2642408
  72.1062311  33.7850981   3.6711494  72.7461691  33.6439740   2.9734457
  71.2739842  33.4985494   3.2950096  83.9689565  41.8669413   2.6025754
  84.4026071  41.7744702   3.4508808  84.6821145  41.8426913   1.9645770
  72.8822615  43.0853411  -0.2153514  73.6763214  42.5903731  -0.4170939
  72.1714308  42.5571274  -0.5785808  77.7017460  45.4671507   4.1358854
  77.7554482  46.0362443   4.9036570  76.8332241  45.6373392   3.7712891
  69.1905379  37.2296493  -4.1393761  68.2602967  37.1680948  -3.9223799
  69.2862851  36.7072446  -4.9357120  69.1090928  33.7551306  -1.5515519
  69.3697745  34.6696639  -1.6606359  69.9308100  33.2875748  -1.4018906
  70.5815853  35.1689063   5.6183305  71.2538906  34.9606425   4.9695954
  69.7545640  34.9711149   5.1788538  84.8305114  41.9093113   5.1358639
  85.0241004  42.8138924   5.3817914  84.7305733  41.4500532   5.9697224
  76.4841425  31.7951004   7.6348966  75.8369340  32.4940954   7.5413443
  77.2542440  32.2287148   8.0025214  79.8920223  42.0599856  10.7099520
  79.7405729  41.8310408   9.7929603  79.8824902  43.0170457  10.7230865
  76.6605559  39.6331769   5.6945786  77.5897619  39.7842928   5.5214753
  76.2396589  39.7215790   4.8394432  75.4593891  43.6582433   3.4644324
  75.3204977  43.2901218   4.3370262  74.6708487  44.1730073   3.2928281
  76.0542043  48.7591530  -5.1930140  76.2293799  48.2879573  -4.3784517
  75.3674831  49.3857296  -4.9648879  77.0099106  43.0364036   0.8533161
  76.6748939  42.9964806   1.7490811  76.5103052  42.3708752   0.3803572
  70.9843350  38.4431666   6.3785743  70.8463148  37.7111905   6.9797282
  71.8948274  38.3540566   6.0969930  73.6125651  38.1551625   5.8669422
  74.3225270  37.5144817   5.8256041  73.5694959  38.4064520   6.7895603
  81.6012430  45.0918979   8.7876001  81.5424976  44.4078199   8.1206584
  82.0031948  45.8337969   8.3356627  72.3254585  35.1416843   7.6865062
  71.7891942  34.6907582   8.3386658  71.7371293  35.2762752   6.9435526
  70.6203128  51.9080892   1.5809720  70.8599727  52.5399417   2.2588739
  69.7772325  51.5568932   1.8675080  81.6029837  43.0558563   7.0189981
  80.7156616  42.7184484   7.1416380  82.1728388  42.3241594   7.2558746
  63.2558984  39.3882654   0.3433032  63.9430024  39.0744384  -0.2445952
  63.1007113  40.2924019   0.0700284  68.0593706  34.2772851   4.7718056
  67.9751895  33.6698520   4.0368466  67.2376413  34.7681869   4.7727552
  75.1330990  47.7160015   3.9851224  75.0601162  48.5214986   4.4970529
  74.6908383  47.9151981   3.1599246  74.9220770  46.9531785  -2.5045954
  74.1388292  47.4953465  -2.4107730  75.6213515  47.4705765  -2.1051713
  78.2317420  32.7626414   0.1388251  78.7286120  32.0096377  -0.1810679
  77.4604402  32.7990731  -0.4268539  86.0847177  38.4666780   1.7806543
  86.0737054  39.3491495   1.4100476  85.2164557  38.1138331   1.5861080
  77.5929674  47.6146849   6.1409383  78.3057646  48.2494314   6.0685284
  77.1019702  47.7110715   5.3249385  79.3147201  41.5198102  -2.2873325
  78.3803479  41.6399564  -2.4568621  79.4923869  40.6170568  -2.5513316
  74.8152389  34.9043797  -0.1340064  74.4450176  34.3514838   0.5540841
  75.3111481  34.3001931  -0.6865064  72.6441587  45.3641292   6.9614954
  73.3451047  45.9977775   7.1144348  72.1736702  45.7056024   6.2010593
  80.7695983  43.7059242  -4.7537139  81.0455827  43.5915837  -3.8443265
  79.9000482  43.3076727  -4.7924966  80.6736415  29.7296008   2.2867610
  79.7599495  29.9600235   2.4549817  81.1029516  29.8134452   3.1381642
  80.4442873  37.9185900   4.7867504  79.7914324  38.1661807   4.1319957
  80.8223253  37.1050038   4.4529981  77.4050047  47.9545593  -1.1104326
  77.5872442  47.1367249  -0.6476573  78.2283033  48.1713285  -1.5479436
  77.7392213  46.8813778  -3.8489277  78.2679979  46.3706233  -4.4619115
  78.0020432  46.5656308  -2.9843744  76.4930446  38.6605711  11.2733541
  75.8171083  38.5599840  11.9435916  77.3158080  38.5044925  11.7369538
  68.2409305  44.8977647   3.8946056  68.8262742  44.1521335   4.0273961
  68.0434144  45.2081604   4.7782720  71.0947961  47.9328895  -1.0891501
  70.4258336  48.4175022  -1.5727461  70.9560830  48.1798115  -0.1748123
  62.8326960  37.4683248   2.6150500  62.8711060  36.9346838   3.4087618
  62.3267253  36.9418453   1.9961477  75.2353229  49.9672638   5.5091157
  75.7871537  50.1304260   6.2740242  75.5759423  50.5577076   4.8371182
  70.2117722  32.3147788   6.1113042  70.2759049  33.1762619   5.6990440
  70.1484843  31.7021790   5.3785400  69.6869995  34.3870921   9.7586076
  70.3142034  34.0047998  10.3723600  68.8297914  34.1685123  10.1241769
  80.0864104  44.7933896  11.3639812  80.6304008  45.4063854  10.8694766
  79.5050948  45.3513474  11.8806825  66.4635538  36.1947350  -4.3095569
  66.7588979  35.2858028  -4.3628515  65.5623574  36.1735089  -4.6314567
  78.3721617  47.9154614   2.4954839  78.2472756  47.1144354   1.9865785
  79.0300708  48.4100807   2.0068809  69.9929785  34.2703346   1.6731980
  69.2716371  34.8839314   1.5339453  70.7823041  34.8061111   1.5948626
  80.4356525  45.7163634   4.1234389  79.4886860  45.5968985   4.0512716
  80.7839298  44.8286132   4.2060651  72.7956098  31.6057773   7.9472631
  73.3190500  31.8520069   8.7098941  72.5768432  32.4377808   7.5275769
  68.1923379  33.8761447  -4.1856244  67.8636086  32.9958826  -4.3681138
  68.5462750  33.8209116  -3.2979855  77.4402958  45.5116350   0.3238742
  77.2927921  44.5833058   0.5046312  78.2656452  45.5336441  -0.1604183
  71.3065203  34.1634417  -3.8180766  71.6461275  34.6920338  -4.5402158
  71.7537323  34.5014823  -3.0422200  81.0437080  46.3344909   1.4103614
  81.9683628  46.1287770   1.2728066  80.8752383  46.0861310   2.3192956
  74.0008643  32.5471468   5.6322302  73.6605464  31.7479281   6.0342982
  73.2947650  32.8473179   5.0599135  74.6525115  29.6320780   4.0849625
  75.4751184  29.1581259   3.9628515  74.8963179  30.4111264   4.5848311
  72.1763694  36.3239901   1.8941603  72.0308275  36.6380204   2.7865885
  71.6988898  36.9424801   1.3412502  74.0360077  33.3142449   1.9422493
  74.0221646  32.4183542   1.6054791  74.7532505  33.3213113   2.5760779
  75.8886208  33.7479789   3.9875620  75.6303985  34.6696860   3.9859951
  75.3571248  33.3510224   4.6776085  80.8332396  46.8530576  -3.2334294
  81.0069274  46.2876999  -3.9860442  81.3261288  47.6531471  -3.4154804
  66.6509356  38.8645245   4.8329265  66.1062824  39.6405053   4.9649539
  67.5288706  39.2116050   4.6748386  73.4396973  32.1956829  -2.7889937
  73.5612884  31.2673475  -2.5899049  73.1499015  32.2095515  -3.7011621
  76.3088163  29.8811740   0.3476783  76.3309860  29.9451073  -0.6071237
  76.7256222  29.0416248   0.5417289  67.4375378  37.9915142   7.7259422
  66.6957114  38.1397777   8.3124052  67.1168122  38.2523407   6.8626171
  75.3819041  47.5331120   7.5239812  75.6906167  47.2880267   8.3962511
  76.1794523  47.7377758   7.0358682  75.4039653  49.6869030  -0.2454812
  74.9644643  49.1945408   0.4478045  76.1547770  49.1441997  -0.4862737
  67.8831992  45.8780570  -0.2430184  68.7090012  45.5784342  -0.6231540
  67.5326044  45.1088193   0.2059605  72.8513525  45.2307039   1.8267490
  72.2293534  44.5677744   1.5269718  73.5218392  45.2568171   1.1441138
  66.0840597  43.7966897   0.7158750  65.2472505  43.3689071   0.5342751
  66.0564242  43.9899340   1.6529541  72.9238052  33.7088827  11.4199996
  72.9726208  34.5850949  11.0377765  73.4660566  33.1666220  10.8471639
  83.4092898  44.2529950  10.7001133  82.6188442  44.2354089  10.1605632
  83.1726253  44.7918244  11.4550169  83.5290773  41.1022416   8.0133861
  83.5788778  40.9372424   8.9549384  83.4204696  40.2349675   7.6231742
  72.4127032  43.7810962  -4.6974050  72.5615152  44.4646426  -5.3507377
  73.2193475  43.7616052  -4.1824594  80.8194535  37.0853344   9.3293168
  81.7204398  36.9459809   9.0377166  80.8942510  37.2507799  10.2691346
  75.1537341  34.4620199   8.1746354  74.2840650  34.7553765   7.9028943
  75.3896821  35.0460644   8.8953618  85.0308970  43.5219358   8.2575883
  84.7393778  43.8849338   9.0939344  84.4181101  42.8086366   8.0789215
  83.2796158  38.6451972   6.7255941  83.7550280  38.8379619   5.9174792
  82.3561723  38.7011158   6.4799325  70.1679665  39.8076140  -3.6912981
  69.9225707  38.9038470  -3.4932771  70.3375579  39.8093290  -4.6333503
  77.8576375  30.6799816   5.6911775  78.3758318  31.4160843   5.3658263
  77.5031507  30.9863809   6.5258534  81.9797827  35.5217733   4.9584247
  82.9315250  35.6215830   4.9796471  81.8101277  34.7296001   5.4682331
  80.0012207  32.6073316   5.1443647  79.4062139  32.8878328   4.4490136
  79.7161903  33.0967217   5.9160389  84.4585905  38.7423852   4.0726546
  84.4262225  37.8039853   4.2586230  85.0686529  38.8207889   3.3392371
  84.6080393  35.5334896   4.1184829  84.0919442  34.7493352   3.9314758
  85.4920342  35.2053612   4.2831349  88.3577752  37.9447722   3.8107034
  87.6310915  37.8103687   3.2023526  87.9425039  38.2524550   4.6163752
  76.1807928  41.6637651  11.5754407  77.1010938  41.8416250  11.7694454
  76.1457511  40.7193697  11.4234106  65.3990093  36.8576245   0.5007682
  65.0792878  36.0041553   0.2082056  64.8523521  37.0724823   1.2565649
  69.1770001  39.5738686   4.2177188  69.3956011  40.5055794   4.2365222
  69.5895775  39.2146660   5.0031992  74.0497866  35.1471892  13.6079937
  73.9494593  36.0966249  13.5392028  73.8319408  34.8190131  12.7356007
  65.2678353  40.4779156   2.4700803  64.5741825  40.0633109   1.9570758
  66.0151344  40.5199693   1.8734222  73.9129136  38.5769031  12.4244999
  73.4296218  39.3769391  12.6308888  73.9990075  38.5876975  11.4712443
  67.1815096  40.4097410   0.3466818  67.1585784  40.5085098  -0.6051299
  67.4915732  41.2562561   0.6683984  69.8402474  42.4673565   4.4613433
  70.7945727  42.4357508   4.3943364  69.6414997  42.0064189   5.2763659
  70.4301856  41.0374681   7.0284230  71.2494745  41.5318760   7.0519068
  70.7038663  40.1206649   7.0001798  68.1952702  48.0093185   1.4783631
  68.0607170  47.2493586   0.9121629  67.7784765  48.7334085   1.0112419
  71.3521828  48.9062502   1.6902073  71.2354212  49.8507934   1.5880764
  70.5314275  48.6036063   2.0787872  65.6836770  35.3712815   7.7276427
  66.3295634  34.8611769   8.2163653  65.4753921  36.1081497   8.3019853
  78.2090162  42.4393663  13.2268568  79.0781322  42.6134315  12.8655203
  77.7296914  43.2588080  13.1044297  72.3776342  49.5590764   4.9058002
  73.2803589  49.5914374   5.2224497  72.1513713  48.6291215   4.9204337
  74.1329944  48.3121750   1.5668080  73.1825575  48.3123612   1.4532453
  74.4362431  47.5654485   1.0504115  70.0234261  32.5180432  11.8251442
  70.8865723  32.1617237  12.0354766  69.4499672  32.1794327  12.5126846
  86.6772344  54.1009717   2.5675367  86.3390856  53.9850781   1.6795902
  87.5462112  53.7000882   2.5476374  87.1592127  55.2544568   8.5261573
  87.1480768  54.8597367   7.6542077  87.3212767  54.5210641   9.1195344
  80.0823592  57.4496385   1.3956479  80.8744884  57.1087209   0.9802778
  80.3220242  57.5591360   2.3158632  83.8799388  58.0381680   7.4740757
  83.5889254  58.9427311   7.3587423  84.5156373  58.0798208   8.1884826
  84.8055595  55.4158529   4.0642117  85.4019167  55.1914551   3.3499079
  84.8630567  54.6743274   4.6667564  92.3457754  45.5230550   5.0694638
  92.0141079  46.3925961   4.8455853  91.7503367  45.2066834   5.7488668
  82.2901755  54.1756893   0.5027255  81.3652251  54.0433107   0.7104947
  82.5386168  54.9551112   0.9997197  92.2386417  50.2425636   2.1487988
  91.3303295  50.1741044   1.8546749  92.1874013  50.7197581   2.9769813
  79.6510566  53.8190166   1.3371044  79.7802947  54.0724645   2.2510456
  78.9708017  54.4117874   1.0175699  86.3127283  51.6615282  10.0922885
  85.5360617  52.2209202  10.0825750  86.9517846  52.1472065  10.6137755
  94.1048064  48.4442074   3.9265862  93.4622444  48.7374608   3.2805656
  93.6002992  48.3294995   4.7319058  84.5673655  54.4700735   9.6540852
  85.3088340  55.0085779   9.3775676  83.8610641  55.0967024   9.8112404
  90.0428995  56.6129875   8.2513014  90.4512351  56.1712286   7.5067646
  89.3206256  56.0382503   8.5047207  86.3960065  51.5502482   5.6246571
  87.2421260  51.9741896   5.7681220  86.3358703  50.8936106   6.3185134
  89.5459510  49.2106850   7.2827744  89.3020442  49.9648911   6.7462020
  89.8219441  49.5892198   8.1174991  91.4997973  55.7545463   5.9605010
  91.7114868  56.3977223   5.2839391  91.4527721  54.9207779   5.4926940
  89.1024202  48.3663284   2.8641582  88.2408681  48.6644537   3.1558320
  89.1286637  48.5833682   1.9322615  83.3035019  51.6240383  10.4556162
  82.6733680  52.3056664  10.6891559  83.1971107  51.5123465   9.5109300
  78.5979991  51.2912179   1.3822086  77.8079045  51.5469708   0.9062197
  79.0891239  52.1060517   1.4874127  86.3800405  58.1801462   6.2888078
  86.4444837  58.6421869   7.1246250  85.6711328  57.5498826   6.4170388
  76.8817694  51.5442670   3.8137077  77.1325733  52.4289679   4.0794653
  77.4177243  51.3647271   3.0412169  82.5815762  45.9261149  12.8181413
  82.1882707  45.3727347  13.4929057  83.3981902  46.2371727  13.2087931
  85.4983723  47.3419028  10.4101670  86.2393436  47.9426181  10.3306132
  85.7301646  46.5996666   9.8519712  80.6425061  52.5275395   8.6879899
  80.5278576  51.6260653   8.9886998  79.7869579  52.7739092   8.3364716
  87.7216899  60.4693136  10.2867400  87.2780753  59.6829514   9.9688305
  88.3834112  60.6572286   9.6211291  89.8198137  60.7495936   8.3148801
  89.8016612  61.5704817   7.8229071  90.7418057  60.6250011   8.5398943
  86.2771191  58.2640065   9.1572310  86.8099528  57.5028353   8.9271618
  85.7485272  57.9713717   9.8996464  89.4440886  43.3700131   4.6865951
  89.1005155  44.2601773   4.6105062  89.8119848  43.1801789   3.8235536
  88.5237426  45.7404786   2.6515185  88.0202222  45.7034921   1.8382990
  88.8168033  46.6497529   2.7111841  84.7680312  45.8243516   1.6581366
  85.6333309  45.6286325   1.2987256  84.8357821  45.5953868   2.5850723
  82.3742631  48.0545724  -0.9702267  82.9486383  47.8320905  -1.7029074
  82.9613614  48.1234418  -0.2173665  84.6765299  44.9286973  -2.2427197
  84.0229711  44.6135990  -2.8670583  84.6345773  44.3062713  -1.5167374
  87.9103039  51.4168906   2.0820450  86.9925601  51.6383853   1.9242138
  88.3263183  51.4915217   1.2232158  77.5352907  53.0324377  -1.8234713
  77.3377307  52.4393737  -2.5483646  76.9799571  52.7276587  -1.1058774
  85.5149631  52.9247483   0.2959880  85.5698241  51.9721320   0.2202357
  84.7040833  53.0806922   0.7801179  89.0516203  52.0066367   6.8865153
  89.4065590  52.2337841   7.7459619  89.6988334  52.3384744   6.2642408
  82.9456066  49.1142898   3.6711494  83.5855445  48.9731658   2.9734457
  82.1133596  48.8277412   3.2950096  79.9484682  49.0843223  -1.5515519
  80.2091500  49.9988557  -1.6606359  80.7701855  48.6167666  -1.4018906
  81.4209608  50.4980981   5.6183305  82.0932661  50.2898343   4.9695954
  80.5939394  50.3003067   5.1788538  87.3235180  47.1242922   7.6348966
  86.6763095  47.8232871   7.5413443  88.0936195  47.5579065   8.0025214
  90.7313978  57.3891774  10.7099520  90.5799484  57.1602325   9.7929603
  90.7218657  58.3462375  10.7230865  87.4999314  54.9623686   5.6945786
  88.4291374  55.1134846   5.5214753  87.0790344  55.0507707   4.8394432
  81.8237105  53.7723584   6.3785743  81.6856903  53.0403822   6.9797282
  82.7342028  53.6832484   6.0969930  84.4519405  53.4843543   5.8669422
  85.1619024  52.8436735   5.8256041  84.4088714  53.7356438   6.7895603
  92.4406184  60.4210896   8.7876001  92.3818730  59.7370116   8.1206584
  92.8425703  61.1629886   8.3356627  83.1648339  50.4708761   7.6865062
  82.6285696  50.0199499   8.3386658  82.5765048  50.6054670   6.9435526
  92.4423591  58.3850480   7.0189981  91.5550370  58.0476402   7.1416380
  93.0122142  57.6533511   7.2558746  74.0952739  54.7174572   0.3433032
  74.7823778  54.4036302  -0.2445952  73.9400867  55.6215937   0.0700284
  78.8987461  49.6064769   4.7718056  78.8145649  48.9990438   4.0368466
  78.0770167  50.0973787   4.7727552  89.0711175  48.0918332   0.1388251
  89.5679874  47.3388294  -0.1810679  88.2998156  48.1282649  -0.4268539
  85.6546143  50.2335715  -0.1340064  85.2843931  49.6806755   0.5540841
  86.1505236  49.6293849  -0.6865064  83.4835342  60.6933210   6.9614954
  84.1844801  61.3269693   7.1144348  83.0130457  61.0347942   6.2010593
  91.5130169  45.0587926   2.2867610  90.5993249  45.2892152   2.4549817
  91.9423271  45.1426370   3.1381642  91.2836628  53.2477818   4.7867504
  90.6308078  53.4953725   4.1319957  91.6617008  52.4341956   4.4529981
  87.3324201  53.9897629  11.2733541  86.6564838  53.8891758  11.9435916
  88.1551835  53.8336842  11.7369538  79.0803060  60.2269565   3.8946056
  79.6656497  59.4813253   4.0273961  78.8827898  60.5373522   4.7782720
  73.6720715  52.7975165   2.6150500  73.7104814  52.2638756   3.4087618
  73.1661008  52.2710371   1.9961477  81.0511477  47.6439706   6.1113042
  81.1152803  48.5054537   5.6990440  80.9878597  47.0313707   5.3785400
  80.5263750  49.7162838   9.7586076  81.1535788  49.3339916  10.3723600
  79.6691668  49.4977040  10.1241769  90.9257858  60.1225814  11.3639812
  91.4697762  60.7355772  10.8694766  90.3444703  60.6805392  11.8806825
  80.8323539  49.5995264   1.6731980  80.1110125  50.2131232   1.5339453
  81.6216795  50.1353029   1.5948626  83.6349853  46.9349691   7.9472631
  84.1584255  47.1811987   8.7098941  83.4162186  47.7669725   7.5275769
  79.0317134  49.2053365  -4.1856244  78.7029840  48.3250744  -4.3681138
  79.3856505  49.1501034  -3.2979855  84.8402398  47.8763386   5.6322302
  84.4999218  47.0771199   6.0342982  84.1341404  48.1765096   5.0599135
  85.4918870  44.9612698   4.0849625  86.3144939  44.4873176   3.9628515
  85.7356933  45.7403182   4.5848311  83.0157448  51.6531819   1.8941603
  82.8702029  51.9672122   2.7865885  82.5382652  52.2716719   1.3412502
  84.8753831  48.6434367   1.9422493  84.8615400  47.7475460   1.6054791
  85.5926259  48.6505030   2.5760779  86.7279962  49.0771707   3.9875620
  86.4697740  49.9988778   3.9859951  86.1965002  48.6802141   4.6776085
  77.4903111  54.1937163   4.8329265  76.9456579  54.9696971   4.9649539
  78.3682460  54.5407968   4.6748386  87.1481918  45.2103657   0.3476783
  87.1703614  45.2742990  -0.6071237  87.5649977  44.3708166   0.5417289
  78.2769132  53.3207059   7.7259422  77.5350868  53.4689695   8.3124052
  77.9561877  53.5815325   6.8626171  86.2212795  62.8623038   7.5239812
  86.5299922  62.6172184   8.3962511  87.0188277  63.0669676   7.0358682
  76.9234351  59.1258815   0.7158750  76.0866259  58.6980989   0.5342751
  76.8957997  59.3191258   1.6529541  83.7631807  49.0380744  11.4199996
  83.8119962  49.9142867  11.0377765  84.3054321  48.4958137  10.8471639
  94.2486652  59.5821868  10.7001133  93.4582196  59.5646006  10.1605632
  94.0120007  60.1210161  11.4550169  94.3684527  56.4314334   8.0133861
  94.4182532  56.2664341   8.9549384  94.2598451  55.5641593   7.6231742
  91.6588290  52.4145262   9.3293168  92.5598153  52.2751727   9.0377166
  91.7336264  52.5799717  10.2691346  85.9931095  49.7912117   8.1746354
  85.1234405  50.0845683   7.9028943  86.2290576  50.3752562   8.8953618
  95.8702724  58.8511275   8.2575883  95.5787533  59.2141256   9.0939344
  95.2574856  58.1378284   8.0789215  94.1189913  53.9743890   6.7255941
  94.5944034  54.1671536   5.9174792  93.1955478  54.0303076   6.4799325
  88.6970129  46.0091734   5.6911775  89.2152073  46.7452761   5.3658263
  88.3425262  46.3155727   6.5258534  92.8191582  50.8509650   4.9584247
  93.7709004  50.9507748   4.9796471  92.6495032  50.0587919   5.4682331
  90.8405961  47.9365233   5.1443647  90.2455893  48.2170246   4.4490136
  90.5555658  48.4259134   5.9160389  95.4474148  50.8626813   4.1184829
  94.9313196  50.0785270   3.9314758  96.3314096  50.5345530   4.2831349
  87.0201683  56.9929569  11.5754407  87.9404692  57.1708168  11.7694454
  86.9851266  56.0485614  11.4234106  76.2383848  52.1868163   0.5007682
  75.9186632  51.3333471   0.2082056  75.6917276  52.4016741   1.2565649
  80.0163755  54.9030604   4.2177188  80.2349765  55.8347711   4.2365222
  80.4289529  54.5438578   5.0031992  84.8891621  50.4763809  13.6079937
  84.7888347  51.4258166  13.5392028  84.6713163  50.1482048  12.7356007
  76.1072108  55.8071074   2.4700803  75.4135579  55.3925027   1.9570758
  76.8545099  55.8491611   1.8734222  84.7522891  53.9060948  12.4244999
  84.2689972  54.7061308  12.6308888  84.8383830  53.9168893  11.4712443
  78.0208850  55.7389328   0.3466818  77.9979538  55.8377015  -0.6051299
  78.3309487  56.5854479   0.6683984  80.6796228  57.7965483   4.4613433
  81.6339482  57.7649425   4.3943364  80.4808752  57.3356107   5.2763659
  81.2695610  56.3666599   7.0284230  82.0888499  56.8610678   7.0519068
  81.5432418  55.4498567   7.0001798  76.5230525  50.7004733   7.7276427
  77.1689388  50.1903687   8.2163653  76.3147676  51.4373415   8.3019853
  89.0483917  57.7685580  13.2268568  89.9175076  57.9426233  12.8655203
  88.5690668  58.5879997  13.1044297  80.8628016  47.8472350  11.8251442
  81.7259477  47.4909155  12.0354766  80.2893426  47.5086245  12.5126846
  93.4209516  61.2553067  12.8181413  93.0276462  60.7019265  13.4929057
  94.2375657  61.5663645  13.2087931  91.3657504  65.0454756   9.7586076
  91.9929543  64.6631833  10.3723600  90.5085423  64.8268958  10.1241769
  95.7285375  65.8055727  13.6079937  95.6282102  66.7550084  13.5392028
  95.5106917  65.4773966  12.7356007  91.7021770  63.1764268  11.8251442
  92.5653232  62.8201072  12.0354766  91.1287181  62.8378162  12.5126846
   3.1505997  77.9694048  66.8585802   2.3969706  77.4001446  66.7029807
   3.2853539  77.9356712  67.8056437   3.5612412  78.1269658  69.5906047
   4.2915801  77.8654946  70.1513750   2.9519358  77.3898380  69.6308115
   1.6427710  76.2677520  70.1880498   0.9160873  76.1333485  69.5796990
   1.2274996  76.5754349  70.9937216   1.5676577  75.7955573  66.3157351
   1.0076135  75.8648763  67.0888913   0.9620081  75.6196558  65.5956847
   2.7073864  90.1963541  66.0840514   3.4936953  89.7782964  65.7330931
   2.9712569  91.1009633  66.2522163   8.1082291  90.1338774  66.9873493
   8.8407463  89.5637991  67.2211322   7.3521647  89.7460375  67.4279999
   5.6307712  83.8460348  71.4468102   5.2991036  84.7155759  71.2229317
   5.0353325  83.5296632  72.1262132   5.5236375  88.5655435  68.5261452
   4.6153252  88.4970843  68.2320213   5.4723971  89.0427380  69.3543277
   7.3898021  86.7671873  70.3039326   6.7472402  87.0604406  69.6579120
   6.8852950  86.6524793  71.1092522   5.0438185  90.5135046  60.9925185
   5.9556041  90.7462433  60.8172882   4.5347832  91.0972090  60.4300263
   2.8309468  87.5336649  73.6601208   2.5870400  88.2878710  73.1235484
   3.1069399  87.9121997  74.4948455   2.3874160  86.6893082  69.2415046
   1.5258639  86.9874336  69.5331783   2.4136595  86.9063481  68.3096078
  13.9899752  93.2985965  66.8585802  13.2363460  92.7293363  66.7029807
  14.1247293  93.2648630  67.8056437   2.7290844  81.6929930  71.0639415
   2.3855113  82.5831571  70.9878526   3.0969806  81.5031587  70.2009000
   2.6941126  91.6838541  59.5711850   2.1787750  92.4543145  59.8100238
   2.4218435  91.0103677  60.1944912   1.8087384  84.0634585  69.0288648
   1.3052180  84.0264720  68.2156454   2.1017991  84.9727327  69.0885305
   7.6675400  94.4370895  61.5065024   6.8904843  94.0982055  61.0620186
   8.3466881  94.4423519  60.8319989   2.4827429  89.5565633  61.3971631
   2.1777565  89.8711782  62.2481775   3.4357872  89.6347053  61.4398964
   4.7172166  92.2649249  66.2135574   5.2304048  92.8979241  66.7157283
   5.3673390  91.6650445  65.8478934   1.9788045  91.1390121  63.5896594
   2.7259864  91.6511518  63.2803716   2.2479634  90.8174173  64.4500988
   4.4266882  88.1747237  65.5715384   3.6889639  87.6624623  65.9025626
   4.6793655  87.7347618  64.7598660   4.5278509  80.9523489  66.1657153
   4.8337386  80.0920852  65.8783068   5.2531114  81.5441109  65.9656147
   2.3366161  90.3296166  73.2638617   2.6915548  90.5567639  74.1233082
   2.9838292  90.6614543  72.6415872   8.0663897  93.4514602  63.9687946
   7.9281796  93.6416198  63.0409135   7.7100116  94.2133985  64.4255997
   2.3561132  86.4148131  66.5161715   2.8529832  85.6618093  66.1962785
   1.5848114  86.4512447  65.9504924  10.2090890  92.1188496  68.1580006
  10.1980766  93.0013212  67.7873940   9.3408269  91.7660047  67.9634543
   6.8263464  91.0137137  64.6250172   7.2923917  91.8465129  64.5510475
   7.2770965  90.5482119  65.3295431   4.7980127  83.3817724  68.6641074
   3.8843207  83.6121951  68.8323281   5.2273229  83.4656168  69.5155106
   4.5686586  91.5707616  71.1640968   3.9158036  91.8183524  70.5093421
   4.9466966  90.7571754  70.8303445   1.5608185  87.0175904  61.6944323
   1.7771799  87.9000542  61.3933151   1.0802252  86.6262118  60.9649965
  10.8115500  93.2688716  64.7629469  11.2546646  92.5196041  64.3648593
   9.9342010  93.2598852  64.3803201   7.6534485  94.7544133  74.3907325
   7.7032490  94.5894140  75.3322848   7.5448409  93.8871392  74.0005206
   4.9438248  90.7375061  75.7066632   5.8448110  90.5981525  75.4150630
   5.0186222  90.9029515  76.6464809  10.3548364  94.7393954  67.1551917
  11.1895256  95.1783758  67.3189477  10.4907493  94.2632607  66.3360163
   7.4039870  92.2973689  73.1029405   7.8793992  92.4901335  72.2948256
   6.4805436  92.3532875  72.8572788   1.9820087  84.3321532  72.0685239
   2.5002031  85.0682559  71.7431727   1.6275220  84.6385526  72.9031998
   2.2332681  80.7521815  67.5886135   2.5134435  80.0845004  68.2146562
   3.0183288  80.9450910  67.0760799   6.1041539  89.1739449  71.3357710
   7.0558962  89.2737547  71.3569934   5.9344990  88.3817717  71.8455795
   4.1255919  86.2595032  71.5217111   3.5305851  86.5400045  70.8263600
   3.8405616  86.7488933  72.2933852   8.5829617  92.3945569  70.4500010
   8.5505937  91.4561569  70.6359694   9.1930241  92.4729605  69.7165835
   8.7324106  89.1856612  70.4958293   8.2163154  88.4015069  70.3088222
   9.6164054  88.8575329  70.6604813   6.3934833  82.9297628  66.4554106
   6.1959654  82.6212716  67.3397438   7.0034538  83.6559266  66.5852036
  14.4006167  93.4561575  69.5906047  15.1309555  93.1946863  70.1513750
  13.7913112  92.7190297  69.6308115  12.4821464  91.5969438  70.1880498
  11.7554628  91.4625403  69.5796990  12.0668751  91.9046267  70.9937216
   2.1508479  82.8106534  64.2050637   2.7039518  83.2301988  64.8640660
   2.3878566  81.8842283  64.2473593   5.5287286  84.9207060  63.7129301
   4.9485955  85.5791864  63.3307354   5.2623219  84.0984404  63.3016719
   3.9790853  84.3212117  65.9150622   4.4790631  84.4328652  65.1064941
   4.6226461  84.0173170  66.5551430   4.3112164  87.0807150  62.7685650
   3.4238019  87.3656801  62.5505844   4.7266153  86.9200913  61.9212927
   7.6626700  87.1053671  66.4839989   8.4387091  87.5950123  66.7564606
   6.9374835  87.5311725  66.9411858  10.0999259  87.8181290  67.5413930
  10.6943750  87.5777026  66.8307238  10.1725843  87.0988421  68.1687466
   4.2853188  92.5961686  62.9835940   4.2288389  93.0530237  62.1443572
   4.8381530  91.8352370  62.8058783   8.0957994  88.3851418  63.8086059
   7.8394928  87.9848053  64.6394267   7.4710862  89.0995212  63.6836198
  12.4070332  91.1247491  66.3157351  11.8469890  91.1940680  67.0888913
  11.8013835  90.9488476  65.5956847   2.1436212  79.8817353  64.1119724
   1.3768608  79.3275839  64.2576407   2.5546917  79.9539222  64.9733876
  15.3672264  96.2815406  66.1657153  15.6731140  95.4212770  65.8783068
  16.0924868  96.8733027  65.9656147  13.0726435  96.0813733  67.5886135
  13.3528189  95.4136922  68.2146562  13.8577042  96.2742828  67.0760799
  12.9829967  95.2109270  64.1119724  12.2162363  94.6567757  64.2576407
  13.3940672  95.2831139  64.9733876   3.1505999  54.9756170  53.5831109
   2.3969707  54.4063568  53.4275113   3.2853540  54.9418835  54.5301744
   3.5612414  55.1331780  56.3151353   4.2915802  54.8717068  56.8759057
   2.9519359  54.3960502  56.3553421   1.6427711  53.2739643  56.9125805
   0.9160874  53.1395608  56.3042296   1.2274998  53.5816471  57.7182523
   1.5676579  52.8017696  53.0402657   1.0076137  52.8710885  53.8134219
   0.9620082  52.6258681  52.3202154   3.1532597  69.4774210  55.7332613
   3.7911007  69.3580957  55.0295953   3.0353440  70.4255054  55.7920565
   1.4008678  74.9508082  46.9705494   0.7496657  75.5362162  46.5839507
   2.1953040  75.4814277  47.0300531   2.7073865  67.2025664  52.8085821
   3.4936955  66.7845087  52.4576238   2.9712570  68.1071756  52.9767469
   2.8783943  72.6398514  47.5074478   2.2429776  72.7133141  48.2195383
   2.5481349  73.2292113  46.8293557   8.1082293  67.1400897  53.7118800
   8.8407465  66.5700114  53.9456629   7.3521648  66.7522497  54.1525305
   5.6307713  60.8522471  58.1713408   5.2991038  61.7217882  57.9474623
   5.0353326  60.5358755  58.8507439   2.1239232  73.0535017  57.5709321
   1.8239956  73.9560056  57.4625128   1.7790292  72.7867200  58.4230474
   5.5236376  65.5717557  55.2506758   4.6153254  65.5032966  54.9565519
   5.4723972  66.0489502  56.0788584   7.3898023  63.7733996  57.0284632
   6.7472403  64.0666529  56.3824427   6.8852951  63.6586916  57.8337829
   5.0438186  67.5197169  47.7170491   5.9556042  67.7524556  47.5418189
   4.5347833  68.1034213  47.1545570   3.3278954  71.9421797  61.3531784
   3.7362310  71.5004207  60.6086416   2.6056216  71.3674424  61.6065977
   3.6507769  72.5022987  55.1084073   3.0216631  72.6668701  54.4060141
   3.2633431  72.9164597  55.8795037   7.5297001  73.4377425  52.4628437
   6.8448039  73.8176326  51.9125470   7.6140850  74.0472752  53.1960384
   2.8309469  64.5398772  60.3846515   2.5870401  65.2940832  59.8480790
   3.1069400  64.9184119  61.2193762   4.7847932  71.0837384  59.0623780
   4.9964827  71.7269144  58.3858161   4.7377680  70.2499701  58.5945710
   2.3874161  63.6955205  55.9660352   1.5258640  63.9936458  56.2577090
   2.4136596  63.9125604  55.0341385   5.8993760  73.9609340  57.2346138
   6.7211204  73.5589527  56.9528819   5.8956163  73.8577574  58.1862253
  13.9899753  70.3048088  53.5831109  13.2363462  69.7355486  53.4275113
  14.1247294  70.2710752  54.5301744   1.0066858  75.7985057  63.3886170
   0.5630712  75.0121435  63.0707075   1.6684071  75.9864207  62.7230061
   3.1048096  76.0787857  61.4167572   3.0866571  76.8996738  60.9247841
   4.0268016  75.9541932  61.6417713   2.7290845  58.6992052  57.7884722
   2.3855114  59.5893694  57.7123832   3.0969807  58.5093710  56.9254307
   2.6941127  68.6900663  46.2957157   2.1787751  69.4605268  46.5345544
   2.4218436  68.0165799  46.9190218   1.8087385  61.0696707  55.7533955
   1.3052181  61.0326843  54.9401760   2.1017992  61.9789450  55.8130612
   7.6675402  71.4433018  48.2310330   6.8904844  71.1044177  47.7865493
   8.3466883  71.4485641  47.5565295   2.4827431  66.5627755  48.1216938
   2.1777566  66.8773905  48.9727081   3.4357873  66.6409175  48.1644271
   5.9066709  70.9166999  54.8876938   5.2490383  71.6066261  54.9757067
   6.7107108  71.3063431  55.2310925   4.7172167  69.2711372  52.9380880
   5.2304049  69.9041364  53.4402590   5.3673391  68.6712567  52.5724240
   1.9794542  79.2495696  45.6941551   1.3056240  79.5527393  46.3026509
   2.3660364  80.0524777  45.3447008   1.9788046  68.1452243  50.3141901
   2.7259865  68.6573640  50.0049023   2.2479636  67.8236296  51.1746295
   5.4833964  74.2517373  51.0660023   5.0296291  73.4108283  51.1225213
   4.8527930  74.8878772  51.4034803   4.4266883  65.1809359  52.2960690
   3.6889640  64.6686746  52.6270933   4.6793657  64.7409741  51.4843967
   3.9266903  76.0893870  52.0009841   4.2189877  76.6498927  51.2822207
   4.4365523  76.3822431  52.7563000   4.5278510  57.9585611  52.8902460
   4.8337387  57.0982975  52.6028375   5.2531115  58.5503232  52.6901453
   2.3366162  67.3358289  59.9883923   2.6915550  67.5629762  60.8478389
   2.9838293  67.6676665  59.3661179   8.0663899  70.4576725  50.6933252
   7.9281797  70.6478321  49.7654442   7.7100118  71.2196107  51.1501304
   8.0933278  72.5253252  55.7044524   8.5269785  72.4328541  56.5527578
   8.8064859  72.5010752  55.0664540   1.8261173  76.1255346  57.2377624
   1.8798196  76.6946282  58.0055340   0.9575955  76.2957231  56.8731662
   8.9548828  72.5676952  58.2377409   9.1484718  73.4722763  58.4836684
   8.8549446  72.1084371  59.0715994   4.0163937  72.7183695  63.8118290
   3.8649443  72.4894247  62.8948374   4.0068616  73.6754296  63.8249635
   1.1342820  73.6947875  53.9551932   0.7992653  73.6548645  54.8509582
   0.6346766  73.0292591  53.4822342   4.0702012  71.0403909  44.2288991
   3.4531182  70.3150737  44.1322044   3.6018500  71.8013269  43.8856066
   5.7256143  75.7502818  61.8894772   5.6668689  75.0662038  61.2225355
   6.1275662  76.4921808  61.4375398   5.7273550  73.7142401  60.1208751
   4.8400329  73.3768323  60.2435150   6.2972102  72.9825433  60.3577517
   2.3561134  63.4210253  53.2407022   2.8529833  62.6680216  52.9208092
   1.5848115  63.4574570  52.6750231  10.2090891  69.1250619  54.8825313
  10.1980767  70.0075334  54.5119246   9.3408270  68.7722170  54.6879850
   1.7173387  78.2730688  59.2428153   2.4301360  78.9078153  59.1704055
   1.2263416  78.3694554  58.4268155   3.4390914  72.1781940  50.8145445
   2.5047193  72.2983403  50.6450149   3.6167583  71.2754407  50.5505455
   6.8263466  68.0199260  51.3495479   7.2923918  68.8527251  51.2755782
   7.2770966  67.5544241  52.0540738   4.8939697  74.3643081  48.3481631
   5.1699541  74.2499676  49.2575505   4.0244195  73.9660566  48.3093804
   4.7980128  60.3879847  55.3886380   3.8843208  60.6184074  55.5568587
   5.2273230  60.4718291  56.2400413   4.5686587  68.5769739  57.8886274
   3.9158037  68.8245646  57.2338727   4.9466967  67.7633877  57.5548752
   1.5293761  78.6129432  51.9914445   1.7116155  77.7951088  52.4542197
   2.3526747  78.8297124  51.5539335   1.8635926  77.5397617  49.2529493
   2.3923693  77.0290072  48.6399655   2.1264146  77.2240147  50.1175026
   4.2107817  75.4517735  64.4658582   4.7547721  76.0647693  63.9713537
   3.6294662  76.0097313  64.9825595   2.4965330  78.5738453  55.5973610
   2.3716470  77.7728193  55.0884555   3.1544421  79.0684646  55.1087580
   4.5600238  76.3747473  57.2253160   3.6130574  76.2552824  57.1531487
   4.9083012  75.4869971  57.3079421   1.5646672  76.1700189  53.4257512
   1.4171634  75.2416896  53.6065082   2.3900165  76.1920280  52.9414587
   5.1680794  76.9928748  54.5122385   6.0927341  76.7871609  54.3746836
   4.9996097  76.7445149  55.4211726   1.5608186  64.0238027  48.4189629
   1.7771800  64.9062665  48.1178457   1.0802253  63.6324240  47.6895271
   4.9576110  77.5114415  49.8684476   5.1312987  76.9460838  49.1158329
   5.4505001  78.3115310  49.6863966  10.8115501  70.2750838  51.4874776
  11.2546647  69.5258163  51.0893899   9.9342011  70.2660975  51.1048508
   5.9451282  76.8281180  46.9681375   6.6402187  77.4487872  47.1868689
   6.2874432  75.9776531  47.2433752   7.8442705  74.2780885  48.4968705
   8.3694030  74.6168158  47.7718025   7.7565058  73.3427901  48.3131840
   7.5336611  74.9113789  63.8019903   6.7432155  74.8937928  63.2624403
   7.2969966  75.4502083  64.5568940   7.6534487  71.7606255  61.1152632
   7.7032491  71.5956263  62.0568155   7.5448410  70.8933514  60.7250513
   4.9438249  67.7437183  62.4311938   5.8448112  67.6043648  62.1395936
   5.0186223  67.9091638  63.3710116   9.1552683  74.1803197  61.3594653
   8.8637492  74.5433177  62.1958114   8.5424815  73.4670205  61.1807985
  10.3548366  71.7456076  53.8797224  11.1895257  72.1845881  54.0434784
  10.4907494  71.2694730  53.0605469   7.4039872  69.3035811  59.8274711
   7.8793993  69.4963458  59.0193563   6.4805437  69.3594997  59.5818095
   1.9820088  61.3383655  58.7930545   2.5002032  62.0744682  58.4677034
   1.6275221  61.6447648  59.6277304   2.2332682  57.7583937  54.3131442
   2.5134436  57.0907127  54.9391868   3.0183289  57.9513033  53.8006106
   6.1041541  66.1801571  58.0603017   7.0558963  66.2799669  58.0815241
   5.9344991  65.3879840  58.5701101   4.1255920  63.2657155  58.2462418
   3.5305852  63.5462167  57.5508906   3.8405617  63.7551056  59.0179159
   3.2563411  77.2180081  47.0065050   4.1894084  77.1525643  47.2097926
   3.1686623  78.0536348  46.5479583   5.8851427  76.5345952  43.9668998
   5.8065059  76.2005815  44.8604756   6.7061094  77.0267720  43.9660470
   8.5829618  69.4007691  57.1745317   8.5505938  68.4623692  57.3605000
   9.1930242  69.4791728  56.4411141   8.7324107  66.1918735  57.2203600
   8.2163156  65.4077191  57.0333529   9.6164055  65.8637451  57.3850119
   6.3934834  59.9359750  53.1799412   6.1959655  59.6274838  54.0642744
   7.0034539  60.6621389  53.3097342  14.4006168  70.4623698  56.3151353
  15.1309557  70.2008986  56.8759057  13.7913114  69.7252420  56.3553421
  12.4821465  68.6031561  56.9125805  11.7554629  68.4687525  56.3042296
  12.0668752  68.9108389  57.7182523   2.1508480  59.8168657  50.9295944
   2.7039519  60.2364110  51.5885967   2.3878567  58.8904405  50.9718900
   5.5287287  61.9269182  50.4374608   4.9485957  62.5853986  50.0552660
   5.2623220  61.1046527  50.0262026   3.9790854  61.3274240  52.6395928
   4.4790632  61.4390774  51.8310247   4.6226462  61.0235293  53.2796737
   4.3112166  64.0869273  49.4930956   3.4238021  64.3718923  49.2751151
   4.7266155  63.9263036  48.6458233   7.6626702  64.1115794  53.2085296
   8.4387092  64.6012246  53.4809912   6.9374836  64.5373848  53.6657165
  10.0999260  64.8243413  54.2659236  10.6943751  64.5839149  53.5552544
  10.1725844  64.1050543  54.8932772   3.4555379  73.8513947  43.5878976
   4.1591229  74.0563950  44.2036632   2.7318028  74.4190709  43.8528060
   4.2853189  69.6023808  49.7081246   4.2288391  70.0592360  48.8688879
   4.8381532  68.8414493  49.5304089   8.0957995  65.3913540  50.5331366
   7.8394929  64.9910176  51.3639574   7.4710863  66.1057334  50.4081505
  12.4070333  68.1309614  53.0402657  11.8469891  68.2002803  53.8134219
  11.8013836  67.9550598  52.3202154   5.3642076  74.2896476  45.6377436
   6.1987680  73.8577675  45.4554911   5.2026419  74.1178490  46.5654331
   5.0187969  70.7928590  47.0033776   4.9636772  70.6272861  46.0622220
   4.3934024  71.5004623  47.1595965   2.3333876  73.0977502  66.3287338
   3.2025035  73.2718154  65.9673973   1.8540627  73.9171918  66.2063068
   2.1436213  56.8879475  50.8365031   1.3768609  56.3337962  50.9821713
   2.5546918  56.9601344  51.6979182  13.9926351  84.8066128  55.7332613
  14.6304761  84.6872875  55.0295953  13.8747194  85.7546971  55.7920565
  10.8016058  84.7593556  55.6694138  10.4634569  84.6434620  54.7814673
  11.6705826  84.3584721  55.6495144   6.6602873  86.6129032  51.6591029
   6.0967739  86.5218969  50.8907316   6.5455269  85.7928937  52.1393521
  11.2835841  85.9128407  61.6280343  11.2724482  85.5181206  60.7560847
  11.4456480  85.1794480  62.2214115   4.2067305  88.1080224  54.4975249
   4.9988597  87.7671048  54.0821548   4.4463956  88.2175199  55.4177402
  12.2402432  90.2800000  46.9705494  11.5890412  90.8654080  46.5839507
  13.0346795  90.8106195  47.0300531   6.1658059  87.3689137  47.3692628
   6.9388935  86.8218124  47.2305504   6.5183458  88.2333386  47.5807089
   8.0043102  88.6965519  60.5759527   7.7132968  89.6011150  60.4606194
   8.6400086  88.7382047  61.2903597   8.9299309  86.0742368  57.1660887
   9.5262881  85.8498390  56.4517850   8.9874280  85.3327113  57.7686335
   8.5024337  83.5281803  45.0011078   8.7549858  83.0063324  44.2394541
   7.5648896  83.3647948  45.1037761  13.5467620  82.5317581  52.8085821
  14.3330709  82.1137005  52.4576238  13.8106324  83.4363674  52.9767469
  13.7177697  87.9690432  47.5074478  13.0823530  88.0425058  48.2195383
  13.3875104  88.5584031  46.8293557  18.9476047  82.4692815  53.7118800
  19.6801219  81.8992031  53.9456629  18.1915403  82.0814415  54.1525305
   8.2220626  85.4309909  47.2035453   8.1056884  84.7554812  47.8716537
   8.3322886  84.9442283  46.3867606  10.5652167  84.8920056  50.9082142
  10.2010374  84.3650677  51.6195064  11.4219283  84.5018525  50.7348627
  16.4701467  76.1814389  58.1713408  16.1384792  77.0509800  57.9474623
  15.8747081  75.8650673  58.8507439  10.2057654  79.9209956  45.9043491
  10.3732056  80.7890192  46.2713962  10.0154823  80.0837237  44.9804780
  12.9632987  88.3826935  57.5709321  12.6633710  89.2851973  57.4625128
  12.6184047  88.1159118  58.4230474   6.4145468  84.8340732  53.6046025
   5.4895965  84.7016946  53.8123717   6.6629882  85.6134951  54.1015968
  16.3630131  80.9009475  55.2506758  15.4547008  80.8324883  54.9565519
  16.3117727  81.3781420  56.0788584  10.1846875  82.3767613  46.8890157
  10.0646500  82.8224664  47.7275638   9.4899463  82.7252931  46.3303696
   3.7754280  84.4774005  54.4389814   3.9046661  84.7308484  55.3529226
   3.0951731  85.0701713  54.1194470  10.4370997  82.3199120  63.1941656
   9.6604331  82.8793041  63.1844520  11.0761560  82.8055903  63.7156526
  18.2291777  79.1025913  57.0284632  17.5866157  79.3958446  56.3824427
  17.7246706  78.9878834  57.8337829  15.8831941  82.8489086  47.7170491
  16.7949797  83.0816473  47.5418189  15.3741588  83.4326131  47.1545570
   8.6917369  85.1284574  62.7559623   9.4332053  85.6669618  62.4794446
   7.9854354  85.7550863  62.9131174  14.1672709  87.2713714  61.3531784
  14.5756065  86.8296125  60.6086416  13.4449970  86.6966342  61.6065977
  10.5203779  82.2086321  58.7265341  11.3664974  82.6325735  58.8699990
  10.4602416  81.5519945  59.4203904  14.4901523  87.8314905  55.1084073
  13.8610386  87.9960619  54.4060141  14.1027185  88.2456514  55.8795037
  18.3690755  88.7669343  52.4628437  17.6841793  89.1468244  51.9125470
  18.4534604  89.3764669  53.1960384  13.6703224  79.8690689  60.3846515
  13.4264156  80.6232750  59.8480790  13.9463154  80.2476037  61.2193762
  15.6241687  86.4129302  59.0623780  15.8358582  87.0561062  58.3858161
  15.5771435  85.5791618  58.5945710  13.2267916  79.0247122  55.9660352
  12.3652395  79.3228376  56.2577090  13.2530350  79.2417521  55.0341385
  10.0429485  87.5689313  52.3734158  10.5067831  87.8477016  51.5838781
   9.7786283  86.6672758  52.1907249   6.9353566  87.1160795  55.3113921
   7.5054923  87.5448063  54.6731406   7.5261678  86.8343379  56.0098107
   8.9798371  83.6912465  49.1823723   9.6822414  84.1433509  49.6497650
   8.6479000  83.0496284  49.8103616   7.4278733  82.2824222  63.5574933
   6.7977393  82.9640503  63.7910329   7.3214820  82.1707304  62.6128071
   2.7223705  81.9496018  54.4840857   1.9322759  82.2053547  54.0080967
   3.2134952  82.7644356  54.5892897  16.7387515  89.2901257  57.2346138
  17.5604958  88.8881444  56.9528819  16.7349917  89.1869491  58.1862253
   4.6738450  82.3140597  51.4424333   3.8769614  82.4259292  51.9607829
   4.4464043  82.6527249  50.5765224  10.5044118  88.8385300  59.3906848
  10.5688551  89.3005708  60.2265020   9.7955042  88.2082665  59.5189158
   1.0061408  82.2026508  56.9155848   1.2569446  83.0873518  57.1813423
   1.5420956  82.0231110  56.1430939  24.8293508  85.6340006  53.5831109
  24.0757216  85.0647404  53.4275113  24.9641049  85.6002670  54.5301744
  10.2192136  90.5053408  49.2585828  10.0837810  91.3504944  49.6870676
  10.7601948  90.7072686  48.4951762   6.7059475  76.5844988  65.9200184
   6.3126421  76.0311186  66.5947828   7.5225616  76.8955566  66.3106701
   3.6721533  88.0228846  49.8313753   4.1846054  88.8172096  49.9819318
   4.3244246  87.3255136  49.7647355   5.4816418  91.1394602  51.9136507
   5.6583046  92.0612567  51.7257491   6.2773251  90.8253022  52.3430886
   9.6227436  78.0002867  63.5120440  10.3637150  78.6010020  63.4324903
   9.8545359  77.2580505  62.9538483   4.7668774  83.1859234  61.7898670
   4.6522289  82.2844491  62.0905769   3.9113292  83.4322931  61.4383486
  11.8460612  91.1276974  63.3886170  11.4024466  90.3413353  63.0707075
  12.5077826  91.3156125  62.7230061   6.6047733  92.6572776  57.9146849
   7.1555158  92.5289839  57.1423843   5.7659209  92.9567665  57.5641742
  13.9441850  91.4079774  61.4167572  13.9260325  92.2288655  60.9247841
  14.8661770  91.2833850  61.6417713  10.4014904  88.9223904  62.2591080
  10.9343241  88.1612192  62.0290388   9.8728985  88.6297556  63.0015235
  13.5684599  74.0283970  57.7884722  13.2248869  74.9185612  57.7123832
  13.9363562  73.8385628  56.9254307   1.6370450  86.3517500  50.6073324
   2.4745672  86.7614509  50.3907032   1.8148718  85.4116942  50.5773518
  13.5334882  84.0192581  46.2957157  13.0181505  84.7897186  46.5345544
  13.2612190  83.3457717  46.9190218  11.1181993  78.8642282  51.3542395
  10.2623589  78.4749132  51.1748034  11.5308945  78.9434243  50.4942181
  12.6481140  76.3988625  55.7533955  12.1445935  76.3618760  54.9401760
  12.9411747  77.3081368  55.8130612   8.8924026  76.4827355  54.7600137
   9.7577022  76.2870163  54.4006026   8.9601534  76.2537707  55.6869494
  18.5069156  86.7724936  48.2310330  17.7298599  86.4336095  47.7865493
  19.1860637  86.7777559  47.5565295  13.3221185  81.8919673  48.1216938
  13.0171321  82.2065822  48.9727081  14.2751627  81.9701093  48.1644271
  11.7667617  88.0509896  49.7709892  11.2388979  87.3162656  49.4583130
  11.2655120  88.8284573  49.5249860  16.7460463  86.2458917  54.8876938
  16.0884137  86.9358178  54.9757067  17.5500862  86.6355349  55.2310925
   6.4986345  78.7129563  52.1316504   7.0730097  78.4904744  51.3989697
   7.0857327  78.7818257  52.8845105  15.5565922  84.6003290  52.9380880
  16.0697804  85.2333281  53.4402590  16.2067146  84.0004485  52.5724240
   6.8255932  80.7434024  46.1512389   5.9893244  81.0808710  46.4721664
   6.6860701  80.6083003  45.2139526   8.8009012  75.5870812  50.8591573
   8.1473425  75.2719829  50.2348188   8.7589486  74.9646552  51.5851396
   9.9120217  85.8690107  42.7744865   9.0047279  85.6379360  42.9736014
  10.4091249  85.0727726  42.9618847  12.8188296  94.5787614  45.6941551
  12.1449995  94.8819311  46.3026509  13.2054118  95.3816694  45.3447008
  12.0346753  82.0752745  55.1839221  11.1169314  82.2967692  55.0260909
  12.4506896  82.1499056  54.3250928  12.8181800  83.4744161  50.3141901
  13.5653619  83.9865558  50.0049023  13.0873390  83.1528214  51.1746295
  11.0908451  85.9702702  47.2968855  10.1819670  85.6861734  47.3941325
  11.1203534  86.3901780  46.4372162  16.3227718  89.5809291  51.0660023
  15.8690045  88.7400201  51.1225213  15.6921685  90.2170689  51.4034803
  15.2660638  80.5101277  52.2960690  14.5283394  79.9978663  52.6270933
  15.5187411  80.0701659  51.4843967  14.7660657  91.4185788  52.0009841
  15.0583632  91.9790845  51.2822207  15.2759278  91.7114349  52.7563000
  15.3672265  73.2877529  52.8902460  15.6731142  72.4274892  52.6028375
  16.0924870  73.8795149  52.6901453   1.6596621  83.6908216  51.2784057
   1.4621021  83.0977576  50.5535124   1.1043285  83.3860426  51.9959996
   9.6393345  83.5831322  53.3978651   9.6941954  82.6305159  53.3221127
   8.8284547  83.7390761  53.8819949  10.7884538  87.5111445  44.6356934
  10.3503968  86.7947304  44.1762571  11.5294979  87.7387560  44.0742025
   7.5785705  82.2008382  51.1569029   6.7653570  82.5002552  51.5634222
   8.0744699  81.8064071  51.8743512   9.7294282  92.1966139  53.0903294
   9.6870461  92.4226985  52.1611826  10.6456981  91.9629513  53.2389095
  13.1759916  82.6650206  59.9883923  13.5309304  82.8921679  60.8478389
  13.8232047  82.9968583  59.3661179  18.9057653  85.7868642  50.6933252
  18.7675552  85.9770238  49.7654442  18.5493872  86.5488025  51.1501304
   7.0699779  79.7726737  56.7730264   7.7099159  79.6315496  56.0753228
   6.2377310  79.4861251  56.3968866  18.9327033  87.8545169  55.7044524
  19.3663539  87.7620458  56.5527578  19.6458614  87.8302670  55.0664540
   7.8460083  89.0729168  52.8865257   8.6400682  88.5779488  52.6847832
   7.1351776  88.5447031  52.5232962  12.6654928  91.4547263  57.2377624
  12.7191950  92.0238200  58.0055340  11.7969709  91.6249148  56.8731662
   4.1542847  83.2172250  48.9625010   3.2240435  83.1556705  49.1794972
   4.2500319  82.6948202  48.1661651   4.0728396  79.7427062  51.5503251
   4.3335213  80.6572396  51.4412412   4.8945568  79.2751505  51.6999864
   5.5453321  81.1564820  58.7202076   6.2176375  80.9482182  58.0714725
   4.7183108  80.9586906  58.2807308  19.7942582  87.8968870  58.2377409
  19.9878472  88.8014680  58.4836684  19.6943201  87.4376289  59.0715994
  11.4478893  77.7826760  60.7367737  10.8006808  78.4816710  60.6432213
  12.2179909  78.2162904  61.1043985  14.8557691  88.0475613  63.8118290
  14.7043197  87.8186164  62.8948374  14.8462371  89.0046214  63.8249635
  11.6243027  85.6207525  58.7964556  12.5535087  85.7718685  58.6233524
  11.2034057  85.7091546  57.9413203  10.4231359  89.6458190  56.5663094
  10.2842445  89.2776974  57.4389032   9.6345955  90.1605829  56.3947052
  11.0179511  94.7467286  47.9088630  11.1931267  94.2755329  48.7234253
  10.3312299  95.3733052  48.1369891  11.9736574  89.0239792  53.9551932
  11.6386407  88.9840562  54.8509582  11.4740520  88.3584508  53.4822342
   5.9480818  84.4307423  59.4804513   5.8100616  83.6987661  60.0816052
   6.8585742  84.3416323  59.1988701  14.9095766  86.3695827  44.2288991
  14.2924937  85.6442655  44.1322044  14.4412255  87.1305187  43.8856066
   8.5763119  84.1427382  58.9688193   9.2862738  83.5020574  58.9274811
   8.5332427  84.3940277  59.8914373  16.5649898  91.0794735  61.8894772
  16.5062444  90.3953955  61.2225355  16.9669416  91.8213725  61.4375398
   7.2892053  81.1292600  60.7883832   6.7529410  80.6783338  61.4405428
   6.7008761  81.2638509  60.0454296   6.6994312  80.5881251  43.3510296
   5.8223778  80.4670052  42.9872542   7.1752065  79.7967329  43.0989184
  16.5667305  89.0434319  60.1208751  15.6794084  88.7060241  60.2435150
  17.1365856  88.3117350  60.3577517   3.0231174  80.2648607  57.8736827
   2.9389363  79.6574277  57.1387236   2.2013881  80.7557626  57.8746323
  10.0968458  93.7035771  57.0869995  10.0238630  94.5090743  57.5989299
   9.6545851  93.9027737  56.2618016   9.8858238  92.9407541  50.5972816
   9.1025760  93.4829222  50.6911041  10.5850983  93.4581521  50.9967057
  13.1954888  78.7502171  53.2407022  13.6923588  77.9972133  52.9208092
  12.4241870  78.7866488  52.6750231  21.0484646  84.4542536  54.8825313
  21.0374522  85.3367252  54.5119246  20.1802025  84.1014087  54.6879850
  12.5567142  93.6022605  59.2428153  13.2695114  94.2370070  59.1704055
  12.0657171  93.6986471  58.4268155  14.2784669  87.5073858  50.8145445
  13.3440948  87.6275321  50.6450149  14.4561337  86.6046325  50.5505455
   9.7789857  80.8919554  52.9678706   9.4087644  80.3390594  53.6559612
  10.2748949  80.2877687  52.4153706  17.6657220  83.3491177  51.3495479
  18.1317672  84.1819169  51.2755782  18.1164721  82.8836159  52.0540738
   7.6079055  91.3517049  60.0633724   8.3088515  91.9853532  60.2163118
   7.1374170  91.6931781  59.3029363  15.7333451  89.6934999  48.3481631
  16.0093295  89.5791593  49.2575505  14.8637950  89.2952484  48.3093804
  15.6373883  75.7171764  55.3886380  14.7236963  75.9475991  55.5568587
  16.0666984  75.8010209  56.2400413  15.4080341  83.9061656  57.8886274
  14.7551792  84.1537564  57.2338727  15.7860721  83.0925795  57.5548752
  12.3687515  93.9421350  51.9914445  12.5509910  93.1243006  52.4542197
  13.1920501  94.1589042  51.5539335  12.7029681  92.8689535  49.2529493
  13.2317447  92.3581989  48.6399655  12.9657900  92.5532065  50.1175026
  11.4567914  84.6481467  64.3752312  10.7808551  84.5475597  65.0454687
  12.2795548  84.4920681  64.8388309   3.2046773  90.8853404  56.9964827
   3.7900210  90.1397092  57.1292731   3.0071612  91.1957361  57.8801491
   5.1755191  78.3023545  59.2131812   5.2396517  79.1638376  58.8009210
   5.1122311  77.6897546  58.4804171   4.6507463  80.3746677  62.8604847
   5.2779502  79.9923755  63.4742371   3.7935382  80.1560879  63.2260539
  15.0501572  90.7809652  64.4658582  15.5941476  91.3939611  63.9713537
  14.4688416  91.3389231  64.9825595   1.4273006  82.1823106  48.7923201
   1.7226447  81.2733785  48.7390255   0.5261042  82.1610846  48.4704204
  13.3359085  93.9030370  55.5973610  13.2110224  93.1020110  55.0884555
  13.9938176  94.3976564  55.1087580   4.9567253  80.2579103  54.7750750
   4.2353839  80.8715071  54.6358223   5.7460509  80.7936868  54.6967396
  15.3993993  91.7039391  57.2253160  14.4524328  91.5844742  57.1531487
  15.7476766  90.8161889  57.3079421   7.7593566  77.5933529  61.0491402
   8.2827968  77.8395826  61.8117711   7.5405900  78.4253564  60.6294539
   3.1560847  79.8637204  48.9162526   2.8273554  78.9834583  48.7337632
   3.5100218  79.8084873  49.8038916  12.4040426  91.4992107  53.4257512
  12.2565389  90.5708814  53.6065082  13.2293920  91.5212197  52.9414587
   6.2702671  80.1510174  49.2838004   6.6098743  80.6796095  48.5616613
   6.7174791  80.4890580  50.0596571  16.0074548  92.3220665  54.5122385
  16.9321096  92.1163527  54.3746836  15.8389851  92.0737067  55.4211726
   8.9646111  78.5347225  58.7341072   8.6242932  77.7355038  59.1361752
   8.2585118  78.8348935  58.1617905   9.6162583  75.6196537  57.1868395
  10.4388653  75.1457015  57.0647286   9.8600647  76.3987021  57.6867082
   8.2570818  78.6484795  47.4831297   8.9779180  79.0266048  46.9795014
   7.6336122  79.3673672  47.5866275  12.4001941  79.3529944  48.4189629
  12.6165555  80.2354582  48.1178457  11.9196008  78.9616158  47.6895271
   7.1401162  82.3115658  54.9960374   6.9945743  82.6255961  55.8884655
   6.6626366  82.9300558  54.4431272   8.9997545  79.3018206  55.0441263
   8.9859114  78.4059299  54.7073561   9.7169973  79.3088869  55.6779549
  10.8523676  79.7355546  57.0894391  10.5941453  80.6572616  57.0878721
  10.3208716  79.3385980  57.7794855  15.7969864  92.8406333  49.8684476
  15.9706742  92.2752755  49.1158329  16.2898756  93.6407228  49.6863966
   1.6146824  84.8521002  57.9348035   1.0700292  85.6280810  58.0668309
   2.4926174  85.1991806  57.7767156   8.4034441  78.1832586  50.3128834
   8.5250352  77.2549232  50.5119721   8.1136483  78.1971272  49.4007149
  11.2725631  75.8687496  53.4495553  11.2947328  75.9326829  52.4947533
  11.6893690  75.0292005  53.6436060  21.6509255  85.6042756  51.4874776
  22.0940402  84.8550081  51.0893899  20.7735766  85.5952892  51.1048508
  16.7845037  92.1573097  46.9681375  17.4795941  92.7779790  47.1868689
  17.1268187  91.3068449  47.2433752   2.4012846  83.9790898  60.8278192
   1.6594582  84.1273534  61.4142822   2.0805590  84.2399164  59.9644941
  18.6836460  89.6072803  48.4968705  19.2087784  89.9460076  47.7718025
  18.5958812  88.6719818  48.3131840  10.3456509  93.5206877  60.6258582
  10.6543635  93.2756023  61.4981281  11.1431991  93.7253515  60.1377452
  10.3677121  95.6744786  52.8563958   9.9282111  95.1821165  53.5496815
  11.1185238  95.1317754  52.6156034   2.8469460  91.8656327  52.8588587
   3.6727480  91.5660099  52.4787230   2.4963512  91.0963949  53.3078375
   7.8150993  91.2182795  54.9286260   7.1931002  90.5553500  54.6288488
   8.4855860  91.2443927  54.2459908   7.8875520  79.6964583  64.5218766
   7.9363676  80.5726706  64.1396536   8.4298035  79.1541976  63.9490409
  18.3730366  90.2405707  63.8019903  17.5825910  90.2229845  63.2624403
  18.1363721  90.7794000  64.5568940  18.4928241  87.0898173  61.1152632
  18.5426246  86.9248180  62.0568155  18.3842164  86.2225432  60.7250513
   7.3764500  89.7686719  48.4044721   7.5252620  90.4522183  47.7511393
   8.1830943  89.7491809  48.9194176  15.7832003  83.0729101  62.4311938
  16.6841866  82.9335566  62.1395936  15.8579978  83.2383556  63.3710116
  10.1174809  80.4495956  61.2765125   9.2478118  80.7429522  61.0047713
  10.3534289  81.0336401  61.9972388  19.9946438  89.5095114  61.3594653
  19.7031246  89.8725095  62.1958114  19.3818569  88.7962123  61.1807985
  21.1942120  87.0747994  53.8797224  22.0289012  87.5137798  54.0434784
  21.3301249  86.5986647  53.0605469  18.2433626  84.6327729  59.8274711
  18.7187748  84.8255375  59.0193563  17.3199191  84.6886915  59.5818095
   5.1317133  85.7951896  49.4105790   4.8863175  84.8914226  49.6086000
   5.3013047  85.7969047  48.4685268  12.8213843  76.6675573  58.7930545
  13.3395786  77.4036600  58.4677034  12.4668975  76.9739566  59.6277304
   4.4012780  81.5280254  46.9091951   3.7082025  81.6024609  46.2531987
   4.1564532  80.7640597  47.4313468  13.0726437  73.0875855  54.3131442
  13.3528191  72.4199044  54.9391868  13.8577044  73.2804951  53.8006106
  10.8759905  92.2634849  45.8756468  10.3033872  92.8825036  45.4226940
  11.4492699  92.8134211  46.4096390  16.9435295  81.5093489  58.0603017
  17.8952718  81.6091587  58.0815241  16.7738746  80.7171758  58.5701101
  14.9649675  78.5949072  58.2462418  14.3699607  78.8754085  57.5508906
  14.6799371  79.0842973  59.0179159  14.0957165  92.5471999  47.0065050
  15.0287838  92.4817561  47.2097926  14.0080378  93.3828266  46.5479583
  16.7245182  91.8637869  43.9668998  16.6458813  91.5297733  44.8604756
  17.5454848  92.3559637  43.9660470  19.4223373  84.7299609  57.1745317
  19.3899693  83.7915610  57.3605000  20.0323997  84.8083646  56.4411141
  11.2606704  83.5995662  43.2172521  12.2065808  83.4701870  43.2860939
  10.8820949  82.8610324  43.6941949  19.5717861  81.5210652  57.2203600
  19.0556910  80.7369109  57.0333529  20.4557810  81.1929369  57.3850119
  17.2328588  75.2651668  53.1799412  17.0353409  74.9566756  54.0642744
  17.8428294  75.9913307  53.3097342  25.2399923  85.7915616  56.3151353
  25.9703311  85.5300904  56.8759057  24.6306868  85.0544338  56.3553421
  23.3215220  83.9323478  56.9125805  22.5948383  83.7979443  56.3042296
  22.9062507  84.2400307  57.7182523  11.1445396  87.6513408  64.6773178
  12.0648406  87.8292007  64.8713224  11.1094979  86.7069453  64.5252877
   9.4449621  81.5245638  43.1527406   8.5381076  81.2278751  43.2290119
   9.7225602  81.2275456  42.2861692   4.1407469  85.5614443  57.3195959
   4.3593479  86.4931550  57.3383993   4.5533243  85.2022417  58.1050763
  11.0611687  76.0682528  49.3071647  10.2512415  75.7229613  49.6826893
  11.7496104  75.7590072  49.8959259  12.9902235  75.1460575  50.9295944
  13.5433274  75.5656028  51.5885967  13.2272321  74.2196323  50.9718900
   9.0135334  81.1347648  66.7098708   8.9132061  82.0842005  66.6410799
   8.7956876  80.8065887  65.8374778   8.2148406  78.3832573  43.2939385
   9.0767570  78.7087472  43.5535202   8.3998750  77.5964069  42.7812451
  16.3681042  77.2561100  50.4374608  15.7879711  77.9145904  50.0552660
  16.1016975  76.4338444  50.0262026  14.8184608  76.6566158  52.6395928
  15.3184387  76.7682692  51.8310247  15.4620216  76.3527210  53.2796737
   8.8766604  84.5644787  65.5263769   8.3933686  85.3645147  65.7327658
   8.9627543  84.5752732  64.5731213   2.1452564  86.3973167  53.4485589
   2.1223252  86.4960854  52.4967472   2.4553200  87.2438318  53.7702755
   4.8039942  88.4549322  57.5632203   5.7583195  88.4233264  57.4962135
   4.6052465  87.9939946  58.3782429   5.3939324  87.0250438  60.1303001
   6.2132213  87.5194517  60.1537838   5.6676132  86.1082406  60.1020568
  15.1505920  79.4161190  49.4930956  14.2631775  79.7010841  49.2751151
  15.5659909  79.2554954  48.6458233  18.5020456  79.4407711  53.2085296
  19.2780846  79.9304164  53.4809912  17.7768590  79.8665765  53.6657165
  20.9393015  80.1535330  54.2659236  21.5337506  79.9131066  53.5552544
  21.0119598  79.4342461  54.8932772  14.2949133  89.1805865  43.5878976
  14.9984984  89.3855867  44.2036632  13.5711782  89.7482627  43.8528060
  15.1246944  84.9315726  49.7081246  15.0682145  85.3884278  48.8688879
  15.6775286  84.1706411  49.5304089  18.9351750  80.7205458  50.5331366
  18.6788684  80.3202094  51.3639574  18.3104618  81.4349252  50.4081505
  23.2464088  83.4601531  53.0402657  22.6863646  83.5294721  53.8134219
  22.6407591  83.2842516  52.3202154  16.2035831  89.6188394  45.6377436
  17.0381435  89.1869593  45.4554911  16.0420174  89.4470408  46.5654331
  15.8581723  86.1220507  47.0033776  15.8030527  85.9564779  46.0622220
  15.2327778  86.8296540  47.1595965  13.1727630  88.4269419  66.3287338
  14.0418790  88.6010072  65.9673973  12.6934382  89.2463836  66.2063068
   9.1677849  75.6228616  46.5819094   9.1556518  76.5670456  46.7387365
  10.0601270  75.4398762  46.2878555   9.0967412  94.2997507  54.6686851
   8.1463044  94.2999368  54.5551223   9.3999899  93.5530241  54.1522885
  12.9829968  72.2171393  50.8365031  12.2162364  71.6629880  50.9821713
  13.3940673  72.2893262  51.6979182   4.9871729  78.5056189  64.9270212
   5.8503191  78.1492994  65.1373537   4.4137140  78.1670084  65.6145616
  19.3418092  98.8573721  45.0011078  19.5943612  98.3355242  44.2394541
  18.4042651  98.6939866  45.1037761  24.3861374  97.8609499  52.8085821
  25.1724464  97.4428922  52.4576238  24.6500079  98.7655591  52.9767469
  29.7869802  97.7984732  53.7118800  30.5194974  97.2283949  53.9456629
  29.0309157  97.4106333  54.1525305  27.3095222  91.5106306  58.1713408
  26.9778547  92.3801717  57.9474623  26.7140835  91.1942590  58.8507439
  21.0451408  95.2501873  45.9043491  21.2125811  96.1182110  46.2713962
  20.8548577  95.4129155  44.9804780  27.2023885  96.2301393  55.2506758
  26.2940763  96.1616801  54.9565519  27.1511481  96.7073337  56.0788584
  21.0240629  97.7059531  46.8890157  20.9040254  98.1516582  47.7275638
  20.3293218  98.0544849  46.3303696  21.2764751  97.6491038  63.1941656
  20.4998085  98.2084958  63.1844520  21.9155314  98.1347821  63.7156526
  29.0685532  94.4317831  57.0284632  28.4259912  94.7250364  56.3824427
  28.5640460  94.3170751  57.8337829  26.7225695  98.1781004  47.7170491
  27.6343551  98.4108391  47.5418189  26.2135342  98.7618048  47.1545570
  21.3597533  97.5378239  58.7265341  22.2058728  97.9617652  58.8699990
  21.2996171  96.8811863  59.4203904  24.5096978  95.1982607  60.3846515
  24.2657910  95.9524668  59.8480790  24.7856909  95.5767955  61.2193762
  24.0661670  94.3539040  55.9660352  23.2046149  94.6520294  56.2577090
  24.0924105  94.5709439  55.0341385  19.8192126  99.0204383  49.1823723
  20.5216169  99.4725427  49.6497650  19.4872754  98.3788202  49.8103616
  18.2672487  97.6116140  63.5574933  17.6371148  98.2932421  63.7910329
  18.1608575  97.4999221  62.6128071  35.6687262 100.9631923  53.5831109
  34.9150971 100.3939321  53.4275113  35.8034803 100.9294588  54.5301744
  17.5453230  91.9136906  65.9200184  17.1520175  91.3603104  66.5947828
  18.3619370  92.2247484  66.3106701  20.4621191  93.3294785  63.5120440
  21.2030904  93.9301938  63.4324903  20.6939114  92.5872422  62.9538483
  24.4078354  89.3575888  57.7884722  24.0642623  90.2477529  57.7123832
  24.7757316  89.1677545  56.9254307  24.3728636  99.3484499  46.2957157
  23.8575260 100.1189103  46.5345544  24.1005945  98.6749635  46.9190218
  21.9575748  94.1934199  51.3542395  21.1017344  93.8041050  51.1748034
  22.3702699  94.2726160  50.4942181  23.4874894  91.7280543  55.7533955
  22.9839690  91.6910678  54.9401760  23.7805501  92.6373285  55.8130612
  19.7317780  91.8119272  54.7600137  20.5970777  91.6162081  54.4006026
  19.7995289  91.5829624  55.6869494  29.3462911 102.1016853  48.2310330
  28.5692353 101.7628013  47.7865493  30.0254392 102.1069476  47.5565295
  24.1614940  97.2211591  48.1216938  23.8565075  97.5357740  48.9727081
  25.1145382  97.2993011  48.1644271  17.3380099  94.0421480  52.1316504
  17.9123851  93.8196662  51.3989697  17.9251082  94.1110175  52.8845105
  26.3959676  99.9295207  52.9380880  26.9091558 100.5625199  53.4402590
  27.0460900  99.3296403  52.5724240  17.6649686  96.0725941  46.1512389
  16.8286998  96.4100628  46.4721664  17.5254456  95.9374921  45.2139526
  19.6402767  90.9162729  50.8591573  18.9867179  90.6011746  50.2348188
  19.5983241  90.2938470  51.5851396  22.8740507  97.4044663  55.1839221
  21.9563069  97.6259610  55.0260909  23.2900651  97.4790973  54.3250928
  23.6575555  98.8036078  50.3141901  24.4047374  99.3157476  50.0049023
  23.9267144  98.4820131  51.1746295  26.1054392  95.8393195  52.2960690
  25.3677149  95.3270581  52.6270933  26.3581166  95.3993576  51.4843967
  26.2066019  88.6169447  52.8902460  26.5124896  87.7566810  52.6028375
  26.9318624  89.2087067  52.6901453  20.4787099  98.9123240  53.3978651
  20.5335709  97.9597076  53.3221127  19.6678301  99.0682679  53.8819949
  18.4179459  97.5300300  51.1569029  17.6047325  97.8294470  51.5634222
  18.9138453  97.1355988  51.8743512  24.0153671  97.9942124  59.9883923
  24.3703058  98.2213597  60.8478389  24.6625802  98.3260501  59.3661179
  29.7451408 101.1160560  50.6933252  29.6069306 101.3062156  49.7654442
  29.3887627 101.8779943  51.1501304  17.9093534  95.1018655  56.7730264
  18.5492913  94.9607414  56.0753228  17.0771064  94.8153168  56.3968866
  14.9122150  95.0718980  51.5503251  15.1728968  95.9864313  51.4412412
  15.7339323  94.6043423  51.6999864  16.3847076  96.4856737  58.7202076
  17.0570129  96.2774099  58.0714725  15.5576862  96.2878823  58.2807308
  22.2872648  93.1118678  60.7367737  21.6400563  93.8108628  60.6432213
  23.0573663  93.5454822  61.1043985  18.1285807  96.4584517  60.7883832
  17.5923165  96.0075256  61.4405428  17.5402516  96.5930426  60.0454296
  17.5388066  95.9173169  43.3510296  16.6617533  95.7961970  42.9872542
  18.0145820  95.1259247  43.0989184  13.8624929  95.5940525  57.8736827
  13.7783117  94.9866195  57.1387236  13.0407635  96.0849543  57.8746323
  24.0348643  94.0794089  53.2407022  24.5317342  93.3264051  52.9208092
  23.2635624  94.1158405  52.6750231  31.8878400  99.7834454  54.8825313
  31.8768276 100.6659170  54.5119246  31.0195779  99.4306005  54.6879850
  20.6183611  96.2211472  52.9678706  20.2481399  95.6682512  53.6559612
  21.1142704  95.6169605  52.4153706  28.5050975  98.6783095  51.3495479
  28.9711427  99.5111087  51.2755782  28.9558475  98.2128077  52.0540738
  26.4767637  91.0463682  55.3886380  25.5630717  91.2767909  55.5568587
  26.9060739  91.1302126  56.2400413  26.2474096  99.2353574  57.8886274
  25.5945546  99.4829482  57.2338727  26.6254476  98.4217712  57.5548752
  22.2961669  99.9773385  64.3752312  21.6202306  99.8767514  65.0454687
  23.1189303  99.8212599  64.8388309  16.0148945  93.6315462  59.2131812
  16.0790271  94.4930293  58.8009210  15.9516065  93.0189464  58.4804171
  15.4901218  95.7038595  62.8604847  16.1173256  95.3215672  63.4742371
  14.6329136  95.4852797  63.2260539  15.7961007  95.5871021  54.7750750
  15.0747593  96.2006988  54.6358223  16.5854263  96.1228785  54.6967396
  18.5987321  92.9225447  61.0491402  19.1221723  93.1687744  61.8117711
  18.3799654  93.7545482  60.6294539  13.9954602  95.1929122  48.9162526
  13.6667308  94.3126501  48.7337632  14.3493973  95.1376790  49.8038916
  17.1096425  95.4802092  49.2838004  17.4492498  96.0088013  48.5616613
  17.5568546  95.8182498  50.0596571  19.8039866  93.8639142  58.7341072
  19.4636686  93.0646955  59.1361752  19.0978872  94.1640853  58.1617905
  20.4556338  90.9488455  57.1868395  21.2782407  90.4748933  57.0647286
  20.6994401  91.7278938  57.6867082  19.0964572  93.9776713  47.4831297
  19.8172935  94.3557966  46.9795014  18.4729876  94.6965590  47.5866275
  23.2395695  94.6821862  48.4189629  23.4559309  95.5646500  48.1178457
  22.7589762  94.2908075  47.6895271  17.9794916  97.6407575  54.9960374
  17.8339497  97.9547878  55.8884655  17.5020120  98.2592476  54.4431272
  19.8391299  94.6310123  55.0441263  19.8252868  93.7351217  54.7073561
  20.5563727  94.6380787  55.6779549  21.6917430  95.0647463  57.0894391
  21.4335208  95.9864534  57.0878721  21.1602470  94.6677898  57.7794855
  19.2428195  93.5124504  50.3128834  19.3644106  92.5841150  50.5119721
  18.9530238  93.5263190  49.4007149  22.1119386  91.1979414  53.4495553
  22.1341082  91.2618747  52.4947533  22.5287445  90.3583923  53.6436060
  32.4903010 100.9334674  51.4874776  32.9334156 100.1841999  51.0893899
  31.6129520 100.9244810  51.1048508  18.7269275  95.0256501  64.5218766
  18.7757430  95.9018624  64.1396536  19.2691789  94.4833894  63.9490409
  29.3321996 102.4190091  61.1152632  29.3820000 102.2540098  62.0568155
  29.2235919 101.5517350  60.7250513  26.6225758  98.4021019  62.4311938
  27.5235621  98.2627483  62.1395936  26.6973732  98.5675473  63.3710116
  20.9568563  95.7787873  61.2765125  20.0871873  96.0721439  61.0047713
  21.1928044  96.3628318  61.9972388  32.0335875 102.4039912  53.8797224
  32.8682766 102.8429716  54.0434784  32.1695003 101.9278565  53.0605469
  29.0827381  99.9619647  59.8274711  29.5581502 100.1547293  59.0193563
  28.1592946 100.0178833  59.5818095  23.6607597  91.9967490  58.7930545
  24.1789541  92.7328517  58.4677034  23.3062730  92.3031484  59.6277304
  15.2406535  96.8572171  46.9091951  14.5475780  96.9316526  46.2531987
  14.9958287  96.0932515  47.4313468  23.9120191  88.4167773  54.3131442
  24.1921945  87.7490962  54.9391868  24.6970798  88.6096868  53.8006106
  27.7829050  96.8385407  58.0603017  28.7346472  96.9383504  58.0815241
  27.6132500  96.0463675  58.5701101  25.8043429  93.9240990  58.2462418
  25.2093361  94.2046003  57.5508906  25.5193126  94.4134891  59.0179159
  30.2617127 100.0591526  57.1745317  30.2293447  99.1207527  57.3605000
  30.8717751 100.1375563  56.4411141  22.1000458  98.9287579  43.2172521
  23.0459563  98.7993788  43.2860939  21.7214703  98.1902241  43.6941949
  30.4111616  96.8502570  57.2203600  29.8950665  96.0661027  57.0333529
  31.2951564  96.5221287  57.3850119  28.0722343  90.5943585  53.1799412
  27.8747164  90.2858674  54.0642744  28.6822048  91.3205224  53.3097342
  36.0793677 101.1207533  56.3151353  36.8097066 100.8592821  56.8759057
  35.4700623 100.3836255  56.3553421  34.1608974  99.2615396  56.9125805
  33.4342138  99.1271361  56.3042296  33.7456261  99.5692225  57.7182523
  20.2843375  96.8537556  43.1527406  19.3774831  96.5570669  43.2290119
  20.5619356  96.5567374  42.2861692  21.9005441  91.3974446  49.3071647
  21.0906169  91.0521531  49.6826893  22.5889858  91.0881989  49.8959259
  23.8295989  90.4752492  50.9295944  24.3827028  90.8947946  51.5885967
  24.0666076  89.5488240  50.9718900  19.8529089  96.4639566  66.7098708
  19.7525816  97.4133923  66.6410799  19.6350631  96.1357805  65.8374778
  19.0542160  93.7124491  43.2939385  19.9161324  94.0379389  43.5535202
  19.2392504  92.9255987  42.7812451  27.2074796  92.5853018  50.4374608
  26.6273466  93.2437822  50.0552660  26.9410729  91.7630362  50.0262026
  25.6578363  91.9858075  52.6395928  26.1578141  92.0974610  51.8310247
  26.3013971  91.6819128  53.2796737  25.9899675  94.7453108  49.4930956
  25.1025530  95.0302759  49.2751151  26.4053664  94.5846871  48.6458233
  29.3414211  94.7699629  53.2085296  30.1174601  95.2596081  53.4809912
  28.6162345  95.1957683  53.6657165  31.7786769  95.4827248  54.2659236
  32.3731260  95.2422984  53.5552544  31.8513353  94.7634379  54.8932772
  25.9640698 100.2607644  49.7081246  25.9075900 100.7176195  48.8688879
  26.5169041  99.4998328  49.5304089  29.7745504  96.0497376  50.5331366
  29.5182438  95.6494011  51.3639574  29.1498372  96.7641170  50.4081505
  34.0857842  98.7893449  53.0402657  33.5257400  98.8586638  53.8134219
  33.4801345  98.6134434  52.3202154  20.0071603  90.9520534  46.5819094
  19.9950273  91.8962374  46.7387365  20.8995025  90.7690679  46.2878555
  23.8223722  87.5463311  50.8365031  23.0556118  86.9921797  50.9821713
  24.2334427  87.6185179  51.6979182  15.8265484  93.8348107  64.9270212
  16.6896945  93.4784911  65.1373537  15.2530894  93.4962001  65.6145616
  37.0459774 103.9461364  52.8902460  37.3518651 103.0858728  52.6028375
  37.7712379 104.5378985  52.6901453  34.7513946 103.7459690  54.3131442
  35.0315699 103.0782880  54.9391868  35.5364553 103.9388786  53.8006106
  34.6617477 102.8755228  50.8365031  33.8949873 102.3213715  50.9821713
  35.0728182 102.9477097  51.6979182   3.1506000  31.9818293  40.3076416
   2.3969708  31.4125691  40.1520420   3.2853541  31.9480957  41.2547050
   3.5612415  32.1393903  43.0396660   4.2915803  31.8779191  43.6004363
   2.9519360  31.4022625  43.0798728   1.6427712  30.2801765  43.6371111
   0.9160876  30.1457730  43.0287603   1.2274999  30.5878594  44.4427829
   1.5676580  29.8079819  39.7647964   1.0076138  29.8773008  40.5379526
   0.9620083  29.6320803  39.0447460   3.1532598  46.4836332  42.4577920
   3.7911008  46.3643080  41.7541260   3.0353441  47.4317176  42.5165872
   1.4008679  51.9570205  33.6950800   0.7496659  52.5424285  33.3084814
   2.1953042  52.4876400  33.7545838   2.7073867  44.2087786  39.5331128
   3.4936956  43.7907209  39.1821545   2.9712571  45.1133878  39.7012776
   2.8783944  49.6460637  34.2319785   2.2429777  49.7195263  34.9440689
   2.5481351  50.2354235  33.5538864   8.1082294  44.1463019  40.4364106
   8.8407466  43.5762236  40.6701936   7.3521650  43.7584620  40.8770612
   5.6307714  37.8584594  44.8958715   5.2991039  38.7280005  44.6719930
   5.0353328  37.5420878  45.5752745   2.1239234  50.0597140  44.2954628
   1.8239957  50.9622178  44.1870435   1.7790293  49.7929323  45.1475780
   5.5236378  42.5779680  41.9752065   4.6153255  42.5095088  41.6810826
   5.4723973  43.0551625  42.8033890   7.3898024  40.7796118  43.7529939
   6.7472404  41.0728651  43.1069733   6.8852952  40.6649039  44.5583135
   5.0438188  44.5259291  34.4415798   5.9556044  44.7586678  34.2663496
   4.5347835  45.1096336  33.8790877   3.3278955  48.9483919  48.0777091
   3.7362311  48.5066330  47.3331723   2.6056217  48.3736547  48.3311284
   3.6507770  49.5085110  41.8329380   3.0216632  49.6730824  41.1305447
   3.2633432  49.9226719  42.6040344   7.5297002  50.4439548  39.1873743
   6.8448040  50.8238449  38.6370777   7.6140851  51.0534874  39.9205691
   2.8309471  41.5460894  47.1091821   2.5870403  42.3002955  46.5726097
   3.1069401  41.9246242  47.9439068   4.7847933  48.0899507  45.7869087
   4.9964829  48.7331267  45.1103468   4.7377682  47.2561823  45.3191017
   2.3874162  40.7017327  42.6905659   1.5258641  40.9998581  42.9822397
   2.4136597  40.9187726  41.7586692   5.8993761  50.9671462  43.9591444
   6.7211205  50.5651649  43.6774126   5.8956164  50.8639696  44.9107560
  13.9899754  47.3110211  40.3076416  13.2363463  46.7417609  40.1520420
  14.1247296  47.2772875  41.2547050   1.0066859  52.8047179  50.1131477
   0.5630713  52.0183558  49.7952382   1.6684072  52.9926330  49.4475368
   3.1048097  53.0849979  48.1412878   3.0866572  53.9058860  47.6493148
   4.0268017  52.9604055  48.3663020   2.7290846  35.7054175  44.5130028
   2.3855115  36.5955816  44.4369139   3.0969809  35.5155832  43.6499613
   2.6941129  45.6962786  33.0202464   2.1787752  46.4667391  33.2590851
   2.4218437  45.0227922  33.6435525   1.8087386  38.0758830  42.4779262
   1.3052182  38.0388965  41.6647067   2.1017993  38.9851573  42.5375918
   7.6675403  48.4495141  34.9555637   6.8904846  48.1106300  34.5110799
   8.3466884  48.4547764  34.2810602   2.4827432  43.5689878  34.8462245
   2.1777568  43.8836027  35.6972388   3.4357874  43.6471298  34.8889578
   5.9066710  47.9229122  41.6122245   5.2490384  48.6128383  41.7002374
   6.7107109  48.3125554  41.9556231   4.7172169  46.2773494  39.6626187
   5.2304050  46.9103486  40.1647897   5.3673392  45.6774690  39.2969547
   1.9794543  56.2557819  32.4186858   1.3056242  56.5589516  33.0271816
   2.3660365  57.0586899  32.0692315   1.9788047  45.1514366  37.0387208
   2.7259866  45.6635763  36.7294330   2.2479637  44.8298418  37.8991601
   5.4833965  51.2579496  37.7905329   5.0296292  50.4170406  37.8470520
   4.8527932  51.8940894  38.1280110   4.4266884  42.1871482  39.0205997
   3.6889641  41.6748868  39.3516239   4.6793658  41.7471864  38.2089274
   3.9266904  53.0955993  38.7255148   4.2189878  53.6561050  38.0067513
   4.4365525  53.3884554  39.4808307   4.5278512  34.9647734  39.6147766
   4.8337388  34.1045097  39.3273681   5.2531117  35.5565354  39.4146760
   2.3366163  44.3420411  46.7129230   2.6915551  44.5691884  47.5723696
   2.9838294  44.6738788  46.0906485   8.0663900  47.4638847  37.4178559
   7.9281799  47.6540443  36.4899748   7.7100119  48.2258230  37.8746610
   8.0933280  49.5315374  42.4289831   8.5269786  49.4390663  43.2772885
   8.8064860  49.5072875  41.7909847   1.8261174  53.1317468  43.9622931
   1.8798197  53.7008405  44.7300647   0.9575956  53.3019353  43.5976968
   8.9548829  49.5739075  44.9622716   9.1484719  50.4784885  45.2081991
   8.8549447  49.1146494  45.7961301   4.0163938  49.7245818  50.5363597
   3.8649444  49.4956369  49.6193680   4.0068617  50.6816419  50.5494942
   1.1342821  50.7009997  40.6797238   0.7992654  50.6610767  41.5754888
   0.6346767  50.0354713  40.2067649   4.0702013  48.0466032  30.9534298
   3.4531183  47.3212860  30.8567351   3.6018501  48.8075392  30.6101372
   5.7256144  52.7564940  48.6140078   5.6668691  52.0724160  47.9470661
   6.1275663  53.4983930  48.1620704   5.7273552  50.7204524  46.8454058
   4.8400331  50.3830446  46.9680457   6.2972103  49.9887555  47.0822823
   2.3561135  40.4272376  39.9652328   2.8529834  39.6742338  39.6453398
   1.5848116  40.4636693  39.3995538  10.2090892  46.1312741  41.6070620
  10.1980769  47.0137457  41.2364553   9.3408272  45.7784292  41.4125157
   1.7173389  55.2792810  45.9673460   2.4301361  55.9140275  45.8949361
   1.2263417  55.3756676  45.1513462   3.4390916  49.1844063  37.5390752
   2.5047194  49.3045526  37.3695456   3.6167584  48.2816530  37.2750761
   6.8263467  45.0261382  38.0740786   7.2923919  45.8589374  38.0001088
   7.2770967  44.5606364  38.7786044   4.8939698  51.3705204  35.0726938
   5.1699542  51.2561798  35.9820812   4.0244197  50.9722689  35.0339111
   4.7980130  37.3941969  42.1131687   3.8843209  37.6246196  42.2813894
   5.2273231  37.4780413  42.9645719   4.5686588  45.5831861  44.6131581
   3.9158038  45.8307769  43.9584034   4.9466968  44.7696000  44.2794058
   1.5293762  55.6191555  38.7159751   1.7116157  54.8013210  39.1787504
   2.3526748  55.8359247  38.2784641   1.8635928  54.5459740  35.9774800
   2.3923694  54.0352194  35.3644962   2.1264147  54.2302270  36.8420333
   4.2107818  52.4579857  51.1903889   4.7547722  53.0709816  50.6958843
   3.6294663  53.0159436  51.7070902   2.4965331  55.5800575  42.3218916
   2.3716471  54.7790315  41.8129862   3.1544422  56.0746769  41.8332886
   4.5600240  53.3809595  43.9498466   3.6130575  53.2614947  43.8776793
   4.9083013  52.4932093  44.0324728   1.5646673  53.1762312  40.1502819
   1.4171635  52.2479019  40.3310389   2.3900167  53.1982402  39.6659894
   5.1680795  53.9990870  41.2367691   6.0927342  53.7933732  41.0992143
   4.9996098  53.7507272  42.1457033   1.5608187  41.0300149  35.1434936
   1.7771802  41.9124787  34.8423764   1.0802254  40.6386363  34.4140578
   4.9576111  54.5176538  36.5929783   5.1312989  53.9522960  35.8403635
   5.4505002  55.3177433  36.4109273  10.8115502  47.2812961  38.2120083
  11.2546648  46.5320286  37.8139206   9.9342013  47.2723097  37.8293815
   5.9451284  53.8343302  33.6926681   6.6402188  54.4549995  33.9113996
   6.2874434  52.9838653  33.9679059   7.8442707  51.2843008  35.2214012
   8.3694031  51.6230281  34.4963332   7.7565059  50.3490023  35.0377147
   7.5336613  51.9175911  50.5265210   6.7432156  51.9000050  49.9869709
   7.2969967  52.4564205  51.2814246   7.6534488  48.7668378  47.8397938
   7.7032493  48.6018385  48.7813461   7.5448411  47.8995637  47.4495819
   4.9438250  44.7499306  49.1557245   5.8448113  44.6105771  48.8641243
   5.0186225  44.9153761  50.0955423   9.1552685  51.1865319  48.0839960
   8.8637493  51.5495300  48.9203421   8.5424816  50.4732328  47.9053292
  10.3548367  48.7518199  40.6042530  11.1895258  49.1908003  40.7680091
  10.4907496  48.2756852  39.7850776   7.4039873  46.3097934  46.5520018
   7.8793994  46.5025580  45.7438869   6.4805438  46.3657120  46.3063402
   1.9820089  38.3445778  45.5175852   2.5002033  39.0806804  45.1922340
   1.6275222  38.6509771  46.3522611   2.2332684  34.7646060  41.0376748
   2.5134437  34.0969249  41.6637175   3.0183290  34.9575156  40.5251412
   6.1041542  43.1863694  44.7848324   7.0558965  43.2861792  44.8060548
   5.9344992  42.3941963  45.2946408   4.1255921  40.2719277  44.9707724
   3.5305853  40.5524290  44.2754213   3.8405618  40.7613178  45.7424466
   3.2563412  54.2242204  33.7310357   4.1894085  54.1587766  33.9343233
   3.1686625  55.0598471  33.2724890   5.8851428  53.5408074  30.6914305
   5.8065060  53.2067938  31.5850062   6.7061095  54.0329842  30.6905777
   8.5829620  46.4069814  43.8990623   8.5505940  45.4685814  44.0850307
   9.1930243  46.4853850  43.1656448   8.7324108  43.1980857  43.9448906
   8.2163157  42.4139314  43.7578835   9.6164057  42.8699574  44.1095426
   6.3934835  36.9421873  39.9044719   6.1959656  36.6336961  40.7888051
   7.0034541  37.6683512  40.0342649  14.4006169  47.4685821  43.0396660
  15.1309558  47.2071109  43.6004363  13.7913115  46.7314543  43.0798728
  12.4821467  45.6093683  43.6371111  11.7554630  45.4749648  43.0287603
  12.0668753  45.9170512  44.4427829   2.1508482  36.8230780  37.6541250
   2.7039520  37.2426233  38.3131273   2.3878568  35.8966528  37.6964206
   5.5287289  38.9331305  37.1619915   4.9485958  39.5916109  36.7797967
   5.2623221  38.1108649  36.7507332   3.9790855  38.3336362  39.3641235
   4.4790633  38.4452897  38.5555554   4.6226463  38.0297415  40.0042043
   4.3112167  41.0931395  36.2176263   3.4238022  41.3781046  35.9996458
   4.7266156  40.9325159  35.3703540   7.6626703  41.1177916  39.9330602
   8.4387093  41.6074369  40.2055219   6.9374837  41.5435970  40.3902472
  10.0999262  41.8305535  40.9904543  10.6943752  41.5901271  40.2797851
  10.1725845  41.1112666  41.6178079   3.4555380  50.8576070  30.3124283
   4.1591230  51.0626072  30.9281939   2.7318029  51.4252832  30.5773366
   4.2853191  46.6085931  36.4326553   4.2288392  47.0654483  35.5934185
   4.8381533  45.8476616  36.2549396   8.0957996  42.3975663  37.2576673
   7.8394931  41.9972299  38.0884880   7.4710864  43.1119457  37.1326812
  12.4070334  45.1371736  39.7647964  11.8469892  45.2064926  40.5379526
  11.8013838  44.9612721  39.0447460   5.3642078  51.2958599  32.3622743
   6.1987682  50.8639797  32.1800218   5.2026421  51.1240613  33.2899637
   5.0187970  47.7990712  33.7279082   4.9636774  47.6334984  32.7867526
   4.3934025  48.5066745  33.8841272   2.3333877  50.1039624  53.0532645
   3.2025037  50.2780276  52.6919280   1.8540628  50.9234041  52.9308374
   2.1436215  33.8941598  37.5610337   1.3768611  33.3400085  37.7067020
   2.5546920  33.9663467  38.4224489  13.9926353  61.8128250  42.4577920
  14.6304763  61.6934997  41.7541260  13.8747196  62.7609094  42.5165872
  10.8016059  61.7655678  42.3939444  10.4634571  61.6496743  41.5059979
  11.6705827  61.3646843  42.3740451   6.6602875  63.6191155  38.3836335
   6.0967740  63.5281092  37.6152623   6.5455270  62.7991059  38.8638828
  11.2835842  62.9190530  48.3525650  11.2724483  62.5243328  47.4806154
  11.4456481  62.1856603  48.9459421   4.2067307  65.1142346  41.2220556
   4.9988599  64.7733171  40.8066855   4.4463957  65.2237321  42.1422709
  12.2402433  67.2862122  33.6950800  11.5890413  67.8716203  33.3084814
  13.0346796  67.8168317  33.7545838   6.1658061  64.3751259  34.0937935
   6.9388937  63.8280247  33.9550810   6.5183459  65.2395509  34.3052396
   8.0043103  65.7027642  47.3004834   7.7132969  66.6073273  47.1851500
   8.6400088  65.7444169  48.0148903   8.9299310  63.0804490  43.8906194
   9.5262882  62.8560513  43.1763156   8.9874282  62.3389236  44.4931641
   8.5024338  60.5343926  31.7256384   8.7549859  60.0125447  30.9639848
   7.5648898  60.3710071  31.8283068  13.5467621  59.5379704  39.5331128
  14.3330710  59.1199127  39.1821545  13.8106326  60.4425796  39.7012776
  13.7177699  64.9752554  34.2319785  13.0823532  65.0487181  34.9440689
  13.3875105  65.5646153  33.5538864  18.9476048  59.4754937  40.4364106
  19.6801220  58.9054154  40.6701936  18.1915404  59.0876538  40.8770612
   8.2220627  62.4372032  33.9280759   8.1056885  61.7616935  34.5961844
   8.3322887  61.9504405  33.1112913  10.5652168  61.8982179  37.6327449
  10.2010375  61.3712800  38.3440370  11.4219284  61.5080648  37.4593934
  16.4701469  53.1876511  44.8958715  16.1384793  54.0571922  44.6719930
  15.8747082  52.8712795  45.5752745  10.2057655  56.9272078  32.6288797
  10.3732057  57.7952315  32.9959268  10.0154824  57.0899360  31.7050086
  12.9632988  65.3889057  44.2954628  12.6633711  66.2914096  44.1870435
  12.6184048  65.1221240  45.1475780   6.4145470  61.8402854  40.3291332
   5.4895966  61.7079068  40.5369024   6.6629883  62.6197073  40.8261274
  16.3630132  57.9071597  41.9752065  15.4547009  57.8387006  41.6810826
  16.3117728  58.3843542  42.8033890  10.1846876  59.3829736  33.6135464
  10.0646501  59.8286787  34.4520944   9.4899464  59.7315054  33.0549002
   3.7754281  61.4836128  41.1635121   3.9046662  61.7370607  42.0774533
   3.0951732  62.0763836  40.8439776   7.9453768  72.1533378  37.2625595
   7.8677798  73.1041203  37.3414076   7.3415412  71.8079250  37.9200522
  10.4370998  59.3261243  49.9186962   9.6604332  59.8855163  49.9089827
  11.0761561  59.8118026  50.4401832  18.2291778  56.1088036  43.7529939
  17.5866159  56.4020569  43.1069733  17.7246707  55.9940956  44.5583135
  15.8831942  59.8551209  34.4415798  16.7949798  60.0878596  34.2663496
  15.3741589  60.4388253  33.8790877   8.6917370  62.1346696  49.4804929
   9.4332054  62.6731740  49.2039753   7.9854356  62.7612985  49.6376481
  14.1672710  64.2775837  48.0777091  14.5756066  63.8358247  47.3331723
  13.4449971  63.7028464  48.3311284  10.5203780  59.2148444  45.4510648
  11.3664975  59.6387857  45.5945297  10.4602417  58.5582068  46.1449211
  14.4901524  64.8377027  41.8329380  13.8610387  65.0022742  41.1305447
  14.1027186  65.2518637  42.6040344  18.3690756  65.7731465  39.1873743
  17.6841794  66.1530367  38.6370777  18.4534606  66.3826792  39.9205691
  13.6703225  56.8752812  47.1091821  13.4264157  57.6294873  46.5726097
  13.9463156  57.2538160  47.9439068  15.6241688  63.4191424  45.7869087
  15.8358583  64.0623184  45.1103468  15.5771436  62.5853741  45.3191017
  13.2267917  56.0309245  42.6905659  12.3652396  56.3290499  42.9822397
  13.2530352  56.2479644  41.7586692  10.0429486  64.5751436  39.0979465
  10.5067832  64.8539139  38.3084087   9.7786284  63.6734880  38.9152555
   6.9353567  64.1222917  42.0359228   7.5054924  64.5510185  41.3976712
   7.5261679  63.8405502  42.7343414   8.9798372  60.6974588  35.9069030
   9.6822416  61.1495632  36.3742956   8.6479001  60.0558407  36.5348923
   7.4278734  59.2886345  50.2820239   6.7977394  59.9702625  50.5155636
   7.3214822  59.1769426  49.3373377   2.7223706  58.9558141  41.2086163
   1.9322760  59.2115669  40.7326274   3.2134954  59.7706478  41.3138204
  16.7387516  66.2963380  43.9591444  17.5604960  65.8943567  43.6774126
  16.7349919  66.1931614  44.9107560   4.6738452  59.3202720  38.1669640
   3.8769615  59.4321414  38.6853136   4.4464044  59.6589372  37.3010531
  10.5044119  65.8447423  46.1152155  10.5688552  66.3067830  46.9510327
   9.7955043  65.2144788  46.2434465   1.0061409  59.2088631  43.6401154
   1.2569448  60.0935641  43.9058730   1.5420958  59.0293233  42.8676246
  24.8293509  62.6402128  40.3076416  24.0757217  62.0709526  40.1520420
  24.9641050  62.6064793  41.2547050  10.2192137  67.5115531  35.9831135
  10.0837812  68.3567066  36.4115983  10.7601949  67.7134808  35.2197069
   6.7059477  53.5907110  52.6445490   6.3126422  53.0373309  53.3193134
   7.5225617  53.9017689  53.0352008   3.6721534  65.0290969  36.5559060
   4.1846055  65.8234219  36.7064625   4.3244247  64.3317259  36.4892662
   5.4816419  68.1456725  38.6381813   5.6583047  69.0674690  38.4502797
   6.2773253  67.8315144  39.0676193   9.6227438  55.0064990  50.2365747
  10.3637151  55.6072143  50.1570209   9.8545360  54.2642627  49.6783789
   4.7668776  60.1921357  48.5143976   4.6522291  59.2906614  48.8151075
   3.9113293  60.4385054  48.1628793  11.8460613  68.1339097  50.1131477
  11.4024468  67.3475476  49.7952382  12.5077827  68.3218248  49.4475368
   6.6047735  69.6634899  44.6392156   7.1555160  69.5351962  43.8669150
   5.7659210  69.9629788  44.2887048  13.9441851  68.4141897  48.1412878
  13.9260327  69.2350778  47.6493148  14.8661771  68.2895972  48.3663020
  10.4014906  65.9286027  48.9836387  10.9343242  65.1674315  48.7535695
   9.8728987  65.6359678  49.7260541  13.5684601  51.0346092  44.5130028
  13.2248870  51.9247734  44.4369139  13.9363563  50.8447750  43.6499613
   1.6370451  63.3579623  37.3318631   2.4745673  63.7676631  37.1152338
   1.8148719  62.4179065  37.3018825  13.5334883  61.0254704  33.0202464
  13.0181507  61.7959308  33.2590851  13.2612192  60.3519840  33.6435525
  11.1181994  55.8704404  38.0787702  10.2623591  55.4811255  37.8993341
  11.5308946  55.9496365  37.2187487  12.6481141  53.4050748  42.4779262
  12.1445937  53.3680883  41.6647067  12.9411748  54.3143490  42.5375918
   8.8924027  53.4889477  41.4845443   9.7577024  53.2932286  41.1251333
   8.9601536  53.2599829  42.4114800  18.5069157  63.7787058  34.9555637
  17.7298600  63.4398218  34.5110799  19.1860638  63.7839681  34.2810602
  13.3221186  58.8981796  34.8462245  13.0171322  59.2127945  35.6972388
  14.2751629  58.9763216  34.8889578  11.7667618  65.0572019  36.4955199
  11.2388980  64.3224779  36.1828436  11.2655121  65.8346695  36.2495167
  16.7460464  63.2521039  41.6122245  16.0884139  63.9420301  41.7002374
  17.5500863  63.6417471  41.9556231   6.4986346  55.7191685  38.8561810
   7.0730098  55.4966867  38.1235003   7.0857328  55.7880380  39.6090412
  15.5565923  61.6065412  39.6626187  16.0697805  62.2395404  40.1647897
  16.2067147  61.0066608  39.2969547   6.8255933  57.7496146  32.8757696
   5.9893245  58.0870833  33.1966970   6.6860703  57.6145126  31.9384833
   8.8009014  52.5932934  37.5836880   8.1473426  52.2781951  36.9593494
   8.7589488  51.9708675  38.3096703   9.9120218  62.8752229  29.4990172
   9.0047280  62.6441483  29.6981321  10.4091250  62.0789848  29.6864153
  12.8188297  71.5849736  32.4186858  12.1449996  71.8881433  33.0271816
  13.2054119  72.3878817  32.0692315  12.0346754  59.0814868  41.9084527
  11.1169315  59.3029815  41.7506215  12.4506898  59.1561178  41.0496235
  12.8181802  60.4806283  37.0387208  13.5653621  60.9927681  36.7294330
  13.0873391  60.1590336  37.8991601  11.0908452  62.9764824  34.0214162
  10.1819671  62.6923857  34.1186632  11.1203536  63.3963903  33.1617469
  16.3227719  66.5871414  37.7905329  15.8690046  65.7462323  37.8470520
  15.6921686  67.2232812  38.1280110  15.2660639  57.5163400  39.0205997
  14.5283396  57.0040786  39.3516239  15.5187412  57.0763781  38.2089274
  14.7660659  68.4247910  38.7255148  15.0583633  68.9852967  38.0067513
  15.2759279  68.7176471  39.4808307  15.3672266  50.2939652  39.6147766
  15.6731143  49.4337015  39.3273681  16.0924871  50.8857272  39.4146760
   1.6596622  60.6970338  38.0029364   1.4621022  60.1039699  37.2780431
   1.1043286  60.3922548  38.7205303   9.6393346  60.5893445  40.1223957
   9.6941956  59.6367281  40.0466434   8.8284548  60.7452884  40.6065256
  10.7884540  64.5173568  31.3602240  10.3503970  63.8009427  30.9007878
  11.5294981  64.7449683  30.7987332   7.5785706  59.2070504  37.8814336
   6.7653571  59.5064675  38.2879528   8.0744700  58.8126193  38.5988818
   9.7294284  69.2028261  39.8148601   9.6870463  69.4289108  38.8857133
  10.6456983  68.9691636  39.9634402  13.1759918  59.6712329  46.7129230
  13.5309305  59.8983802  47.5723696  13.8232049  60.0030706  46.0906485
  18.9057654  62.7930765  37.4178559  18.7675553  62.9832361  36.4899748
  18.5493873  63.5550148  37.8746610   7.0699781  56.7788860  43.4975571
   7.7099160  56.6377619  42.7998534   6.2377311  56.4923373  43.1214173
  18.9327034  64.8607292  42.4289831  19.3663541  64.7682581  43.2772885
  19.6458615  64.8364792  41.7909847   7.8460085  66.0791290  39.6110563
   8.6400683  65.5841611  39.4093138   7.1351777  65.5509154  39.2478269
  12.6654929  68.4609386  43.9622931  12.7191951  69.0300322  44.7300647
  11.7969710  68.6311271  43.5976968   4.1542848  60.2234372  35.6870316
   3.2240436  60.1618828  35.9040278   4.2500320  59.7010325  34.8906957
   4.0728397  56.7489185  38.2748558   4.3335214  57.6634518  38.1657718
   4.8945569  56.2813628  38.4245171   5.5453322  58.1626942  45.4447382
   6.2176376  57.9544304  44.7960031   4.7183109  57.9649028  45.0052615
  19.7942584  64.9030992  44.9622716  19.9878474  65.8076803  45.2081991
  19.6943202  64.4438412  45.7961301  11.4478894  54.7888883  47.4613043
  10.8006809  55.4878833  47.3677520  12.2179910  55.2225027  47.8289291
  14.8557692  65.0537735  50.5363597  14.7043199  64.8248287  49.6193680
  14.8462372  66.0108337  50.5494942  11.6243029  62.6269648  45.5209863
  12.5535089  62.7780808  45.3478830  11.2034059  62.7153669  44.6658509
  10.4231361  66.6520312  43.2908401  10.2842446  66.2839097  44.1634339
   9.6345957  67.1667952  43.1192358  11.0179512  71.7529409  34.6333937
  11.1931268  71.2817452  35.4479560  10.3312301  72.3795175  34.8615198
  11.9736576  66.0301915  40.6797238  11.6386408  65.9902685  41.5754888
  11.4740521  65.3646631  40.2067649   5.9480820  61.4369545  46.2049820
   5.8100618  60.7049784  46.8061359   6.8585743  61.3478445  45.9234007
  14.9095767  63.3757949  30.9534298  14.2924938  62.6504778  30.8567351
  14.4412256  64.1367310  30.6101372   8.5763120  61.1489504  45.6933499
   9.2862739  60.5082697  45.6520118   8.5332428  61.4002399  46.6159680
  16.5649899  68.0856858  48.6140078  16.5062445  67.4016078  47.9470661
  16.9669417  68.8275848  48.1620704   7.2892054  58.1354722  47.5129139
   6.7529411  57.6845461  48.1650735   6.7008763  58.2700631  46.7699603
   5.5840598  74.9018772  41.4073797   5.8237196  75.5337296  42.0852816
   4.7409794  74.5506812  41.6939157   6.6994313  57.5943374  30.0755602
   5.8223780  57.4732175  29.7117849   7.1752066  56.8029452  29.8234491
  16.5667306  66.0496442  46.8454058  15.6794085  65.7122364  46.9680457
  17.1365857  65.3179473  47.0822823   3.0231175  57.2710730  44.5982133
   2.9389364  56.6636400  43.8632543   2.2013882  57.7619748  44.5991629
  10.0968460  70.7097894  43.8115301  10.0238631  71.5152866  44.3234606
   9.6545853  70.9089860  42.9863323   9.8858239  69.9469664  37.3218123
   9.1025761  70.4891344  37.4156347  10.5850984  70.4643644  37.7212364
  13.1954889  55.7564294  39.9652328  13.6923589  55.0034256  39.6453398
  12.4241871  55.7928610  39.3995538  21.0484647  61.4604659  41.6070620
  21.0374523  62.3429375  41.2364553  20.1802026  61.1076210  41.4125157
  12.5567143  70.6084728  45.9673460  13.2695115  71.2432193  45.8949361
  12.0657172  70.7048594  45.1513462  14.2784670  64.5135981  37.5390752
  13.3440949  64.6337443  37.3695456  14.4561339  63.6108448  37.2750761
   9.7789858  57.8981677  39.6924013   9.4087646  57.3452717  40.3804918
  10.2748951  57.2939810  39.1399013  17.6657221  60.3553300  38.0740786
  18.1317674  61.1881292  38.0001088  18.1164722  59.8898282  38.7786044
   7.6079057  68.3579172  46.7879031   8.3088516  68.9915655  46.9408425
   7.1374172  68.6993903  46.0274670  15.7333453  66.6997121  35.0726938
  16.0093296  66.5853716  35.9820812  14.8637951  66.3014606  35.0339111
  15.6373884  52.7233887  42.1131687  14.7236964  52.9538114  42.2813894
  16.0666986  52.8072331  42.9645719  15.4080343  60.9123779  44.6131581
  14.7551793  61.1599686  43.9584034  15.7860723  60.0987917  44.2794058
  12.3687517  70.9483472  38.7159751  12.5509911  70.1305128  39.1787504
  13.1920503  71.1651164  38.2784641  12.7029682  69.8751657  35.9774800
  13.2317448  69.3644112  35.3644962  12.9657902  69.5594188  36.8420333
  11.4567916  61.6543590  51.0997618  10.7808553  61.5537719  51.7699993
  12.2795550  61.4982804  51.5633615   3.2046775  67.8915527  43.7210133
   3.7900212  67.1459215  43.8538038   3.0071613  68.2019483  44.6046797
   6.0585430  70.9266774  38.7372576   5.3895805  71.4112902  38.2536616
   5.9198300  71.1735994  39.6515954  10.1990699  72.9610518  45.3355234
  10.7509007  73.1242139  46.1004319  10.5396892  73.5514955  44.6635259
   5.1755192  55.3085667  45.9377119   5.2396518  56.1700498  45.5254517
   5.1122312  54.6959669  45.2049477   4.6507464  57.3808800  49.5850153
   5.2779503  56.9985877  50.1987677   3.7935383  57.1623002  49.9505846
  15.0501573  67.7871775  51.1903889  15.5941477  68.4001733  50.6958843
  14.4688418  68.3451353  51.7070902   1.4273007  59.1885229  35.5168508
   1.7226448  58.2795907  35.4635562   0.5261043  59.1672968  35.1949510
  13.3359086  70.9092493  42.3218916  13.2110225  70.1082233  41.8129862
  13.9938177  71.4038686  41.8332886   4.9567254  57.2641226  41.4996057
   4.2353840  57.8777193  41.3603530   5.7460510  57.7998990  41.4212703
  15.3993994  68.7101513  43.9498466  14.4524330  68.5906864  43.8776793
  15.7476767  67.8224011  44.0324728   7.7593568  54.5995652  47.7736708
   8.2827969  54.8457949  48.5363018   7.5405901  55.4315687  47.3539846
   3.1560849  56.8699327  35.6407833   2.8273555  55.9896706  35.4582939
   3.5100219  56.8146995  36.5284222  12.4040428  68.5054229  40.1502819
  12.2565390  67.5770937  40.3310389  13.2293921  68.5274320  39.6659894
   6.2702672  57.1572296  36.0083311   6.6098744  57.6858218  35.2861919
   6.7174792  57.4952703  36.7841877  16.0074549  69.3282788  41.2367691
  16.9321097  69.1225649  41.0992143  15.8389853  69.0799189  42.1457033
   8.9646113  55.5409347  45.4586379   8.6242933  54.7417160  45.8607059
   8.2585119  55.8411058  44.8863212   9.6162584  52.6258660  43.9113702
  10.4388654  52.1519138  43.7892592   9.8600648  53.4049143  44.4112388
   8.2570819  55.6546918  34.2076604   8.9779181  56.0328171  33.7040320
   7.6336123  56.3735795  34.3111582  12.4001942  56.3592067  35.1434936
  12.6165556  57.2416705  34.8423764  11.9196009  55.9678280  34.4140578
   7.1401163  59.3177780  41.7205680   6.9945744  59.6318083  42.6129962
   6.6626367  59.9362681  41.1676579   8.9997546  56.3080328  41.7686570
   8.9859115  55.4121422  41.4318868   9.7169974  56.3150992  42.4024856
  10.8523677  56.7417668  43.8139697  10.5941455  57.6634739  43.8124028
  10.3208717  56.3448103  44.5040162  15.7969866  69.8468456  36.5929783
  15.9706743  69.2814878  35.8403635  16.2898757  70.6469350  36.4109273
   1.6146825  61.8583125  44.6593342   1.0700293  62.6342933  44.7913616
   2.4926175  62.2053929  44.5012463   8.4034442  55.1894708  37.0374140
   8.5250353  54.2611355  37.2365028   8.1136484  55.2033394  36.1252456
  11.2725632  52.8749619  40.1740860  11.2947329  52.9388952  39.2192840
  11.6893691  52.0354128  40.3681366  21.6509257  62.6104878  38.2120083
  22.0940403  61.8612204  37.8139206  20.7735767  62.6015015  37.8293815
  16.7845038  69.1635220  33.6926681  17.4795943  69.7841913  33.9113996
  17.1268188  68.3130571  33.9679059   2.4012847  60.9853021  47.5523499
   1.6594583  61.1335656  48.1388129   2.0805592  61.2461286  46.6890248
  18.6836461  66.6134925  35.2214012  19.2087785  66.9522198  34.4963332
  18.5958814  65.6781941  35.0377147  10.3456510  70.5268999  47.3503889
  10.6543636  70.2818146  48.2226588  11.1431992  70.7315638  46.8622759
  10.3677122  72.6806909  39.5809265   9.9282112  72.1883287  40.2742122
  11.1185239  72.1379876  39.3401340   2.8469461  68.8718450  39.5833893
   3.6727481  68.5722221  39.2032537   2.4963513  68.1026072  40.0323682
   7.8150994  68.2244918  41.6531567   7.1931003  67.5615623  41.3533795
   8.4855861  68.2506050  40.9705215   7.8875522  56.7026706  51.2464073
   7.9363677  57.5788829  50.8641842   8.4298036  56.1604099  50.6735716
  18.3730367  67.2467829  50.5265210  17.5825911  67.2291968  49.9869709
  18.1363722  67.7856123  51.2814246  18.4928242  64.0960295  47.8397938
  18.5426247  63.9310303  48.7813461  18.3842166  63.2287554  47.4495819
   7.3764501  66.7748841  35.1290027   7.5252621  67.4584306  34.4756700
   8.1830944  66.7553931  35.6439483  15.7832005  60.0791223  49.1557245
  16.6841867  59.9397688  48.8641243  15.8579979  60.2445678  50.0955423
  10.1174810  57.4558078  48.0010431   9.2478119  57.7491644  47.7293020
  10.3534290  58.0398523  48.7217695  19.9946439  66.5157237  48.0839960
  19.7031247  66.8787218  48.9203421  19.3818570  65.8024245  47.9053292
  21.1942121  64.0810117  40.6042530  22.0289013  64.5199921  40.7680091
  21.3301250  63.6048770  39.7850776  18.2433627  61.6389852  46.5520018
  18.7187749  61.8317498  45.7438869  17.3199193  61.6949037  46.3063402
   5.1317134  62.8014019  36.1351096   4.8863176  61.8976349  36.3331306
   5.3013048  62.8031169  35.1930574  12.8213844  53.6737695  45.5175852
  13.3395788  54.4098722  45.1922340  12.4668977  53.9801688  46.3522611
   4.4012781  58.5342376  33.6337258   3.7082026  58.6086731  32.9777294
   4.1564533  57.7702720  34.1558775  13.0726438  50.0937978  41.0376748
  13.3528192  49.4261167  41.6637175  13.8577045  50.2867073  40.5251412
  10.8759907  69.2696972  32.6001775  10.3033874  69.8887159  32.1472247
  11.4492700  69.8196333  33.1341697  16.9435296  58.5155612  44.7848324
  17.8952719  58.6153709  44.8060548  16.7738747  57.7233880  45.2946408
  14.9649676  55.6011195  44.9707724  14.3699608  55.8816208  44.2754213
  14.6799373  56.0905096  45.7424466  14.0957166  69.5534122  33.7310357
  15.0287839  69.4879683  33.9343233  14.0080379  70.3890389  33.2724890
  16.7245183  68.8699992  30.6914305  16.6458814  68.5359856  31.5850062
  17.5454850  69.3621760  30.6905777  19.4223374  61.7361731  43.8990623
  19.3899694  60.7977732  44.0850307  20.0323998  61.8145768  43.1656448
  11.2606705  60.6057784  29.9417827  12.2065810  60.4763992  30.0106245
  10.8820950  59.8672446  30.4187255  19.5717863  58.5272775  43.9448906
  19.0556911  57.7431231  43.7578835  20.4557811  58.1991491  44.1095426
  17.2328590  52.2713790  39.9044719  17.0353411  51.9628879  40.7888051
  17.8428295  52.9975429  40.0342649  25.2399924  62.7977738  43.0396660
  25.9703312  62.5363026  43.6004363  24.6306869  62.0606460  43.0798728
  23.3215221  60.9385601  43.6371111  22.5948385  60.8041566  43.0287603
  22.9062508  61.2462429  44.4427829  11.1445398  64.6575530  51.4018484
  12.0648407  64.8354130  51.5958531  11.1094981  63.7131576  51.2498183
   9.4449622  58.5307761  29.8772712   8.5381078  58.2340873  29.9535426
   9.7225603  58.2337579  29.0106999   4.1407470  62.5676565  44.0441265
   4.3593480  63.4993673  44.0629299   4.5533244  62.2084540  44.8296069
  11.0611688  53.0744650  36.0316954  10.2512416  52.7291735  36.4072200
  11.7496105  52.7652194  36.6204565  12.9902236  52.1522697  37.6541250
  13.5433275  52.5718151  38.3131273  13.2272323  51.2258445  37.6964206
   9.0135335  58.1409771  53.4344014   8.9132062  59.0904128  53.3656105
   8.7956877  57.8128010  52.5620084   8.2148407  55.3894696  30.0184692
   9.0767571  55.7149594  30.2780509   8.3998751  54.6026192  29.5057757
  16.3681043  54.2623222  37.1619915  15.7879712  54.9208026  36.7797967
  16.1016976  53.4400567  36.7507332  14.8184610  53.6628280  39.3641235
  15.3184388  53.7744815  38.5555554  15.4620218  53.3589333  40.0042043
   8.8766605  61.5706910  52.2509076   8.3933687  62.3707270  52.4572965
   8.9627544  61.5814855  51.2976520   2.1452565  63.4035289  40.1730895
   2.1223253  63.5022977  39.2212778   2.4553202  64.2500440  40.4948061
   4.8039943  65.4611444  44.2877510   5.7583196  65.4295387  44.2207441
   4.6052467  65.0002068  45.1027736   5.3939325  64.0312561  46.8548307
   6.2132214  64.5256639  46.8783145   5.6676133  63.1144529  46.8265875
  15.1505921  56.4223313  36.2176263  14.2631776  56.7072963  35.9996458
  15.5659910  56.2617076  35.3703540  18.5020457  56.4469834  39.9330602
  19.2780848  56.9366286  40.2055219  17.7768592  56.8727888  40.3902472
  20.9393016  57.1597453  40.9904543  21.5337507  56.9193189  40.2797851
  21.0119600  56.4404584  41.6178079   3.1590172  71.0031064  41.3047708
   3.0244640  70.2431465  40.7385706   2.7422234  71.7271964  40.8376496
  14.2949135  66.1867987  30.3124283  14.9984985  66.3917990  30.9281939
  13.5711784  66.7544749  30.5773366  15.1246945  61.9377849  36.4326553
  15.0682146  62.3946400  35.5934185  15.6775287  61.1768533  36.2549396
  18.9351751  57.7267581  37.2576673  18.6788685  57.3264216  38.0884880
  18.3104619  58.4411375  37.1326812  23.2464089  60.4663654  39.7647964
  22.6863647  60.5356843  40.5379526  22.6407592  60.2904638  39.0447460
   6.3159298  71.9000381  41.5166150   6.1991682  72.8445813  41.4144841
   5.4951744  71.5973943  41.9051949  16.2035832  66.6250517  32.3622743
  17.0381436  66.1931715  32.1800218  16.0420175  66.4532530  33.2899637
  15.8581724  63.1282630  33.7279082  15.8030528  62.9626901  32.7867526
  15.2327780  63.8358663  33.8841272  13.1727632  65.4331542  53.0532645
  14.0418791  65.6072194  52.6919280  12.6934383  66.2525959  52.9308374
   9.1677850  52.6290739  33.3064401   9.1556520  53.5732579  33.4632672
  10.0601272  52.4460884  33.0123862   7.3413812  72.5528643  44.7322079
   8.2441058  72.5852253  45.0488574   7.1151182  71.6229094  44.7468414
   9.0967414  71.3059629  41.3932157   8.1463045  71.3061491  41.2796530
   9.3999900  70.5592364  40.8768192  12.9829969  49.2233516  37.5610337
  12.2162365  48.6692002  37.7067020  13.3940674  49.2955384  38.4224489
   4.9871730  55.5118311  51.6515519   5.8503192  55.1555116  51.8618843
   4.4137141  55.1732206  52.3390923  24.8320107  77.1420168  42.4577920
  25.4698517  77.0226915  41.7541260  24.7140950  78.0901012  42.5165872
  21.6409814  77.0947596  42.3939444  21.3028325  76.9788661  41.5059979
  22.5099582  76.6938761  42.3740451  17.4996629  78.9483072  38.3836335
  16.9361494  78.8573009  37.6152623  17.3849024  78.1282977  38.8638828
  22.1229597  78.2482448  48.3525650  22.1118237  77.8535246  47.4806154
  22.2850236  77.5148520  48.9459421  15.0461061  80.4434264  41.2220556
  15.8382353  80.1025089  40.8066855  15.2857711  80.5529239  42.1422709
  23.0796188  82.6154040  33.6950800  22.4284168  83.2008120  33.3084814
  23.8740551  83.1460235  33.7545838  17.0051815  79.7043177  34.0937935
  17.7782691  79.1572164  33.9550810  17.3577214  80.5687426  34.3052396
  18.8436858  81.0319559  47.3004834  18.5526724  81.9365190  47.1851500
  19.4793842  81.0736087  48.0148903  19.7693065  78.4096408  43.8906194
  20.3656637  78.1852430  43.1763156  19.8268036  77.6681153  44.4931641
  19.3418093  75.8635843  31.7256384  19.5943614  75.3417365  30.9639848
  18.4042652  75.7001989  31.8283068  24.3861376  74.8671622  39.5331128
  25.1724465  74.4491045  39.1821545  24.6500080  75.7717714  39.7012776
  24.5571453  80.3044472  34.2319785  23.9217286  80.3779098  34.9440689
  24.2268859  80.8938071  33.5538864  29.7869803  74.8046855  40.4364106
  30.5194975  74.2346072  40.6701936  29.0309159  74.4168455  40.8770612
  19.0614382  77.7663949  33.9280759  18.9450640  77.0908853  34.5961844
  19.1716642  77.2796323  33.1112913  21.4045923  77.2274096  37.6327449
  21.0404130  76.7004717  38.3440370  22.2613038  76.8372565  37.4593934
  27.3095223  68.5168429  44.8958715  26.9778548  69.3863840  44.6719930
  26.7140837  68.2004713  45.5752745  21.0451410  72.2563996  32.6288797
  21.2125812  73.1244232  32.9959268  20.8548579  72.4191278  31.7050086
  23.8026743  80.7180975  44.2954628  23.5027466  81.6206014  44.1870435
  23.4577802  80.4513158  45.1475780  17.2539224  77.1694772  40.3291332
  16.3289721  77.0370986  40.5369024  17.5023637  77.9488991  40.8261274
  27.2023887  73.2363515  41.9752065  26.2940764  73.1678924  41.6810826
  27.1511482  73.7135460  42.8033890  21.0240630  74.7121654  33.6135464
  20.9040256  75.1578704  34.4520944  20.3293219  75.0606971  33.0549002
  14.6148035  76.8128045  41.1635121  14.7440416  77.0662524  42.0774533
  13.9345487  77.4055753  40.8439776  18.7847523  87.4825295  37.2625595
  18.7071552  88.4333120  37.3414076  18.1809166  87.1371168  37.9200522
  21.2764752  74.6553161  49.9186962  20.4998086  75.2147081  49.9089827
  21.9155315  75.1409944  50.4401832  29.0685533  71.4379954  43.7529939
  28.4259913  71.7312487  43.1069733  28.5640461  71.3232874  44.5583135
  26.7225697  75.1843127  34.4415798  27.6343553  75.4170513  34.2663496
  26.2135344  75.7680171  33.8790877  19.5311125  77.4638614  49.4804929
  20.2725809  78.0023658  49.2039753  18.8248110  78.0904903  49.6376481
  25.0066464  79.6067755  48.0777091  25.4149820  79.1650165  47.3331723
  24.2843726  79.0320382  48.3311284  21.3597534  74.5440361  45.4510648
  22.2058729  74.9679775  45.5945297  21.2996172  73.8873986  46.1449211
  25.3295279  80.1668945  41.8329380  24.7004141  80.3314659  41.1305447
  24.9420941  80.5810555  42.6040344  29.2084511  81.1023383  39.1873743
  28.5235549  81.4822284  38.6370777  29.2928360  81.7118710  39.9205691
  24.5096980  72.2044730  47.1091821  24.2657912  72.9586790  46.5726097
  24.7856910  72.5830077  47.9439068  26.4635442  78.7483342  45.7869087
  26.6752338  79.3915102  45.1103468  26.4165191  77.9145659  45.3191017
  24.0661671  71.3601163  42.6905659  23.2046150  71.6582416  42.9822397
  24.0924106  71.5771562  41.7586692  20.8823241  79.9043353  39.0979465
  21.3461586  80.1831056  38.3084087  20.6180039  79.0026798  38.9152555
  17.7747322  79.4514835  42.0359228  18.3448679  79.8802103  41.3976712
  18.3655434  79.1697420  42.7343414  19.8192127  76.0266506  35.9069030
  20.5216170  76.4787549  36.3742956  19.4872755  75.3850324  36.5348923
  18.2672488  74.6178262  50.2820239  17.6371149  75.2994543  50.5155636
  18.1608576  74.5061344  49.3373377  13.5617461  74.2850058  41.2086163
  12.7716515  74.5407587  40.7326274  14.0528708  75.0998396  41.3138204
  27.5781270  81.6255297  43.9591444  28.3998714  81.2235485  43.6774126
  27.5743673  81.5223532  44.9107560  15.5132206  74.6494638  38.1669640
  14.7163369  74.7613332  38.6853136  15.2857798  74.9881290  37.3010531
  21.3437874  81.1739341  46.1152155  21.4082306  81.6359748  46.9510327
  20.6348798  80.5436706  46.2434465  11.8455164  74.5380549  43.6401154
  12.0963202  75.4227559  43.9058730  12.3814712  74.3585150  42.8676246
  35.6687263  77.9694046  40.3076416  34.9150972  77.4001444  40.1520420
  35.8034805  77.9356710  41.2547050  21.0585891  82.8407448  35.9831135
  20.9231566  83.6858984  36.4115983  21.5995704  83.0426726  35.2197069
  17.5453231  68.9199028  52.6445490  17.1520177  68.3665227  53.3193134
  18.3619371  69.2309607  53.0352008  14.5115289  80.3582886  36.5559060
  15.0239809  81.1526137  36.7064625  15.1638002  79.6609177  36.4892662
  16.3210174  83.4748643  38.6381813  16.4976802  84.3966607  38.4502797
  17.1167007  83.1607062  39.0676193  20.4621192  70.3356907  50.2365747
  21.2030905  70.9364060  50.1570209  20.6939115  69.5934545  49.6783789
  15.6062530  75.5213274  48.5143976  15.4916045  74.6198532  48.8151075
  14.7507048  75.7676971  48.1628793  22.6854368  83.4631015  50.1131477
  22.2418222  82.6767393  49.7952382  23.3471581  83.6510165  49.4475368
  17.4441489  84.9926816  44.6392156  17.9948914  84.8643880  43.8669150
  16.6052965  85.2921705  44.2887048  24.7835606  83.7433815  48.1412878
  24.7654081  84.5642696  47.6493148  25.7055526  83.6187890  48.3663020
  21.2408660  81.2577944  48.9836387  21.7736997  80.4966232  48.7535695
  20.7122741  80.9651596  49.7260541  24.4078355  66.3638010  44.5130028
  24.0642624  67.2539652  44.4369139  24.7757318  66.1739668  43.6499613
  12.4764206  78.6871541  37.3318631  13.3139428  79.0968549  37.1152338
  12.6542473  77.7470983  37.3018825  24.3728638  76.3546621  33.0202464
  23.8575261  77.1251226  33.2590851  24.1005946  75.6811757  33.6435525
  21.9575749  71.1996322  38.0787702  21.1017345  70.8103172  37.8993341
  22.3702701  71.2788283  37.2187487  23.4874895  68.7342665  42.4779262
  22.9839691  68.6972800  41.6647067  23.7805502  69.6435408  42.5375918
  19.7317781  68.8181395  41.4845443  20.5970778  68.6224204  41.1251333
  19.7995290  68.5891747  42.4114800  29.3462912  79.1078976  34.9555637
  28.5692355  78.7690135  34.5110799  30.0254393  79.1131599  34.2810602
  24.1614941  74.2273713  34.8462245  23.8565076  74.5419863  35.6972388
  25.1145383  74.3055133  34.8889578  22.6061373  80.3863937  36.4955199
  22.0782734  79.6516696  36.1828436  22.1048875  81.1638613  36.2495167
  27.5854219  78.5812957  41.6122245  26.9277893  79.2712219  41.7002374
  28.3894618  78.9709389  41.9556231  17.3380100  71.0483603  38.8561810
  17.9123852  70.8258784  38.1235003  17.9251083  71.1172297  39.6090412
  26.3959678  76.9357330  39.6626187  26.9091559  77.5687322  40.1647897
  27.0460901  76.3358525  39.2969547  17.6649687  73.0788064  32.8757696
  16.8287000  73.4162751  33.1966970  17.5254457  72.9437044  31.9384833
  19.6402768  67.9224852  37.5836880  18.9867180  67.6073869  36.9593494
  19.5983242  67.3000592  38.3096703  20.7513973  78.2044147  29.4990172
  19.8441035  77.9733400  29.6981321  21.2485005  77.4081766  29.6864153
  23.6582052  86.9141654  32.4186858  22.9843751  87.2173351  33.0271816
  24.0447874  87.7170734  32.0692315  22.8740508  74.4106785  41.9084527
  21.9563070  74.6321732  41.7506215  23.2900652  74.4853096  41.0496235
  23.6575556  75.8098201  37.0387208  24.4047375  76.3219598  36.7294330
  23.9267146  75.4882254  37.8991601  21.9302206  78.3056742  34.0214162
  21.0213426  78.0215775  34.1186632  21.9597290  78.7255820  33.1617469
  27.1621474  81.9163331  37.7905329  26.7083801  81.0754241  37.8470520
  26.5315441  82.5524730  38.1280110  26.1054393  72.8455317  39.0205997
  25.3677150  72.3332704  39.3516239  26.3581167  72.4055699  38.2089274
  25.6054413  83.7539828  38.7255148  25.8977387  84.3144885  38.0067513
  26.1153034  84.0468389  39.4808307  26.2066021  65.6231569  39.6147766
  26.5124897  64.7628933  39.3273681  26.9318625  66.2149190  39.4146760
  12.4990377  76.0262256  38.0029364  12.3014777  75.4331617  37.2780431
  11.9437041  75.7214466  38.7205303  20.4787100  75.9185362  40.1223957
  20.5335710  74.9659199  40.0466434  19.6678302  76.0744801  40.6065256
  21.6278294  79.8465485  31.3602240  21.1897724  79.1301344  30.9007878
  22.3688735  80.0741600  30.7987332  18.4179460  74.5362422  37.8814336
  17.6047326  74.8356593  38.2879528  18.9138455  74.1418111  38.5988818
  20.5688038  84.5320179  39.8148601  20.5264217  84.7581025  38.8857133
  21.4850737  84.2983554  39.9634402  24.0153672  75.0004247  46.7129230
  24.3703060  75.2275720  47.5723696  24.6625803  75.3322623  46.0906485
  29.7451409  78.1222682  37.4178559  29.6069308  78.3124278  36.4899748
  29.3887628  78.8842065  37.8746610  17.9093535  72.1080778  43.4975571
  18.5492914  71.9669537  42.7998534  17.0771066  71.8215291  43.1214173
  29.7720789  80.1899209  42.4289831  30.2057295  80.0974499  43.2772885
  30.4852369  80.1656710  41.7909847  18.6853839  81.4083208  39.6110563
  19.4794437  80.9133528  39.4093138  17.9745531  80.8801071  39.2478269
  23.5048683  83.7901304  43.9622931  23.5585706  84.3592240  44.7300647
  22.6363465  83.9603189  43.5976968  14.9936602  75.5526290  35.6870316
  14.0634191  75.4910745  35.9040278  15.0894074  75.0302243  34.8906957
  14.9122152  72.0781103  38.2748558  15.1728969  72.9926436  38.1657718
  15.7339324  71.6105545  38.4245171  16.3847077  73.4918860  45.4447382
  17.0570130  73.2836222  44.7960031  15.5576863  73.2940946  45.0052615
  30.6336338  80.2322910  44.9622716  30.8272228  81.1368721  45.2081991
  30.5336956  79.7730329  45.7961301  22.2872649  70.1180801  47.4613043
  21.6400564  70.8170750  47.3677520  23.0573664  70.5516945  47.8289291
  25.6951447  80.3829653  50.5363597  25.5436953  80.1540205  49.6193680
  25.6856126  81.3400254  50.5494942  22.4636783  77.9561566  45.5209863
  23.3928843  78.1072725  45.3478830  22.0427813  78.0445586  44.6658509
  21.2625115  81.9812230  43.2908401  21.1236201  81.6131014  44.1634339
  20.4739711  82.4959869  43.1192358  21.8573267  87.0821327  34.6333937
  22.0325023  86.6109370  35.4479560  21.1706055  87.7087093  34.8615198
  22.8130330  81.3593833  40.6797238  22.4780163  81.3194603  41.5754888
  22.3134276  80.6938549  40.2067649  16.7874574  76.7661463  46.2049820
  16.6494372  76.0341702  46.8061359  17.6979498  76.6770363  45.9234007
  25.7489522  78.7049867  30.9534298  25.1318692  77.9796695  30.8567351
  25.2806010  79.4659227  30.6101372  19.4156875  76.4781422  45.6933499
  20.1256493  75.8374614  45.6520118  19.3726183  76.7294317  46.6159680
  27.4043653  83.4148775  48.6140078  27.3456200  82.7307996  47.9470661
  27.8063172  84.1567765  48.1620704  18.1285809  73.4646640  47.5129139
  17.5923166  73.0137378  48.1650735  17.5402517  73.5992549  46.7699603
  16.4234352  90.2310689  41.4073797  16.6630950  90.8629213  42.0852816
  15.5803549  89.8798729  41.6939157  17.5388068  72.9235291  30.0755602
  16.6617534  72.8024092  29.7117849  18.0145821  72.1321370  29.8234491
  27.4061061  81.3788359  46.8454058  26.5187839  81.0414281  46.9680457
  27.9759612  80.6471391  47.0822823   9.0590208  77.7112451  40.1697109
   9.7461248  77.3974181  39.5818125   8.9038337  78.6153816  39.8964361
  13.8624930  72.6002648  44.5982133  13.7783119  71.9928317  43.8632543
  13.0407636  73.0911666  44.5991629  20.9362214  86.0389812  43.8115301
  20.8632386  86.8444783  44.3234606  20.4939607  86.2381778  42.9863323
  20.7251994  85.2761582  37.3218123  19.9419516  85.8183262  37.4156347
  21.4244739  85.7935561  37.7212364  24.0348644  71.0856211  39.9652328
  24.5317343  70.3326174  39.6453398  23.2635625  71.1220528  39.3995538
  31.8878401  76.7896577  41.6070620  31.8768277  77.6721292  41.2364553
  31.0195781  76.4368128  41.4125157  23.3960898  85.9376646  45.9673460
  24.1088870  86.5724111  45.8949361  22.9050926  86.0340512  45.1513462
  25.1178425  79.8427898  37.5390752  24.1834703  79.9629361  37.3695456
  25.2955093  78.9400365  37.2750761  20.6183613  73.2273594  39.6924013
  20.2481400  72.6744635  40.3804918  21.1142705  72.6231728  39.1399013
  28.5050976  75.6845218  38.0740786  28.9711428  76.5173209  38.0001088
  28.9558476  75.2190199  38.7786044  18.4472811  83.6871089  46.7879031
  19.1482271  84.3207572  46.9408425  17.9767926  84.0285821  46.0274670
  26.5727207  82.0289039  35.0726938  26.8487051  81.9145634  35.9820812
  25.7031706  81.6306524  35.0339111  26.4767639  68.0525805  42.1131687
  25.5630718  68.2830032  42.2813894  26.9060740  68.1364249  42.9645719
  26.2474097  76.2415697  44.6131581  25.5945547  76.4891604  43.9584034
  26.6254477  75.4279835  44.2794058  23.2081271  86.2775390  38.7159751
  23.3903666  85.4597046  39.1787504  24.0314257  86.4943082  38.2784641
  23.5423437  85.2043575  35.9774800  24.0711203  84.6936030  35.3644962
  23.8051656  84.8886105  36.8420333  22.2961670  76.9835508  51.0997618
  21.6202307  76.8829637  51.7699993  23.1189304  76.8274721  51.5633615
  14.0440529  83.2207444  43.7210133  14.6293966  82.4751132  43.8538038
  13.8465368  83.5311401  44.6046797  16.8979184  86.2558692  38.7372576
  16.2289560  86.7404819  38.2536616  16.7592054  86.5027912  39.6515954
   8.6358184  75.7913044  42.4414577   8.6742283  75.2576635  43.2351695
   8.1298477  75.2648250  41.8225554  21.0384453  88.2902435  45.3355234
  21.5902761  88.4534057  46.1004319  21.3790646  88.8806873  44.6635259
  16.0148946  70.6377585  45.9377119  16.0790273  71.4992416  45.5254517
  15.9516067  70.0251587  45.2049477  15.4901219  72.7100718  49.5850153
  16.1173258  72.3277795  50.1987677  14.6329138  72.4914919  49.9505846
  25.8895327  83.1163693  51.1903889  26.4335231  83.7293651  50.6958843
  25.3082172  83.6743271  51.7070902  12.2666762  74.5177147  35.5168508
  12.5620203  73.6087825  35.4635562  11.3654797  74.4964886  35.1949510
  24.1752840  86.2384411  42.3218916  24.0503980  85.4374151  41.8129862
  24.8331931  86.7330604  41.8332886  15.7961009  72.5933143  41.4996057
  15.0747594  73.2069111  41.3603530  16.5854264  73.1290908  41.4212703
  26.2387749  84.0393431  43.9498466  25.2918084  83.9198782  43.8776793
  26.5870522  83.1515929  44.0324728  18.5987322  69.9287570  47.7736708
  19.1221724  70.1749866  48.5363018  18.3799655  70.7607605  47.3539846
  13.9954603  72.1991244  35.6407833  13.6667309  71.3188623  35.4582939
  14.3493974  72.1438913  36.5284222  23.2434182  83.8346147  40.1502819
  23.0959144  82.9062854  40.3310389  24.0687676  83.8566238  39.6659894
  17.1096426  72.4864214  36.0083311  17.4492499  73.0150135  35.2861919
  17.5568547  72.8244620  36.7841877  26.8468304  84.6574706  41.2367691
  27.7714851  84.4517567  41.0992143  26.6783607  84.4091107  42.1457033
  19.8039867  70.8701265  45.4586379  19.4636687  70.0709078  45.8607059
  19.0978873  71.1702976  44.8863212  20.4556339  67.9550577  43.9113702
  21.2782408  67.4811055  43.7892592  20.6994402  68.7341061  44.4112388
  19.0964573  70.9838836  34.2076604  19.8172936  71.3620088  33.7040320
  18.4729878  71.7027713  34.3111582  23.2395696  71.6883985  35.1434936
  23.4559311  72.5708623  34.8423764  22.7589763  71.2970198  34.4140578
  17.9794918  74.6469698  41.7205680  17.8339498  74.9610001  42.6129962
  17.5020121  75.2654598  41.1676579  19.8391301  71.6372246  41.7686570
  19.8252869  70.7413339  41.4318868  20.5563729  71.6442910  42.4024856
  21.6917431  72.0709586  43.8139697  21.4335209  72.9926657  43.8124028
  21.1602472  71.6740021  44.5040162  26.6363620  85.1760373  36.5929783
  26.8100498  84.6106796  35.8403635  27.1292511  85.9761268  36.4109273
  12.4540580  77.1875042  44.6593342  11.9094048  77.9634850  44.7913616
  13.3319930  77.5345847  44.5012463  19.2428197  70.5186626  37.0374140
  19.3644108  69.5903272  37.2365028  18.9530239  70.5325312  36.1252456
  22.1119387  68.2041537  40.1740860  22.1341084  68.2680870  39.2192840
  22.5287446  67.3646045  40.3681366  32.4903011  77.9396796  38.2120083
  32.9334157  77.1904121  37.8139206  31.6129522  77.9306933  37.8293815
  27.6238793  84.4927138  33.6926681  28.3189697  85.1133830  33.9113996
  27.9661943  83.6422489  33.9679059  13.2406602  76.3144939  47.5523499
  12.4988338  76.4627574  48.1388129  12.9199346  76.5753204  46.6890248
  29.5230216  81.9426843  35.2214012  30.0481540  82.2814116  34.4963332
  29.4352568  81.0073858  35.0377147  21.1850264  85.8560917  47.3503889
  21.4937391  85.6110064  48.2226588  21.9825746  86.0607555  46.8622759
  21.2070876  88.0098826  39.5809265  20.7675867  87.5175205  40.2742122
  21.9578993  87.4671794  39.3401340  13.6863215  84.2010367  39.5833893
  14.5121235  83.9014139  39.2032537  13.3357267  83.4317990  40.0323682
  18.6544749  83.5536836  41.6531567  18.0324758  82.8907541  41.3533795
  19.3249615  83.5797967  40.9705215  11.8871820  82.1196694  40.5422827
  11.0503729  81.6918868  40.3606828  11.8595466  82.3129137  41.4793618
  18.7269276  72.0318624  51.2464073  18.7757432  72.9080746  50.8641842
  19.2691790  71.4896017  50.6735716  29.2124122  82.5759747  50.5265210
  28.4219665  82.5583886  49.9869709  28.9757476  83.1148040  51.2814246
  29.3321997  79.4252213  47.8397938  29.3820002  79.2602221  48.7813461
  29.2235920  78.5579472  47.4495819  18.2158255  82.1040759  35.1290027
  18.3646376  82.7876223  34.4756700  19.0224699  82.0845849  35.6439483
  26.6225759  75.4083141  49.1557245  27.5235622  75.2689606  48.8641243
  26.6973734  75.5737596  50.0955423  20.9568564  72.7849996  48.0010431
  20.0871874  73.0783562  47.7293020  21.1928045  73.3690441  48.7217695
  30.8340194  81.8449155  48.0839960  30.5425002  82.2079135  48.9203421
  30.2212325  81.1316163  47.9053292  32.0335876  79.4102034  40.6042530
  32.8682767  79.8491839  40.7680091  32.1695005  78.9340688  39.7850776
  29.0827382  76.9681769  46.5520018  29.5581503  77.1609416  45.7438869
  28.1592947  77.0240955  46.3063402  15.9710888  78.1305936  36.1351096
  15.7256930  77.2268266  36.3331306  16.1406803  78.1323087  35.1930574
  23.6607598  69.0029613  45.5175852  24.1789542  69.7390640  45.1922340
  23.3062731  69.3093606  46.3522611  15.2406536  73.8634294  33.6337258
  14.5475781  73.9378649  32.9777294  14.9958288  73.0994638  34.1558775
  23.9120192  65.4229895  41.0376748  24.1921946  64.7553084  41.6637175
  24.6970799  65.6158991  40.5251412  21.7153661  84.5988889  32.6001775
  21.1427628  85.2179076  32.1472247  22.2886455  85.1488251  33.1341697
  27.7829051  73.8447529  44.7848324  28.7346474  73.9445627  44.8060548
  27.6132501  73.0525798  45.2946408  25.8043430  70.9303113  44.9707724
  25.2093362  71.2108125  44.2754213  25.5193127  71.4197014  45.7424466
  24.9350921  84.8826039  33.7310357  25.8681594  84.8171601  33.9343233
  24.8474134  85.7182306  33.2724890  27.5638937  84.1991910  30.6914305
  27.4852569  83.8651773  31.5850062  28.3848604  84.6913678  30.6905777
  30.2617129  77.0653649  43.8990623  30.2293449  76.1269650  44.0850307
  30.8717752  77.1437686  43.1656448  22.1000459  75.9349702  29.9417827
  23.0459564  75.8055910  30.0106245  21.7214704  75.1964364  30.4187255
  30.4111617  73.8564692  43.9448906  29.8950666  73.0723149  43.7578835
  31.2951566  73.5283409  44.1095426  28.0722344  67.6005708  39.9044719
  27.8747165  67.2920796  40.7888051  28.6822050  68.3267347  40.0342649
  36.0793678  78.1269656  43.0396660  36.8097067  77.8654944  43.6004363
  35.4700624  77.3898378  43.0798728  34.1608976  76.2677518  43.6371111
  33.4342139  76.1333483  43.0287603  33.7456262  76.5754347  44.4427829
  21.9839152  79.9867448  51.4018484  22.9042161  80.1646047  51.5958531
  21.9488735  79.0423494  51.2498183  20.2843377  73.8599678  29.8772712
  19.3774832  73.5632791  29.9535426  20.5619358  73.5629497  29.0106999
  11.2021317  75.1806042  40.3271759  10.8824101  74.3271350  40.0346133
  10.6554745  75.3954620  41.0829726  14.9801225  77.8968483  44.0441265
  15.1987234  78.8285591  44.0629299  15.3926998  77.5376457  44.8296069
  21.9005442  68.4036568  36.0316954  21.0906171  68.0583653  36.4072200
  22.5889859  68.0944112  36.6204565  23.8295991  67.4814615  37.6541250
  24.3827029  67.9010068  38.3131273  24.0666077  66.5550363  37.6964206
  19.8529090  73.4701689  53.4344014  19.7525817  74.4196046  53.3656105
  19.6350632  73.1419927  52.5620084  19.0542161  70.7186614  30.0184692
  19.9161325  71.0441512  30.2780509  19.2392505  69.9318110  29.5057757
  11.0709577  78.8008953  42.2964880  10.3773048  78.3862906  41.7834835
  11.8182568  78.8429490  41.6998299  27.2074798  69.5915140  37.1619915
  26.6273467  70.2499944  36.7797967  26.9410730  68.7692485  36.7507332
  25.6578364  68.9920198  39.3641235  26.1578142  69.1036732  38.5555554
  26.3013972  68.6881251  40.0042043  19.7160360  76.8998827  52.2509076
  19.2327442  77.6999188  52.4572965  19.8021299  76.9106772  51.2976520
  12.9846320  78.7327207  40.1730895  12.9617008  78.8314894  39.2212778
  13.2946956  79.5792358  40.4948061  15.6433697  80.7903362  44.2877510
  16.5976951  80.7587304  44.2207441  15.4446221  80.3293986  45.1027736
  16.2333080  79.3604478  46.8548307  17.0525969  79.8548557  46.8783145
  16.5069887  78.4436446  46.8265875  25.9899676  71.7515230  36.2176263
  25.1025531  72.0364881  35.9996458  26.4053665  71.5908994  35.3703540
  29.3414212  71.7761751  39.9330602  30.1174602  72.2658204  40.2055219
  28.6162346  72.2019806  40.3902472  31.7786771  72.4889371  40.9904543
  32.3731261  72.2485107  40.2797851  31.8513354  71.7696501  41.6178079
  13.9983926  86.3322982  41.3047708  13.8638394  85.5723383  40.7385706
  13.5815988  87.0563881  40.8376496  25.1342889  81.5159905  30.3124283
  25.8378739  81.7209908  30.9281939  24.4105538  82.0836667  30.5773366
  25.9640700  77.2669766  36.4326553  25.9075901  77.7238318  35.5934185
  26.5169042  76.5060451  36.2549396  29.7745505  73.0559498  37.2576673
  29.5182440  72.6556134  38.0884880  29.1498373  73.7703292  37.1326812
  34.0857843  75.7955572  39.7647964  33.5257401  75.8648761  40.5379526
  33.4801347  75.6196556  39.0447460  17.1553052  87.2292299  41.5166150
  17.0385436  88.1737731  41.4144841  16.3345498  86.9265860  41.9051949
  27.0429587  81.9542434  32.3622743  27.8775191  81.5223633  32.1800218
  26.8813930  81.7824448  33.2899637  26.6975479  78.4574548  33.7279082
  26.6424283  78.2918819  32.7867526  26.0721534  79.1650581  33.8841272
  11.4867994  73.6942612  47.5540504  12.1326857  73.1841566  48.0427730
  11.2785145  74.4311294  48.1283930  24.0121386  80.7623460  53.0532645
  24.8812546  80.9364112  52.6919280  23.5328137  81.5817876  52.9308374
  20.0071604  67.9582657  33.3064401  19.9950274  68.9024497  33.4632672
  20.8995026  67.7752802  33.0123862  18.1807566  87.8820561  44.7322079
  19.0834813  87.9144171  45.0488574  17.9544936  86.9521011  44.7468414
  19.9361168  86.6351547  41.3932157  18.9856799  86.6353409  41.2796530
  20.2393654  85.8884282  40.8768192  23.8223724  64.5525433  37.5610337
  23.0556120  63.9983920  37.7067020  24.2334429  64.6247302  38.4224489
  15.8265485  70.8410229  51.6515519  16.6896946  70.4847034  51.8618843
  15.2530895  70.5024124  52.3390923  35.6713862  92.4712085  42.4577920
  36.3092272  92.3518833  41.7541260  35.5534705  93.4192929  42.5165872
  32.4803568  92.4239514  42.3939444  32.1422080  92.3080578  41.5059979
  33.3493336  92.0230679  42.3740451  28.3390384  94.2774990  38.3836335
  27.7755249  94.1864927  37.6152623  28.2242779  93.4574894  38.8638828
  32.9623351  93.5774365  48.3525650  32.9511992  93.1827164  47.4806154
  33.1243990  92.8440438  48.9459421  25.8854816  95.7726182  41.2220556
  26.6776108  95.4317006  40.8066855  26.1251466  95.8821157  42.1422709
  33.9189942  97.9445958  33.6950800  33.2677922  98.5300038  33.3084814
  34.7134305  98.4752153  33.7545838  27.8445570  95.0335095  34.0937935
  28.6176446  94.4864082  33.9550810  28.1970968  95.8979344  34.3052396
  29.6830612  96.3611477  47.3004834  29.3920478  97.2657108  47.1851500
  30.3187596  96.4028005  48.0148903  30.6086819  93.7388326  43.8906194
  31.2050391  93.5144348  43.1763156  30.6661791  92.9973071  44.4931641
  30.1811847  91.1927761  31.7256384  30.4337368  90.6709282  30.9639848
  29.2436406  91.0293906  31.8283068  35.2255130  90.1963539  39.5331128
  36.0118219  89.7782962  39.1821545  35.4893835  91.1009632  39.7012776
  35.3965208  95.6336390  34.2319785  34.7611041  95.7071016  34.9440689
  35.0662614  96.2229988  33.5538864  40.6263557  90.1338773  40.4364106
  41.3588729  89.5637989  40.6701936  39.8702913  89.7460373  40.8770612
  29.9008136  93.0955867  33.9280759  29.7844394  92.4200770  34.5961844
  30.0110396  92.6088241  33.1112913  32.2439677  92.5566014  37.6327449
  31.8797884  92.0296635  38.3440370  33.1006793  92.1664483  37.4593934
  38.1488978  83.8460347  44.8958715  37.8172302  84.7155758  44.6719930
  37.5534591  83.5296631  45.5752745  31.8845164  87.5855914  32.6288797
  32.0519566  88.4536150  32.9959268  31.6942333  87.7483195  31.7050086
  34.6420497  96.0472893  44.2954628  34.3421220  96.9497931  44.1870435
  34.2971557  95.7805076  45.1475780  28.0932979  92.4986689  40.3291332
  27.1683475  92.3662904  40.5369024  28.3417392  93.2780909  40.8261274
  38.0417641  88.5655433  41.9752065  37.1334518  88.4970841  41.6810826
  37.9905237  89.0427378  42.8033890  31.8634385  90.0413571  33.6135464
  31.7434010  90.4870622  34.4520944  31.1686973  90.3898889  33.0549002
  25.4541790  92.1419963  41.1635121  25.5834171  92.3954442  42.0774533
  24.7739241  92.7347671  40.8439776  32.1158507  89.9845078  49.9186962
  31.3391841  90.5438999  49.9089827  32.7549070  90.4701861  50.4401832
  39.9079287  86.7671871  43.7529939  39.2653668  87.0604404  43.1069733
  39.4034216  86.6524792  44.5583135  37.5619451  90.5135044  34.4415798
  38.4737307  90.7462431  34.2663496  37.0529098  91.0972089  33.8790877
  30.3704879  92.7930532  49.4804929  31.1119563  93.3315576  49.2039753
  29.6641865  93.4196821  49.6376481  35.8460219  94.9359672  48.0777091
  36.2543575  94.4942083  47.3331723  35.1237480  94.3612300  48.3311284
  32.1991289  89.8732279  45.4510648  33.0452484  90.2971693  45.5945297
  32.1389926  89.2165903  46.1449211  36.1689033  95.4960863  41.8329380
  35.5397896  95.6606577  41.1305447  35.7814695  95.9102472  42.6040344
  40.0478265  96.4315301  39.1873743  39.3629303  96.8114202  38.6370777
  40.1322115  97.0410627  39.9205691  35.3490734  87.5336647  47.1091821
  35.1051666  88.2878708  46.5726097  35.6250665  87.9121995  47.9439068
  37.3029197  94.0775260  45.7869087  37.5146092  94.7207020  45.1103468
  37.2558945  93.2437576  45.3191017  34.9055426  86.6893080  42.6905659
  34.0439905  86.9874334  42.9822397  34.9317861  86.9063479  41.7586692
  31.7216995  95.2335271  39.0979465  32.1855341  95.5122974  38.3084087
  31.4573793  94.3318716  38.9152555  28.6141076  94.7806752  42.0359228
  29.1842433  95.2094021  41.3976712  29.2049188  94.4989337  42.7343414
  30.6585881  91.3558423  35.9069030  31.3609925  91.8079467  36.3742956
  30.3266510  90.7142242  36.5348923  29.1066243  89.9470180  50.2820239
  28.4764903  90.6286461  50.5155636  29.0002331  89.8353262  49.3373377
  24.4011215  89.6141976  41.2086163  23.6110269  89.8699505  40.7326274
  24.8922463  90.4290314  41.3138204  38.4175025  96.9547215  43.9591444
  39.2392469  96.5527402  43.6774126  38.4137428  96.8515449  44.9107560
  26.3525961  89.9786555  38.1669640  25.5557124  90.0905249  38.6853136
  26.1251553  90.3173207  37.3010531  32.1831628  96.5031258  46.1152155
  32.2476061  96.9651666  46.9510327  31.4742552  95.8728623  46.2434465
  22.6848918  89.8672466  43.6401154  22.9356957  90.7519476  43.9058730
  23.2208467  89.6877068  42.8676246  46.5081018  93.2985964  40.3076416
  45.7544726  92.7293362  40.1520420  46.6428559  93.2648628  41.2547050
  31.8979646  98.1699366  35.9831135  31.7625321  99.0150902  36.4115983
  32.4389458  98.3718644  35.2197069  28.3846986  84.2490946  52.6445490
  27.9913931  83.6957144  53.3193134  29.2013126  84.5601524  53.0352008
  25.3509043  95.6874804  36.5559060  25.8633564  96.4818054  36.7064625
  26.0031756  94.9901094  36.4892662  27.1603928  98.8040560  38.6381813
  27.3370556  99.7258525  38.4502797  27.9560762  98.4898979  39.0676193
  31.3014947  85.6648825  50.2365747  32.0424660  86.2655978  50.1570209
  31.5332869  84.9226463  49.6783789  26.4456285  90.8505192  48.5143976
  26.3309800  89.9490449  48.8151075  25.5900802  91.0968889  48.1628793
  33.5248122  98.7922932  50.1131477  33.0811977  98.0059311  49.7952382
  34.1865336  98.9802083  49.4475368  28.2835243 100.3218734  44.6392156
  28.8342669 100.1935797  43.8669150  27.4446719 100.6213623  44.2887048
  35.6229360  99.0725732  48.1412878  35.6047836  99.8934613  47.6493148
  36.5449280  98.9479808  48.3663020  32.0802415  96.5869862  48.9836387
  32.6130751  95.8258150  48.7535695  31.5516496  96.2943514  49.7260541
  35.2472110  81.6929928  44.5130028  34.9036379  82.5831569  44.4369139
  35.6151072  81.5031585  43.6499613  23.3157960  94.0163458  37.3318631
  24.1533182  94.4260467  37.1152338  23.4936228  93.0762900  37.3018825
  35.2122392  91.6838539  33.0202464  34.6969016  92.4543144  33.2590851
  34.9399701  91.0103675  33.6435525  32.7969503  86.5288240  38.0787702
  31.9411100  86.1395090  37.8993341  33.2096455  86.6080200  37.2187487
  34.3268650  84.0634583  42.4779262  33.8233445  84.0264718  41.6647067
  34.6199257  84.9727326  42.5375918  30.5711536  84.1473313  41.4845443
  31.4364533  83.9516121  41.1251333  30.6389045  83.9183664  42.4114800
  40.1856666  94.4370894  34.9555637  39.4086109  94.0982053  34.5110799
  40.8648147  94.4423517  34.2810602  35.0008695  89.5565631  34.8462245
  34.6958831  89.8711780  35.6972388  35.9539138  89.6347051  34.8889578
  33.4455127  95.7155854  36.4955199  32.9176489  94.9808614  36.1828436
  32.9442630  96.4930531  36.2495167  38.4247973  93.9104875  41.6122245
  37.7671648  94.6004136  41.7002374  39.2288372  94.3001307  41.9556231
  28.1773855  86.3775521  38.8561810  28.7517607  86.1550702  38.1235003
  28.7644837  86.4464215  39.6090412  37.2353432  92.2649248  39.6626187
  37.7485314  92.8979239  40.1647897  37.8854656  91.6650443  39.2969547
  28.5043442  88.4079982  32.8757696  27.6680754  88.7454668  33.1966970
  28.3648212  88.2728961  31.9384833  30.4796523  83.2516770  37.5836880
  29.8260935  82.9365787  36.9593494  30.4376997  82.6292510  38.3096703
  31.5907727  93.5336065  29.4990172  30.6834789  93.3025318  29.6981321
  32.0878759  92.7373684  29.6864153  34.4975806 102.2433572  32.4186858
  33.8237505 102.5465269  33.0271816  34.8841628 103.0462652  32.0692315
  33.7134263  89.7398703  41.9084527  32.7956824  89.9613650  41.7506215
  34.1294407  89.8145014  41.0496235  34.4969311  91.1390119  37.0387208
  35.2441130  91.6511516  36.7294330  34.7660900  90.8174171  37.8991601
  32.7695961  93.6348659  34.0214162  31.8607180  93.3507692  34.1186632
  32.7991045  94.0547738  33.1617469  38.0015228  97.2455249  37.7905329
  37.5477555  96.4046159  37.8470520  37.3709195  97.8816647  38.1280110
  36.9448148  88.1747235  39.0205997  36.2070905  87.6624621  39.3516239
  37.1974921  87.7347617  38.2089274  36.4448168  99.0831746  38.7255148
  36.7371142  99.6436803  38.0067513  36.9546788  99.3760307  39.4808307
  37.0459775  80.9523487  39.6147766  37.3518652  80.0920850  39.3273681
  37.7712380  81.5441107  39.4146760  23.3384131  91.3554174  38.0029364
  23.1408531  90.7623534  37.2780431  22.7830795  91.0506384  38.7205303
  31.3180855  91.2477280  40.1223957  31.3729465  90.2951116  40.0466434
  30.5072057  91.4036719  40.6065256  32.4672049  95.1757403  31.3602240
  32.0291479  94.4593262  30.9007878  33.2082490  95.4033518  30.7987332
  29.2573215  89.8654340  37.8814336  28.4441080  90.1648510  38.2879528
  29.7532209  89.4710029  38.5988818  31.4081793  99.8612097  39.8148601
  31.3657972 100.0872943  38.8857133  32.3244492  99.6275471  39.9634402
  34.8547427  90.3296164  46.7129230  35.2096814  90.5567637  47.5723696
  35.5019558  90.6614541  46.0906485  40.5845163  93.4514600  37.4178559
  40.4463062  93.6416196  36.4899748  40.2281382  94.2133983  37.8746610
  28.7487290  87.4372695  43.4975571  29.3886669  87.2961454  42.7998534
  27.9164820  87.1507209  43.1214173  40.6114543  95.5191127  42.4289831
  41.0451050  95.4266416  43.2772885  41.3246124  95.4948628  41.7909847
  29.5247593  96.7375126  39.6110563  30.3188192  96.2425446  39.4093138
  28.8139286  96.2092989  39.2478269  34.3442438  99.1193221  43.9622931
  34.3979460  99.6884158  44.7300647  33.4757219  99.2895106  43.5976968
  25.8330357  90.8818207  35.6870316  24.9027945  90.8202663  35.9040278
  25.9287829  90.3594160  34.8906957  25.7515906  87.4073020  38.2748558
  26.0122723  88.3218354  38.1657718  26.5733078  86.9397463  38.4245171
  27.2240831  88.8210777  45.4447382  27.8963885  88.6128140  44.7960031
  26.3970618  88.6232863  45.0052615  41.4730093  95.5614828  44.9622716
  41.6665983  96.4660638  45.2081991  41.3730711  95.1022247  45.7961301
  33.1266403  85.4472718  47.4613043  32.4794318  86.1462668  47.3677520
  33.8967419  85.8808862  47.8289291  36.5345201  95.7121571  50.5363597
  36.3830708  95.4832122  49.6193680  36.5249881  96.6692172  50.5494942
  33.3030538  93.2853483  45.5209863  34.2322598  93.4364643  45.3478830
  32.8821568  93.3737504  44.6658509  32.1018869  97.3104148  43.2908401
  31.9629955  96.9422932  44.1634339  31.3133466  97.8251787  43.1192358
  32.6967021 102.4113244  34.6333937  32.8718777 101.9401287  35.4479560
  32.0099809 103.0379010  34.8615198  33.6524085  96.6885750  40.6797238
  33.3173917  96.6486520  41.5754888  33.1528030  96.0230466  40.2067649
  27.6268329  92.0953380  46.2049820  27.4888127  91.3633619  46.8061359
  28.5373252  92.0062281  45.9234007  36.5883276  94.0341785  30.9534298
  35.9712447  93.3088613  30.8567351  36.1199765  94.7951145  30.6101372
  30.2550629  91.8073340  45.6933499  30.9650248  91.1666532  45.6520118
  30.2119937  92.0586235  46.6159680  38.2437408  98.7440693  48.6140078
  38.1849954  98.0599913  47.9470661  38.6456926  99.4859683  48.1620704
  28.9679563  88.7938558  47.5129139  28.4316920  88.3429296  48.1650735
  28.3796272  88.9284467  46.7699603  28.3781822  88.2527209  30.0755602
  27.5011289  88.1316010  29.7117849  28.8539575  87.4613287  29.8234491
  38.2454815  96.7080277  46.8454058  37.3581594  96.3706199  46.9680457
  38.8153366  95.9763308  47.0822823  19.8983962  93.0404369  40.1697109
  20.5855002  92.7266099  39.5818125  19.7432091  93.9445733  39.8964361
  24.7018684  87.9294565  44.5982133  24.6176873  87.3220235  43.8632543
  23.8801391  88.4203584  44.5991629  31.7755969 101.3681729  43.8115301
  31.7026140 102.1736701  44.3234606  31.3333362 101.5673695  42.9863323
  31.5645748 100.6053499  37.3218123  30.7813270 101.1475180  37.4156347
  32.2638493 101.1227479  37.7212364  34.8742398  86.4148129  39.9652328
  35.3711098  85.6618091  39.6453398  34.1029380  86.4512446  39.3995538
  42.7272156  92.1188494  41.6070620  42.7162032  93.0013210  41.2364553
  41.8589535  91.7660045  41.4125157  34.2354652 101.2668563  45.9673460
  34.9482624 101.9016028  45.8949361  33.7444681 101.3632429  45.1513462
  35.9572179  95.1719816  37.5390752  35.0228458  95.2921279  37.3695456
  36.1348847  94.2692283  37.2750761  31.4577367  88.5565512  39.6924013
  31.0875155  88.0036552  40.3804918  31.9536460  87.9523645  39.1399013
  39.3444730  91.0137135  38.0740786  39.8105183  91.8465127  38.0001088
  39.7952231  90.5482117  38.7786044  29.2866566  99.0163007  46.7879031
  29.9876025  99.6499490  46.9408425  28.8161681  99.3577738  46.0274670
  37.4120961  97.3580957  35.0726938  37.6880805  97.2437551  35.9820812
  36.5425460  96.9598442  35.0339111  37.3161393  83.3817722  42.1131687
  36.4024473  83.6121949  42.2813894  37.7454495  83.4656166  42.9645719
  37.0867852  91.5707614  44.6131581  36.4339302  91.8183522  43.9584034
  37.4648232  90.7571753  44.2794058  34.0475026 101.6067308  38.7159751
  34.2297420 100.7888963  39.1787504  34.8708012 101.8235000  38.2784641
  34.3817191 100.5335493  35.9774800  34.9104957 100.0227947  35.3644962
  34.6445411 100.2178023  36.8420333  33.1355425  92.3127425  51.0997618
  32.4596062  92.2121555  51.7699993  33.9583059  92.1566639  51.5633615
  24.8834284  98.5499362  43.7210133  25.4687721  97.8043050  43.8538038
  24.6859122  98.8603319  44.6046797  19.4751938  91.1204962  42.4414577
  19.5136038  90.5868553  43.2351695  18.9692231  90.5940168  41.8225554
  26.8542701  85.9669503  45.9377119  26.9184027  86.8284334  45.5254517
  26.7909821  85.3543504  45.2049477  26.3294973  88.0392635  49.5850153
  26.9567012  87.6569713  50.1987677  25.4722892  87.8206837  49.9505846
  36.7289082  98.4455610  51.1903889  37.2728986  99.0585569  50.6958843
  36.1475927  99.0035189  51.7070902  23.1060516  89.8469064  35.5168508
  23.4013957  88.9379743  35.4635562  22.2048552  89.8256804  35.1949510
  35.0146595 101.5676328  42.3218916  34.8897734 100.7666068  41.8129862
  35.6725686 102.0622522  41.8332886  26.6354763  87.9225061  41.4996057
  25.9141349  88.5361029  41.3603530  27.4248019  88.4582826  41.4212703
  37.0781503  99.3685348  43.9498466  36.1311839  99.2490700  43.8776793
  37.4264276  98.4807847  44.0324728  29.4381077  85.2579487  47.7736708
  29.9615478  85.5041784  48.5363018  29.2193410  86.0899522  47.3539846
  24.8348358  87.5283162  35.6407833  24.5061064  86.6480541  35.4582939
  25.1887728  87.4730831  36.5284222  34.0827936  99.1638065  40.1502819
  33.9352899  98.2354772  40.3310389  34.9081430  99.1858155  39.6659894
  27.9490181  87.8156132  36.0083311  28.2886253  88.3442053  35.2861919
  28.3962301  88.1536538  36.7841877  37.6862058  99.9866623  41.2367691
  38.6108606  99.7809485  41.0992143  37.5177362  99.7383025  42.1457033
  30.6433622  86.1993183  45.4586379  30.3030442  85.4000996  45.8607059
  29.9372628  86.4994893  44.8863212  31.2950093  83.2842495  43.9113702
  32.1176163  82.8102973  43.7892592  31.5388157  84.0632979  44.4112388
  29.9358328  86.3130753  34.2076604  30.6566690  86.6912006  33.7040320
  29.3123632  87.0319630  34.3111582  34.0789451  87.0175902  35.1434936
  34.2953065  87.9000540  34.8423764  33.5983518  86.6262116  34.4140578
  28.8188672  89.9761616  41.7205680  28.6733253  90.2901919  42.6129962
  28.3413876  90.5946516  41.1676579  30.6785055  86.9664164  41.7686570
  30.6646624  86.0705257  41.4318868  31.3957483  86.9734827  42.4024856
  32.5311186  87.4001504  43.8139697  32.2728964  88.3218574  43.8124028
  31.9996226  87.0031938  44.5040162  37.4757375 100.5052291  36.5929783
  37.6494252  99.9398713  35.8403635  37.9686266 101.3053186  36.4109273
  23.2934334  92.5166960  44.6593342  22.7487802  93.2926768  44.7913616
  24.1713684  92.8637764  44.5012463  30.0821951  85.8478544  37.0374140
  30.2037862  84.9195190  37.2365028  29.7923993  85.8617230  36.1252456
  32.9513141  83.5333454  40.1740860  32.9734838  83.5972787  39.2192840
  33.3681200  82.6937963  40.3681366  43.3296766  93.2688714  38.2120083
  43.7727912  92.5196039  37.8139206  42.4523276  93.2598850  37.8293815
  38.4632547  99.8219055  33.6926681  39.1583452 100.4425748  33.9113996
  38.8055697  98.9714407  33.9679059  24.0800356  91.6436856  47.5523499
  23.3382092  91.7919492  48.1388129  23.7593100  91.9045122  46.6890248
  40.3623970  97.2718761  35.2214012  40.8875294  97.6106034  34.4963332
  40.2746323  96.3365776  35.0377147  32.0244019 101.1852834  47.3503889
  32.3331145 100.9401981  48.2226588  32.8219501 101.3899473  46.8622759
  32.0464631 103.3390744  39.5809265  31.6069621 102.8467123  40.2742122
  32.7972748 102.7963712  39.3401340  24.5256970  99.5302285  39.5833893
  25.3514990  99.2306057  39.2032537  24.1751022  98.7609907  40.0323682
  29.4938503  98.8828753  41.6531567  28.8718512  98.2199458  41.3533795
  30.1643370  98.9089885  40.9705215  22.7265575  97.4488611  40.5422827
  21.8897483  97.0210786  40.3606828  22.6989220  97.6421055  41.4793618
  29.5663031  87.3610541  51.2464073  29.6151186  88.2372664  50.8641842
  30.1085545  86.8187934  50.6735716  40.0517876  97.9051664  50.5265210
  39.2613420  97.8875803  49.9869709  39.8151231  98.4439958  51.2814246
  40.1715751  94.7544131  47.8397938  40.2213756  94.5894138  48.7813461
  40.0629675  93.8871390  47.4495819  29.0552010  97.4332677  35.1290027
  29.2040130  98.1168141  34.4756700  29.8618453  97.4137767  35.6439483
  37.4619514  90.7375059  49.1557245  38.3629376  90.5981524  48.8641243
  37.5367488  90.9029514  50.0955423  31.7962319  88.1141914  48.0010431
  30.9265628  88.4075480  47.7293020  32.0321799  88.6982359  48.7217695
  41.6733948  97.1741072  48.0839960  41.3818756  97.5371053  48.9203421
  41.0606079  96.4608081  47.9053292  42.8729630  94.7393952  40.6042530
  43.7076522  95.1783756  40.7680091  43.0088759  94.2632605  39.7850776
  39.9221136  92.2973687  46.5520018  40.3975258  92.4901333  45.7438869
  38.9986702  92.3532873  46.3063402  26.8104643  93.4597854  36.1351096
  26.5650685  92.5560184  36.3331306  26.9800557  93.4615005  35.1930574
  34.5001353  84.3321531  45.5175852  35.0183297  85.0682557  45.1922340
  34.1456486  84.6385524  46.3522611  26.0800290  89.1926212  33.6337258
  25.3869535  89.2670567  32.9777294  25.8352042  88.4286555  34.1558775
  34.7513947  80.7521813  41.0376748  35.0315701  80.0845002  41.6637175
  35.5364554  80.9450909  40.5251412  32.5547415  99.9280807  32.6001775
  31.9821383 100.5470994  32.1472247  33.1280209 100.4780169  33.1341697
  38.6222805  89.1739447  44.7848324  39.5740228  89.2737545  44.8060548
  38.4526256  88.3817716  45.2946408  36.6437185  86.2595030  44.9707724
  36.0487117  86.5400043  44.2754213  36.3586882  86.7488931  45.7424466
  35.7744675 100.2117957  33.7310357  36.7075348 100.1463519  33.9343233
  35.6867888 101.0474224  33.2724890  38.4032692  99.5283827  30.6914305
  38.3246323  99.1943691  31.5850062  39.2242359 100.0205595  30.6905777
  41.1010883  92.3945567  43.8990623  41.0687203  91.4561567  44.0850307
  41.7111507  92.4729603  43.1656448  32.9394214  91.2641620  29.9417827
  33.8853319  91.1347828  30.0106245  32.5608459  90.5256282  30.4187255
  41.2505372  89.1856610  43.9448906  40.7344420  88.4015067  43.7578835
  42.1345320  88.8575327  44.1095426  38.9116099  82.9297626  39.9044719
  38.7140920  82.6212714  40.7888051  39.5215804  83.6559265  40.0342649
  46.9187433  93.4561574  43.0396660  47.6490821  93.1946862  43.6004363
  46.3094378  92.7190296  43.0798728  45.0002730  91.5969436  43.6371111
  44.2735894  91.4625401  43.0287603  44.5850017  91.9046265  44.4427829
  32.8232907  95.3159366  51.4018484  33.7435916  95.4937965  51.5958531
  32.7882490  94.3715411  51.2498183  31.1237131  89.1891596  29.8772712
  30.2168587  88.8924709  29.9535426  31.4013112  88.8921414  29.0106999
  22.0415072  90.5097960  40.3271759  21.7217856  89.6563268  40.0346133
  21.4948500  90.7246538  41.0829726  25.8194979  93.2260401  44.0441265
  26.0380989  94.1577508  44.0629299  26.2320753  92.8668375  44.8296069
  32.7399197  83.7328486  36.0316954  31.9299925  83.3875571  36.4072200
  33.4283614  83.4236030  36.6204565  34.6689745  82.8106533  37.6541250
  35.2220784  83.2301986  38.3131273  34.9059832  81.8842281  37.6964206
  30.6922844  88.7993606  53.4344014  30.5919571  89.7487963  53.3656105
  30.4744386  88.4711845  52.5620084  29.8935916  86.0478531  30.0184692
  30.7555080  86.3733430  30.2780509  30.0786260  85.2610027  29.5057757
  21.9103332  94.1300871  42.2964880  21.2166803  93.7154824  41.7834835
  22.6576323  94.1721408  41.6998299  38.0468552  84.9207058  37.1619915
  37.4667221  85.5791862  36.7797967  37.7804485  84.0984402  36.7507332
  36.4972119  84.3212115  39.3641235  36.9971897  84.4328650  38.5555554
  37.1407727  84.0173168  40.0042043  30.5554114  92.2290745  52.2509076
  30.0721196  93.0291105  52.4572965  30.6415053  92.2398690  51.2976520
  23.8240074  94.0619125  40.1730895  23.8010762  94.1606812  39.2212778
  24.1340711  94.9084276  40.4948061  26.4827452  96.1195280  44.2877510
  27.4370705  96.0879222  44.2207441  26.2839976  95.6585904  45.1027736
  27.0726834  94.6896396  46.8548307  27.8919723  95.1840475  46.8783145
  27.3463642  93.7728364  46.8265875  36.8293430  87.0807148  36.2176263
  35.9419285  87.3656799  35.9996458  37.2447419  86.9200912  35.3703540
  40.1807966  87.1053669  39.9330602  40.9568357  87.5950122  40.2055219
  39.4556101  87.5311723  40.3902472  42.6180525  87.8181288  40.9904543
  43.2125016  87.5777024  40.2797851  42.6907109  87.0988419  41.6178079
  35.9736644  96.8451823  30.3124283  36.6772494  97.0501825  30.9281939
  35.2499292  97.4128585  30.5773366  36.8034454  92.5961684  36.4326553
  36.7469655  93.0530236  35.5934185  37.3562796  91.8352369  36.2549396
  40.6139260  88.3851416  37.2576673  40.3576194  87.9848052  38.0884880
  39.9892128  89.0995210  37.1326812  44.9251598  91.1247489  39.7647964
  44.3651156  91.1940679  40.5379526  44.3195101  90.9488474  39.0447460
  37.8823341  97.2834352  32.3622743  38.7168945  96.8515551  32.1800218
  37.7207684  97.1116366  33.2899637  37.5369233  93.7866465  33.7279082
  37.4818037  93.6210737  32.7867526  36.9115289  94.4942498  33.8841272
  22.3261748  89.0234530  47.5540504  22.9720612  88.5133484  48.0427730
  22.1178899  89.7603211  48.1283930  34.8515140  96.0915377  53.0532645
  35.7206300  96.2656029  52.6919280  34.3721892  96.9109794  52.9308374
  30.8465359  83.2874574  33.3064401  30.8344029  84.2316414  33.4632672
  31.7388781  83.1044720  33.0123862  30.7754923 101.9643465  41.3932157
  29.8250554 101.9645326  41.2796530  31.0787409 101.2176199  40.8768192
  34.6617478  79.8817351  37.5610337  33.8949874  79.3275838  37.7067020
  35.0728183  79.9539220  38.4224489  26.6659239  86.1702147  51.6515519
  27.5290701  85.8138952  51.8618843  26.0924650  85.8316042  52.3390923
  41.0205602 106.5219679  31.7256384  41.2731123 106.0001200  30.9639848
  40.0830161 106.3585824  31.8283068  46.0648885 105.5255457  39.5331128
  46.8511974 105.1074880  39.1821545  46.3287589 106.4301549  39.7012776
  51.4657312 105.4630690  40.4364106  52.1982484 104.8929907  40.6701936
  50.7096668 105.0752291  40.8770612  48.9882732  99.1752264  44.8958715
  48.6566057 100.0447675  44.6719930  48.3928346  98.8588548  45.5752745
  42.7238919 102.9147831  32.6288797  42.8913321 103.7828068  32.9959268
  42.5336088 103.0775113  31.7050086  48.8811396 103.8947350  41.9752065
  47.9728273 103.8262759  41.6810826  48.8298991 104.3719295  42.8033890
  42.7028139 105.3705489  33.6135464  42.5827765 105.8162540  34.4520944
  42.0080728 105.7190807  33.0549002  42.9552261 105.3136996  49.9186962
  42.1785595 105.8730916  49.9089827  43.5942824 105.7993779  50.4401832
  50.7473042 102.0963789  43.7529939  50.1047422 102.3896322  43.1069733
  50.2427970 101.9816709  44.5583135  48.4013206 105.8426962  34.4415798
  49.3131062 106.0754349  34.2663496  47.8922853 106.4264006  33.8790877
  43.0385043 105.2024197  45.4510648  43.8846238 105.6263610  45.5945297
  42.9783681 104.5457821  46.1449211  46.1884489 102.8628565  47.1091821
  45.9445420 103.6170626  46.5726097  46.4644419 103.2413913  47.9439068
  45.7449180 102.0184998  42.6905659  44.8833659 102.3166252  42.9822397
  45.7711615 102.2355397  41.7586692  41.4979636 106.6850341  35.9069030
  42.2003679 107.1371385  36.3742956  41.1660264 106.0434160  36.5348923
  39.9459997 105.2762098  50.2820239  39.3158658 105.9578378  50.5155636
  39.8396085 105.1645179  49.3373377  57.3474772 108.6277881  40.3076416
  56.5938481 108.0585279  40.1520420  57.4822314 108.5940546  41.2547050
  39.2240740  99.5782863  52.6445490  38.8307686  99.0249062  53.3193134
  40.0406880  99.8893442  53.0352008  42.1408701 100.9940743  50.2365747
  42.8818414 101.5947896  50.1570209  42.3726624 100.2518380  49.6783789
  46.0865864  97.0221845  44.5130028  45.7430133  97.9123487  44.4369139
  46.4544827  96.8323503  43.6499613  46.0516147 107.0130457  33.0202464
  45.5362770 107.7835061  33.2590851  45.7793455 106.3395593  33.6435525
  43.6363258 101.8580157  38.0787702  42.7804854 101.4687008  37.8993341
  44.0490210 101.9372118  37.2187487  45.1662404  99.3926501  42.4779262
  44.6627200  99.3556636  41.6647067  45.4593011 100.3019243  42.5375918
  41.4105290  99.4765230  41.4845443  42.2758287  99.2808039  41.1251333
  41.4782799  99.2475582  42.4114800  51.0250421 109.7662811  34.9555637
  50.2479864 109.4273971  34.5110799  51.7041902 109.7715434  34.2810602
  45.8402450 104.8857549  34.8462245  45.5352585 105.2003698  35.6972388
  46.7932892 104.9638969  34.8889578  39.0167609 101.7067438  38.8561810
  39.5911361 101.4842620  38.1235003  39.6038592 101.7756133  39.6090412
  48.0747187 107.5941165  39.6626187  48.5879068 108.2271157  40.1647897
  48.7248410 106.9942361  39.2969547  39.3437196 103.7371899  32.8757696
  38.5074509 104.0746586  33.1966970  39.2041966 103.6020879  31.9384833
  41.3190277  98.5808687  37.5836880  40.6654689  98.2657704  36.9593494
  41.2770751  97.9584428  38.3096703  44.5528017 105.0690621  41.9084527
  43.6350579 105.2905568  41.7506215  44.9688161 105.1436931  41.0496235
  45.3363065 106.4682036  37.0387208  46.0834884 106.9803434  36.7294330
  45.6054655 106.1466089  37.8991601  47.7841902 103.5039153  39.0205997
  47.0464659 102.9916539  39.3516239  48.0368676 103.0639534  38.2089274
  47.8853530  96.2815405  39.6147766  48.1912406  95.4212768  39.3273681
  48.6106134  96.8733025  39.4146760  42.1574609 106.5769198  40.1223957
  42.2123219 105.6243034  40.0466434  41.3465811 106.7328637  40.6065256
  40.0966969 105.1946257  37.8814336  39.2834835 105.4940428  38.2879528
  40.5925964 104.8001946  38.5988818  45.6941181 105.6588082  46.7129230
  46.0490569 105.8859555  47.5723696  46.3413312 105.9906459  46.0906485
  51.4238918 108.7806518  37.4178559  51.2856817 108.9708114  36.4899748
  51.0675137 109.5425901  37.8746610  39.5881044 102.7664613  43.4975571
  40.2280423 102.6253372  42.7998534  38.7558575 102.4799126  43.1214173
  36.5909660 102.7364938  38.2748558  36.8516478 103.6510271  38.1657718
  37.4126833 102.2689381  38.4245171  38.0634586 104.1502695  45.4447382
  38.7357639 103.9420057  44.7960031  37.2364372 103.9524781  45.0052615
  43.9660158 100.7764636  47.4613043  43.3188073 101.4754586  47.3677520
  44.7361173 101.2100780  47.8289291  39.8073318 104.1230475  47.5129139
  39.2710675 103.6721214  48.1650735  39.2190026 104.2576384  46.7699603
  39.2175577 103.5819127  30.0755602  38.3405043 103.4607928  29.7117849
  39.6933330 102.7905205  29.8234491  35.5412439 103.2586483  44.5982133
  35.4570628 102.6512153  43.8632543  34.7195145 103.7495501  44.5991629
  45.7136153 101.7440047  39.9652328  46.2104852 100.9910009  39.6453398
  44.9423134 101.7804363  39.3995538  53.5665910 107.4480412  41.6070620
  53.5555786 108.3305128  41.2364553  52.6983290 107.0951963  41.4125157
  42.2971122 103.8857430  39.6924013  41.9268909 103.3328470  40.3804918
  42.7930214 103.2815563  39.1399013  50.1838485 106.3429053  38.0740786
  50.6498937 107.1757045  38.0001088  50.6345985 105.8774035  38.7786044
  48.1555148  98.7109640  42.1131687  47.2418227  98.9413867  42.2813894
  48.5848249  98.7948084  42.9645719  47.9261606 106.8999532  44.6131581
  47.2733056 107.1475439  43.9584034  48.3041986 106.0863670  44.2794058
  43.9749179 107.6419343  51.0997618  43.2989816 107.5413472  51.7699993
  44.7976813 107.4858557  51.5633615  37.6936455 101.2961420  45.9377119
  37.7577782 102.1576251  45.5254517  37.6303575 100.6835422  45.2049477
  37.1688728 103.3684553  49.5850153  37.7960767 102.9861630  50.1987677
  36.3116647 103.1498755  49.9505846  37.4748518 103.2516979  41.4996057
  36.7535103 103.8652946  41.3603530  38.2641773 103.7874743  41.4212703
  40.2774831 100.5871405  47.7736708  40.8009233 100.8333702  48.5363018
  40.0587164 101.4191440  47.3539846  35.6742112 102.8575080  35.6407833
  35.3454818 101.9772459  35.4582939  36.0281483 102.8022748  36.5284222
  38.7883935 103.1448049  36.0083311  39.1280008 103.6733971  35.2861919
  39.2356056 103.4828456  36.7841877  41.4827376 101.5285100  45.4586379
  41.1424196 100.7292913  45.8607059  40.7766382 101.8286811  44.8863212
  42.1343848  98.6134413  43.9113702  42.9569917  98.1394891  43.7892592
  42.3781911  99.3924896  44.4112388  40.7752082 101.6422671  34.2076604
  41.4960445 102.0203924  33.7040320  40.1517387 102.3611548  34.3111582
  44.9183205 102.3467820  35.1434936  45.1346820 103.2292458  34.8423764
  44.4377272 101.9554033  34.4140578  39.6582427 105.3053533  41.7205680
  39.5127007 105.6193836  42.6129962  39.1807630 105.9238434  41.1676579
  41.5178810 102.2956081  41.7686570  41.5040378 101.3997175  41.4318868
  42.2351238 102.3026745  42.4024856  43.3704940 102.7293421  43.8139697
  43.1122718 103.6510492  43.8124028  42.8389981 102.3323856  44.5040162
  40.9215705 101.1770462  37.0374140  41.0431617 100.2487108  37.2365028
  40.6317748 101.1909147  36.1252456  43.7906896  98.8625372  40.1740860
  43.8128593  98.9264705  39.2192840  44.2074955  98.0229881  40.3681366
  54.1690520 108.5980631  38.2120083  54.6121666 107.8487957  37.8139206
  53.2917030 108.5890768  37.8293815  40.4056785 102.6902459  51.2464073
  40.4544941 103.5664582  50.8641842  40.9479299 102.1479852  50.6735716
  51.0109506 110.0836049  47.8397938  51.0607511 109.9186056  48.7813461
  50.9023429 109.2163308  47.4495819  48.3013268 106.0666977  49.1557245
  49.2023131 105.9273441  48.8641243  48.3761243 106.2321431  50.0955423
  42.6356073 103.4433831  48.0010431  41.7659383 103.7367397  47.7293020
  42.8715554 104.0274276  48.7217695  53.7123385 110.0685870  40.6042530
  54.5470276 110.5075674  40.7680091  53.8482514 109.5924523  39.7850776
  50.7614891 107.6265605  46.5520018  51.2369012 107.8193251  45.7438869
  49.8380456 107.6824790  46.3063402  45.3395107  99.6613448  45.5175852
  45.8577051 100.3974475  45.1922340  44.9850240  99.9677442  46.3522611
  36.9194045 104.5218129  33.6337258  36.2263290 104.5962484  32.9777294
  36.6745797 103.7578473  34.1558775  45.5907701  96.0813731  41.0376748
  45.8709455  95.4136920  41.6637175  46.3758308  96.2742826  40.5251412
  49.4616560 104.5031365  44.7848324  50.4133983 104.6029462  44.8060548
  49.2920010 103.7109633  45.2946408  47.4830939 101.5886948  44.9707724
  46.8880871 101.8691961  44.2754213  47.1980636 102.0780849  45.7424466
  51.9404638 107.7237484  43.8990623  51.9080958 106.7853485  44.0850307
  52.5505261 107.8021521  43.1656448  43.7787968 106.5933537  29.9417827
  44.7247073 106.4639746  30.0106245  43.4002213 105.8548199  30.4187255
  52.0899126 104.5148528  43.9448906  51.5738175 103.7306984  43.7578835
  52.9739075 104.1867244  44.1095426  49.7509853  98.2589543  39.9044719
  49.5534674  97.9504632  40.7888051  50.3609559  98.9851182  40.0342649
  57.7581187 108.7853491  43.0396660  58.4884576 108.5238779  43.6004363
  57.1488133 108.0482213  43.0798728  55.8396485 106.9261354  43.6371111
  55.1129648 106.7917319  43.0287603  55.4243771 107.2338182  44.4427829
  41.9630886 104.5183514  29.8772712  41.0562341 104.2216626  29.9535426
  42.2406867 104.2213332  29.0106999  43.5792951  99.0620403  36.0316954
  42.7693680  98.7167488  36.4072200  44.2677368  98.7527947  36.6204565
  45.5083500  98.1398450  37.6541250  46.0614538  98.5593904  38.3131273
  45.7453586  97.2134198  37.6964206  41.5316599 104.1285524  53.4344014
  41.4313326 105.0779881  53.3656105  41.3138141 103.8003763  52.5620084
  40.7329670 101.3770449  30.0184692  41.5948834 101.7025347  30.2780509
  40.9180014 100.5901945  29.5057757  48.8862307 100.2498975  37.1619915
  48.3060976 100.9083779  36.7797967  48.6198239  99.4276320  36.7507332
  47.3365873  99.6504033  39.3641235  47.8365651  99.7620568  38.5555554
  47.9801481  99.3465086  40.0042043  47.6687185 102.4099066  36.2176263
  46.7813040 102.6948716  35.9996458  48.0841174 102.2492829  35.3703540
  51.0201721 102.4345587  39.9330602  51.7962111 102.9242039  40.2055219
  50.2949855 102.8603641  40.3902472  53.4574279 103.1473206  40.9904543
  54.0518770 102.9068942  40.2797851  53.5300863 102.4280337  41.6178079
  47.6428208 107.9253602  36.4326553  47.5863410 108.3822153  35.5934185
  48.1956551 107.1644286  36.2549396  51.4533014 103.7143334  37.2576673
  51.1969949 103.3139969  38.0884880  50.8285882 104.4287128  37.1326812
  55.7645352 106.4539407  39.7647964  55.2044910 106.5232596  40.5379526
  55.1588856 106.2780392  39.0447460  41.6859113  98.6166492  33.3064401
  41.6737783  99.5608332  33.4632672  42.5782535  98.4336637  33.0123862
  45.5011233  95.2109269  37.5610337  44.7343629  94.6567755  37.7067020
  45.9121938  95.2831137  38.4224489  37.5052994 101.4994064  51.6515519
  38.3684455 101.1430869  51.8618843  36.9318404 101.1607959  52.3390923
  58.7247284 111.6107322  39.6147766  59.0306161 110.7504686  39.3273681
  59.4499889 112.2024943  39.4146760  56.4301456 111.4105648  41.0376748
  56.7103210 110.7428837  41.6637175  57.2152063 111.6034744  40.5251412
  56.3404987 110.5401186  37.5610337  55.5737383 109.9859673  37.7067020
  56.7515692 110.6123055  38.4224489   3.1532600  23.4898455  29.1823226
   3.7911009  23.3705202  28.4786566   3.0353442  24.4379299  29.2411178
   8.1082295  21.1525142  27.1609413   8.8407467  20.5824359  27.3947242
   7.3521651  20.7646743  27.6015918   5.6307715  14.8646716  31.6204021
   5.2991040  15.7342127  31.3965236   5.0353329  14.5483000  32.2998052
   2.1239235  27.0659262  31.0199934   1.8239958  27.9684301  30.9115741
   1.7790295  26.7991445  31.8721087   7.3898025  17.7858241  30.4775245
   6.7472405  18.0790774  29.8315040   6.8852954  17.6711161  31.2828442
   3.3278957  25.9546042  34.8022397   3.7362313  25.5128452  34.0577030
   2.6056218  25.3798669  35.0556590   3.6507771  26.5147232  28.5574686
   3.0216634  26.6792947  27.8550754   3.2633433  26.9288842  29.3285650
   7.5297003  27.4501670  25.9119050   6.8448041  27.8300572  25.3616083
   7.6140852  28.0596997  26.6450998   2.8309472  18.5523017  33.8337128
   2.5870404  19.3065077  33.2971404   3.1069402  18.9308365  34.6684375
   4.7847935  25.0961629  32.5114393   4.9964830  25.7393389  31.8348775
   4.7377683  24.2623946  32.0436324   5.8993763  27.9733585  30.6836751
   6.7211206  27.5713772  30.4019432   5.8956165  27.8701819  31.6352867
  13.9899756  24.3172333  27.0321722  13.2363464  23.7479731  26.8765727
  14.1247297  24.2834998  27.9792357   1.0066860  29.8109302  36.8376784
   0.5630714  29.0245681  36.5197688   1.6684074  29.9988453  36.1720675
   3.1048098  30.0912102  34.8658185   3.0866574  30.9120983  34.3738454
   4.0268018  29.9666177  35.0908326   5.9066711  24.9291244  28.3367552
   5.2490385  25.6190506  28.4247680   6.7107110  25.3187676  28.6801538
   5.4833966  28.2641619  24.5150636   5.0296293  27.4232528  24.5715827
   4.8527933  28.9003017  24.8525416   3.9266905  30.1018115  25.4500454
   4.2189880  30.6623172  24.7312820   4.4365526  30.3946676  26.2053613
   2.3366164  21.3482534  33.4374537   2.6915552  21.5754007  34.2969002
   2.9838296  21.6800911  32.8151792   8.0933281  26.5377497  29.1535137
   8.5269788  26.4452786  30.0018191   8.8064862  26.5134997  28.5155153
   1.8261176  30.1379591  30.6868238   1.8798198  30.7070527  31.4545954
   0.9575957  30.3081476  30.3222275   8.9548830  26.5801197  31.6868023
   9.1484720  27.4847008  31.9327297   8.8549449  26.1208616  32.5206608
   4.0163939  26.7307940  37.2608903   3.8649445  26.5018492  36.3438987
   4.0068619  27.6878542  37.2740248   1.1342822  27.7072120  27.4042545
   0.7992655  27.6672890  28.3000195   0.6346768  27.0416836  26.9312955
   5.7256146  29.7627063  35.3385385   5.6668692  29.0786283  34.6715968
   6.1275664  30.5046053  34.8866011   5.7273553  27.7266647  33.5699365
   4.8400332  27.3892568  33.6925764   6.2972104  26.9949678  33.8068130
  10.2090894  23.1374864  28.3315926  10.1980770  24.0199579  27.9609859
   9.3408273  22.7846415  28.1370463   1.7173390  32.2854933  32.6918767
   2.4301362  32.9202398  32.6194668   1.2263419  32.3818799  31.8758768
   4.5686589  22.5893984  31.3376888   3.9158040  22.8369891  30.6829340
   4.9466969  21.7758122  31.0039365   1.5293763  32.6253677  25.4405058
   1.7116158  31.8075333  25.9032810   2.3526749  32.8421369  25.0029948
   4.2107820  29.4641980  37.9149195   4.7547724  30.0771938  37.4204150
   3.6294664  30.0221558  38.4316208   2.4965333  32.5862698  29.0464223
   2.3716472  31.7852438  28.5375168   3.1544424  33.0808891  28.5578193
   4.5600241  30.3871718  30.6743773   3.6130577  30.2677069  30.6022100
   4.9083014  29.4994216  30.7570034   1.5646674  30.1824434  26.8748125
   1.4171637  29.2541142  27.0555695   2.3900168  30.2044525  26.3905201
   5.1680796  31.0052993  27.9612998   6.0927344  30.7995854  27.8237449
   4.9996099  30.7569394  28.8702340   4.9576112  31.5238660  23.3175090
   5.1312990  30.9585083  22.5648942   5.4505004  32.3239555  23.1354579
  10.8115503  24.2875083  24.9365389  11.2546650  23.5382409  24.5384513
   9.9342014  24.2785220  24.5539121   7.5336614  28.9238034  37.2510517
   6.7432158  28.9062173  36.7115016   7.2969969  29.4626328  38.0059553
   7.6534489  25.7730500  34.5643245   7.7032494  25.6080508  35.5058768
   7.5448412  24.9057759  34.1741126   4.9438251  21.7561428  35.8802552
   5.8448114  21.6167893  35.5886550   5.0186226  21.9215883  36.8200729
   9.1552686  28.1927442  34.8085267   8.8637494  28.5557422  35.6448728
   8.5424817  27.4794450  34.6298599  10.3548368  25.7580322  27.3287837
  11.1895260  26.1970126  27.4925397  10.4907497  25.2818975  26.5096083
   7.4039874  23.3160057  33.2765325   7.8793996  23.5087703  32.4684176
   6.4805439  23.3719242  33.0308708   1.9820091  15.3507900  32.2421158
   2.5002034  16.0868927  31.9167647   1.6275223  15.6571893  33.0767918
   6.1041543  20.1925817  31.5093630   7.0558966  20.2923914  31.5305854
   5.9344994  19.4004085  32.0191715   4.1255923  17.2781400  31.6953031
   3.5305855  17.5586413  30.9999520   3.8405619  17.7675301  32.4669772
   8.5829621  23.4131936  30.6235930   8.5505941  22.4747937  30.8095614
   9.1930245  23.4915973  29.8901755   8.7324109  20.2042980  30.6694213
   8.2163158  19.4201436  30.4824142   9.6164058  19.8761696  30.8340732
  14.4006171  24.4747943  29.7641967  15.1309559  24.2133231  30.3249670
  13.7913116  23.7376665  29.8044035  12.4821468  22.6155806  30.3616418
  11.7554631  22.4811771  29.7532909  12.0668755  22.9232634  31.1673136
  10.0999263  18.8367658  27.7149849  10.6943754  18.5963394  27.0043158
  10.1725847  18.1174789  28.3423386  12.4070336  22.1433859  26.4893271
  11.8469894  22.2127048  27.2624833  11.8013839  21.9674843  25.7692767
   2.3333878  27.1101747  39.7777952   3.2025038  27.2842399  39.4164587
   1.8540630  27.9296164  39.6553681  13.9926354  38.8190373  29.1823226
  14.6304764  38.6997120  28.4786566  13.8747197  39.7671217  29.2411178
  10.8016060  38.7717801  29.1184751  10.4634572  38.6558866  28.2305286
  11.6705828  38.3708966  29.0985757   6.6602876  40.6253277  25.1081642
   6.0967741  40.5343214  24.3397930   6.5455271  39.8053182  25.5884135
  11.2835843  39.9252653  35.0770957  11.2724484  39.5305451  34.2051460
  11.4456483  39.1918725  35.6704728   4.2067308  42.1204469  27.9465862
   4.9988600  41.7795293  27.5312162   4.4463958  42.2299444  28.8668016
  12.2402435  44.2924245  20.4196107  11.5890414  44.8778325  20.0330121
  13.0346798  44.8230440  20.4791144   6.1658062  41.3813382  20.8183241
   6.9388938  40.8342369  20.6796117   6.5183461  42.2457631  21.0297703
   8.0043104  42.7089764  34.0250141   7.7132970  43.6135395  33.9096807
   8.6400089  42.7506292  34.7394210   8.9299311  40.0866613  30.6151500
   9.5262884  39.8622635  29.9008463   8.9874283  39.3451358  31.2176948
   8.5024340  37.5406048  18.4501691   8.7549860  37.0187569  17.6885154
   7.5648899  37.3772194  18.5528375  13.5467622  36.5441827  26.2576434
  14.3330712  36.1261250  25.9066851  13.8106327  37.4487919  26.4258083
  13.7177700  41.9814677  20.9565091  13.0823533  42.0549303  21.6685996
  13.3875106  42.5708276  20.2784170  18.9476050  36.4817060  27.1609413
  19.6801222  35.9116277  27.3947242  18.1915405  36.0938660  27.6015918
   8.2220628  39.4434154  20.6526066   8.1056887  38.7679058  21.3207150
   8.3322888  38.9566528  19.8358219  10.5652169  38.9044301  24.3572755
  10.2010377  38.3774922  25.0685677  11.4219285  38.5142770  24.1839241
  16.4701470  30.1938634  31.6204021  16.1384795  31.0634045  31.3965236
  15.8747083  29.8774918  32.2998052  10.2057656  33.9334201  19.3534104
  10.3732059  34.8014437  19.7204575  10.0154825  34.0961483  18.4295393
  12.9632989  42.3951180  31.0199934  12.6633713  43.2976219  30.9115741
  12.6184049  42.1283363  31.8721087   6.4145471  38.8464977  27.0536639
   5.4895967  38.7141191  27.2614330   6.6629884  39.6259196  27.5506581
  16.3630133  34.9133720  28.6997372  15.4547011  34.8449128  28.4056133
  16.3117729  35.3905665  29.5279197  10.1846877  36.3891858  20.3380771
  10.0646502  36.8348909  21.1766251   9.4899466  36.7377176  19.7794309
   3.7754282  38.4898250  27.8880428   3.9046663  38.7432729  28.8019839
   3.0951733  39.0825958  27.5685083   7.9453769  49.1595500  23.9870902
   7.8677799  50.1103325  24.0659382   7.3415413  48.8141373  24.6445828
  10.4370999  36.3323366  36.6432269   9.6604333  36.8917286  36.6335133
  11.0761562  36.8180149  37.1647139  18.2291780  33.1150158  30.4775245
  17.5866160  33.4082692  29.8315040  17.7246708  33.0003079  31.2828442
  15.8831943  36.8613332  21.1661105  16.7949799  37.0940718  20.9908802
  15.3741590  37.4450376  20.6036183   8.6917371  39.1408819  36.2050236
   9.4332056  39.6793863  35.9285059   7.9854357  39.7675108  36.3621788
  14.1672711  41.2837959  34.8022397  14.5756067  40.8420370  34.0577030
  13.4449973  40.7090587  35.0556590  10.5203781  36.2210566  32.1755954
  11.3664976  36.6449980  32.3190603  10.4602419  35.5644191  32.8694517
  14.4901526  41.8439150  28.5574686  13.8610388  42.0084864  27.8550754
  14.1027188  42.2580760  29.3285650  18.3690758  42.7793588  25.9119050
  17.6841796  43.1592489  25.3616083  18.4534607  43.3888915  26.6450998
  13.6703226  33.8814935  33.8337128  13.4264158  34.6356995  33.2971404
  13.9463157  34.2600282  34.6684375  15.6241689  40.4253547  32.5114393
  15.8358584  41.0685307  31.8348775  15.5771437  39.5915864  32.0436324
  13.2267918  33.0371368  29.4150966  12.3652397  33.3352621  29.7067703
  13.2530353  33.2541767  28.4831998  10.0429488  41.5813558  25.8224771
  10.5067833  41.8601261  25.0329394   9.7786286  40.6797003  25.6397862
   6.9353569  41.1285040  28.7604535   7.5054926  41.5572308  28.1222019
   7.5261680  40.8467624  29.4588720   8.9798374  37.7036711  22.6314336
   9.6822417  38.1557754  23.0988263   8.6479002  37.0620529  23.2594230
   7.4278735  36.2948467  37.0065546   6.7977396  36.9764748  37.2400943
   7.3214823  36.1831549  36.0618684   2.7223708  35.9620263  27.9331470
   1.9322762  36.2177792  27.4571581   3.2134955  36.7768601  28.0383511
  16.7387517  43.3025502  30.6836751  17.5604961  42.9005690  30.4019432
  16.7349920  43.1993737  31.6352867   4.6738453  36.3264842  24.8914947
   3.8769616  36.4383537  25.4098442   4.4464045  36.6651495  24.0255837
  10.5044121  42.8509546  32.8397461  10.5688553  43.3129953  33.6755633
   9.7955044  42.2206911  32.9679771   1.0061411  36.2150754  30.3646461
   1.2569449  37.0997764  30.6304037   1.5420959  36.0355355  29.5921553
  24.8293510  39.6464251  27.0321722  24.0757219  39.0771649  26.8765727
  24.9641051  39.6126915  27.9792357  10.2192138  44.5177653  22.7076442
  10.0837813  45.3629189  23.1361289  10.7601951  44.7196931  21.9442375
   6.7059478  30.5969233  39.3690797   6.3126423  30.0435432  40.0438441
   7.5225618  30.9079811  39.7597314   3.6721536  42.0353091  23.2804367
   4.1846056  42.8296341  23.4309931   4.3244248  41.3379382  23.2137968
   5.4816420  45.1518847  25.3627120   5.6583049  46.0736812  25.1748104
   6.2773254  44.8377267  25.7921500   9.6227439  32.0127112  36.9611053
  10.3637152  32.6134265  36.8815516   9.8545362  31.2704750  36.4029096
   4.7668777  37.1983479  35.2389283   4.6522292  36.2968737  35.5396382
   3.9113295  37.4447176  34.8874100  11.8460615  45.1401220  36.8376784
  11.4024469  44.3537598  36.5197688  12.5077828  45.3280370  36.1720675
   6.6047736  46.6697021  31.3637462   7.1555161  46.5414085  30.5914456
   5.7659212  46.9691910  31.0132355  13.9441853  45.4204020  34.8658185
  13.9260328  46.2412901  34.3738454  14.8661773  45.2958095  35.0908326
  10.4014907  42.9348149  35.7081693  10.9343244  42.1736437  35.4781001
   9.8728988  42.6421801  36.4505848  13.5684602  28.0408215  31.2375335
  13.2248871  28.9309857  31.1614446  13.9363564  27.8509873  30.3744920
   1.6370452  40.3641746  24.0563937   2.4745674  40.7738754  23.8397645
   1.8148720  39.4241188  24.0264131  13.5334885  38.0316826  19.7447770
  13.0181508  38.8021431  19.9836158  13.2612193  37.3581962  20.3680832
  11.1181996  32.8766527  24.8033009  10.2623592  32.4873377  24.6238647
  11.5308947  32.9558488  23.9432794  12.6481142  30.4112870  29.2024568
  12.1445938  30.3743005  28.3892374  12.9411749  31.3205613  29.2621225
   8.8924028  30.4951600  28.2090750   9.7577025  30.2994409  27.8496640
   8.9601537  30.2661952  29.1360107  18.5069159  40.7849181  21.6800944
  17.7298601  40.4460340  21.2356106  19.1860640  40.7901804  21.0055909
  13.3221188  35.9043918  21.5707551  13.0171323  36.2190067  22.4217695
  14.2751630  35.9825338  21.6134884  11.7667620  42.0634142  23.2200505
  11.2388981  41.3286901  22.9073743  11.2655122  42.8408818  22.9740474
  16.7460466  40.2583162  28.3367552  16.0884140  40.9482423  28.4247680
  17.5500865  40.6479594  28.6801538   6.4986347  32.7253808  25.5807117
   7.0730099  32.5028989  24.8480310   7.0857330  32.7942502  26.3335718
  15.5565924  38.6127535  26.3871493  16.0697806  39.2457527  26.8893203
  16.2067148  38.0128730  26.0214853   8.8009015  29.5995057  24.3082186
   8.1473427  29.2844074  23.6838801   8.7589489  28.9770797  25.0342009
   9.9120220  39.8814352  16.2235478   9.0047281  39.6503605  16.4226627
  10.4091252  39.0851971  16.4109460  12.8188299  48.5911859  19.1432165
  12.1449997  48.8943556  19.7517122  13.2054121  49.3940939  18.7937622
  12.0346755  36.0876990  28.6329834  11.1169317  36.3091937  28.4751522
  12.4506899  36.1623301  27.7741541  12.8181803  37.4868406  23.7632514
  13.5653622  37.9989803  23.4539636  13.0873393  37.1652459  24.6236908
  11.0908453  39.9826947  20.7459469  10.1819672  39.6985980  20.8431938
  11.1203537  40.4026025  19.8862775  16.3227721  43.5933536  24.5150636
  15.8690048  42.7524446  24.5715827  15.6921687  44.2294935  24.8525416
  15.2660640  34.5225522  25.7451304  14.5283397  34.0102908  26.0761546
  15.5187414  34.0825904  24.9334580  14.7660660  45.4310033  25.4500454
  15.0583634  45.9915090  24.7312820  15.2759280  45.7238594  26.2053613
  15.3672267  27.3001774  26.3393073  15.6731144  26.4399138  26.0518988
  16.0924872  27.8919394  26.1392067   1.6596624  37.7032461  24.7274671
   1.4621023  37.1101822  24.0025737   1.1043288  37.3984671  25.4450610
   9.6393347  37.5955567  26.8469264   9.6941957  36.6429404  26.7711740
   8.8284549  37.7515006  27.3310562  10.7884541  41.5235690  18.0847547
  10.3503971  40.8071549  17.6253184  11.5294982  41.7511805  17.5232638
   7.5785707  36.2132627  24.6059643   6.7653573  36.5126798  25.0124835
   8.0744701  35.8188316  25.3234125   9.7294285  46.2090384  26.5393907
   9.6870464  46.4351230  25.6102439  10.6456984  45.9753759  26.6879709
  13.1759919  36.6774452  33.4374537  13.5309307  36.9045925  34.2969002
  13.8232050  37.0092828  32.8151792  18.9057656  39.7992887  24.1423866
  18.7675554  39.9894483  23.2145055  18.5493875  40.5612270  24.5991917
   7.0699782  33.7850983  30.2220878   7.7099161  33.6439742  29.5243841
   6.2377312  33.4985496  29.8459480  18.9327035  41.8669414  29.1535137
  19.3663542  41.7744704  30.0018191  19.6458616  41.8426915  28.5155153
   7.8460086  43.0853413  26.3355870   8.6400684  42.5903733  26.1338445
   7.1351778  42.5571276  25.9723576  12.6654930  45.4671509  30.6868238
  12.7191953  46.0362445  31.4545954  11.7969712  45.6373394  30.3222275
   4.1542849  37.2296495  22.4115623   3.2240437  37.1680950  22.6285585
   4.2500321  36.7072447  21.6152264   4.0728398  33.7551308  24.9993864
   4.3335216  34.6696641  24.8903025   4.8945571  33.2875750  25.1490477
   5.5453324  35.1689065  32.1692689   6.2176377  34.9606427  31.5205338
   4.7183110  34.9711151  31.7297921  19.7942585  41.9093115  31.6868023
  19.9878475  42.8138926  31.9327297  19.6943203  41.4500534  32.5206608
  11.4478896  31.7951006  34.1858350  10.8006811  32.4940955  34.0922826
  12.2179911  32.2287150  34.5534598  14.8557694  42.0599858  37.2608903
  14.7043200  41.8310410  36.3438987  14.8462373  43.0170459  37.2740248
  11.6243030  39.6331771  32.2455170  12.5535090  39.7842930  32.0724137
  11.2034060  39.7215791  31.3903816  10.4231362  43.6582435  30.0153707
  10.2842447  43.2901219  30.8879645   9.6345958  44.1730074  29.8437665
  11.0179514  48.7591531  21.3579244  11.1931269  48.2879575  22.1724866
  10.3312302  49.3857298  21.5860504  11.9736577  43.0364038  27.4042545
  11.6386410  42.9964808  28.3000195  11.4740523  42.3708754  26.9312955
   5.9480821  38.4431668  32.9295126   5.8100619  37.7111907  33.5306665
   6.8585744  38.3540568  32.6479314  14.9095769  40.3820072  17.6779605
  14.2924939  39.6566900  17.5812657  14.4412257  41.1429432  17.3346679
   8.5763122  38.1551627  32.4178806   9.2862740  37.5144819  32.3765424
   8.5332430  38.4064522  33.3404987  16.5649900  45.0918980  35.3385385
  16.5062446  44.4078201  34.6715968  16.9669419  45.8337970  34.8866011
   7.2892056  35.1416845  34.2374445   6.7529413  34.6907583  34.8896042
   6.7008764  35.2762754  33.4944910   5.5840599  51.9080894  28.1319104
   5.8237197  52.5399418  28.8098122   4.7409795  51.5568934  28.4184463
  16.5667307  43.0558564  33.5699365  15.6794086  42.7184486  33.6925764
  17.1365859  42.3241596  33.8068130   3.0231177  34.2772853  31.3227440
   2.9389365  33.6698522  30.5877850   2.2013883  34.7681871  31.3236936
  10.0968461  47.7160017  30.5360608  10.0238632  48.5214988  31.0479912
   9.6545854  47.9151982  29.7108629   9.8858240  46.9531787  24.0463429
   9.1025762  47.4953467  24.1401654  10.5850986  47.4705766  24.4457671
  13.1954891  32.7626416  26.6897635  13.6923590  32.0096378  26.3698705
  12.4241872  32.7990733  26.1240844  21.0484648  38.4666782  28.3315926
  21.0374524  39.3491497  27.9609859  20.1802027  38.1138333  28.1370463
  12.5567144  47.6146851  32.6918767  13.2695117  48.2494316  32.6194668
  12.0657173  47.7110717  31.8758768  14.2784671  41.5198103  24.2636058
  13.3440950  41.6399566  24.0940763  14.4561340  40.6170570  23.9996068
   9.7789859  34.9043799  26.4169319   9.4087647  34.3514840  27.1050225
  10.2748952  34.3001933  25.8644319  17.6657223  37.3615423  24.7986092
  18.1317675  38.1943414  24.7246395  18.1164723  36.8960404  25.5031351
   7.6079058  45.3641294  33.5124337   8.3088517  45.9977777  33.6653732
   7.1374173  45.7056026  32.7519977  15.7333454  43.7059244  21.7972244
  16.0093298  43.5915839  22.7066118  14.8637953  43.3076729  21.7584418
  15.6373885  29.7296010  28.8376994  14.7236965  29.9600236  29.0059201
  16.0666987  29.8134454  29.6891026  15.4080344  37.9185902  31.3376888
  14.7551794  38.1661809  30.6829340  15.7860724  37.1050040  31.0039365
  12.3687518  47.9545595  25.4405058  12.5509912  47.1367251  25.9032810
  13.1920504  48.1713287  25.0029948  12.7029683  46.8813780  22.7020107
  13.2317450  46.3706234  22.0890269  12.9657903  46.5656310  23.5665640
  11.4567917  38.6605713  37.8242925  10.7808554  38.5599842  38.4945300
  12.2795551  38.5044926  38.2878922   3.2046776  44.8977649  30.4455440
   3.7900213  44.1521337  30.5783344   3.0071614  45.2081606  31.3292104
   6.0585431  47.9328897  25.4617882   5.3895806  48.4175024  24.9781923
   5.9198301  48.1798117  26.3761261  10.1990700  49.9672640  32.0600541
  10.7509008  50.1304262  32.8249626  10.5396893  50.5577078  31.3880566
   5.1755193  32.3147790  32.6622426   5.2396520  33.1762621  32.2499823
   5.1122313  31.7021792  31.9294784   4.6507466  34.3870922  36.3095460
   5.2779504  34.0048000  36.9232984   3.7935384  34.1685124  36.6751152
  15.0501574  44.7933898  37.9149195  15.5941478  45.4063856  37.4204150
  14.4688419  45.3513476  38.4316208   1.4273008  36.1947352  22.2413815
   1.7226449  35.2858030  22.1880868   0.5261044  36.1735091  21.9194817
  13.3359087  47.9154616  29.0464223  13.2110227  47.1144355  28.5375168
  13.9938178  48.4100809  28.5578193   4.9567255  34.2703348  28.2241363
   4.2353841  34.8839316  28.0848837   5.7460511  34.8061113  28.1458009
  15.3993995  45.7163636  30.6743773  14.4524331  45.5968987  30.6022100
  15.7476769  44.8286134  30.7570034   7.7593569  31.6057775  34.4982015
   8.2827971  31.8520071  35.2608324   7.5405902  32.4377809  34.0785152
   3.1560850  33.8761449  22.3653140   2.8273556  32.9958828  22.1828246
   3.5100221  33.8209118  23.2529529  12.4040429  45.5116352  26.8748125
  12.2565391  44.5833059  27.0555695  13.2293922  45.5336443  26.3905201
   6.2702673  34.1634419  22.7328617   6.6098746  34.6920340  22.0107226
   6.7174794  34.5014825  23.5087184  16.0074551  46.3344911  27.9612998
  16.9321098  46.1287772  27.8237449  15.8389854  46.0861312  28.8702340
   8.9646114  32.5471470  32.1831685   8.6242934  31.7479283  32.5852365
   8.2585120  32.8473181  31.6108519   9.6162586  29.6320782  30.6359009
  10.4388655  29.1581260  30.5137899   9.8600649  30.4111266  31.1357695
   8.2570820  32.6609041  20.9321910   8.9779183  33.0390293  20.4285627
   7.6336124  33.3797917  21.0356888  12.4001943  33.3654190  21.8680243
  12.6165557  34.2478827  21.5669071  11.9196010  32.9740403  21.1385885
   7.1401164  36.3239903  28.4450987   6.9945745  36.6380206  29.3375269
   6.6626368  36.9424803  27.8921886   8.9997547  33.3142451  28.4931877
   8.9859116  32.4183544  28.1564175   9.7169975  33.3213115  29.1270163
  10.8523678  33.7479791  30.5385004  10.5941456  34.6696862  30.5369335
  10.3208718  33.3510226  31.2285468  15.7969867  46.8530578  23.3175090
  15.9706744  46.2877001  22.5648942  16.2898758  47.6531473  23.1354579
   1.6146827  38.8645247  31.3838648   1.0700295  39.6405055  31.5158923
   2.4926176  39.2116052  31.2257770   8.4034443  32.1956831  23.7619447
   8.5250354  31.2673477  23.9610334   8.1136486  32.2095517  22.8497762
  11.2725634  29.8811742  26.8986167  11.2947330  29.9451075  25.9438146
  11.6893693  29.0416250  27.0926673  21.6509258  39.6167001  24.9365389
  22.0940404  38.8674326  24.5384513  20.7735768  39.6077137  24.5539121
  16.7845039  46.1697343  20.4171988  17.4795944  46.7904035  20.6359302
  17.1268189  45.3192694  20.6924366   2.4012848  37.9915143  34.2768805
   1.6594585  38.1397779  34.8633436   2.0805593  38.2523409  33.4135555
  18.6836462  43.6197048  21.9459319  19.2087787  43.9584321  21.2208639
  18.5958815  42.6844063  21.7622453  10.3456511  47.5331122  34.0749195
  10.6543638  47.2880268  34.9471895  11.1431993  47.7377760  33.5868065
  10.3677123  49.6869031  26.3054572   9.9282113  49.1945410  26.9987428
  11.1185240  49.1441999  26.0646647   2.8469462  45.8780572  26.3079200
   3.6727482  45.5784344  25.9277843   2.4963514  45.1088195  26.7568988
   7.8150995  45.2307040  28.3776873   7.1931005  44.5677745  28.0779101
   8.4855862  45.2568172  27.6950521   7.8875523  33.7088828  37.9709379
   7.9363678  34.5850951  37.5887149   8.4298037  33.1666221  37.3981023
  18.3730368  44.2529952  37.2510517  17.5825912  44.2354091  36.7115016
  18.1363723  44.7918245  38.0059553  18.4928244  41.1022418  34.5643245
  18.5426248  40.9372426  35.5058768  18.3842167  40.2349677  34.1741126
   7.3764502  43.7810964  21.8535334   7.5252623  44.4646428  21.2002007
   8.1830946  43.7616054  22.3684790  15.7832006  37.0853346  35.8802552
  16.6841869  36.9459811  35.5886550  15.8579980  37.2507801  36.8200729
  10.1174811  34.4620201  34.7255738   9.2478121  34.7553767  34.4538327
  10.3534292  35.0460646  35.4463002  19.9946440  43.5219360  34.8085267
  19.7031249  43.8849340  35.6448728  19.3818572  42.8086368  34.6298599
  21.1942123  41.0872239  27.3287837  22.0289014  41.5262043  27.4925397
  21.3301251  40.6110893  26.5096083  18.2433629  38.6451974  33.2765325
  18.7187750  38.8379621  32.4684176  17.3199194  38.7011160  33.0308708
   5.1317135  39.8076141  22.8596403   4.8863177  38.9038471  23.0576613
   5.3013050  39.8093292  21.9175881  12.8213845  30.6799818  32.2421158
  13.3395789  31.4160845  31.9167647  12.4668978  30.9863811  33.0767918
  13.0726439  27.1000100  27.7622055  13.3528193  26.4323289  28.3882482
  13.8577046  27.2929196  27.2496719  10.8759908  46.2759094  19.3247081
  10.3033875  46.8949281  18.8717553  11.4492701  46.8258456  19.8587003
  16.9435298  35.5217734  31.5093630  17.8952721  35.6215832  31.5305854
  16.7738748  34.7296003  32.0191715  14.9649677  32.6073318  31.6953031
  14.3699609  32.8878330  30.9999520  14.6799374  33.0967218  32.4669772
  14.0957168  46.5596244  20.4555664  15.0287841  46.4941806  20.6588539
  14.0080380  47.3952511  19.9970196  16.7245184  45.8762115  17.4159611
  16.6458816  45.5421978  18.3095369  17.5454851  46.3683883  17.4151084
  19.4223375  38.7423854  30.6235930  19.3899696  37.8039855  30.8095614
  20.0323999  38.8207891  29.8901755  11.2606706  37.6119907  16.6663134
  12.2065811  37.4826115  16.7351552  10.8820951  36.8734569  17.1432562
  19.5717864  35.5334897  30.6694213  19.0556913  34.7493354  30.4824142
  20.4557812  35.2053614  30.8340732  17.2328591  29.2775913  26.6290026
  17.0353412  28.9691001  27.5133358  17.8428296  30.0037552  26.7587956
  25.2399925  39.8039861  29.7641967  25.9703314  39.5425149  30.3249670
  24.6306871  39.0668583  29.8044035  23.3215222  37.9447723  30.3616418
  22.5948386  37.8103688  29.7532909  22.9062509  38.2524552  31.1673136
  11.1445399  41.6637653  38.1263791  12.0648408  41.8416252  38.3203837
  11.1094982  40.7193698  37.9743490   4.1407471  39.5738688  30.7686572
   4.3593481  40.5055796  30.7874606   4.5533245  39.2146662  31.5541376
  11.0611689  30.0806773  22.7562260  10.2512417  29.7353858  23.1317506
  11.7496106  29.7714317  23.3449872  12.9902237  29.1584820  24.3786557
  13.5433276  29.5780273  25.0376580  13.2272324  28.2320568  24.4209513
   9.0135337  35.1471894  40.1589321   8.9132064  36.0966250  40.0901412
   8.7956879  34.8190132  39.2865391  16.3681045  31.2685345  23.8865221
  15.7879714  31.9270149  23.5043274  16.1016977  30.4462690  23.4752639
  14.8184611  30.6690403  26.0886542  15.3184389  30.7806937  25.2800860
  15.4620219  30.3651456  26.7287350   8.8766607  38.5769032  38.9754383
   8.3933688  39.3769392  39.1818272   8.9627546  38.5876977  38.0221827
   2.1452566  40.4097412  26.8976202   2.1223254  40.5085099  25.9458085
   2.4553203  41.2562563  27.2193368   4.8039944  42.4673567  31.0122816
   5.7583198  42.4357509  30.9452748   4.6052468  42.0064191  31.8273042
   5.3939326  41.0374683  33.5793614   6.2132215  41.5318762  33.6028451
   5.6676134  40.1206651  33.5511182  15.1505923  33.4285435  22.9421570
  14.2631778  33.7135086  22.7241764  15.5659912  33.2679199  22.0948846
  18.5020459  33.4531956  26.6575909  19.2780849  33.9428409  26.9300526
  17.7768593  33.8790011  27.1147778  20.9393017  34.1659576  27.7149849
  21.5337508  33.9255312  27.0043158  21.0119601  33.4466706  28.3423386
   3.1590173  48.0093187  28.0293014   3.0244641  47.2493587  27.4631012
   2.7422235  48.7334086  27.5621803  14.2949136  43.1930110  17.0369590
  14.9984986  43.3980113  17.6527245  13.5711785  43.7606872  17.3018673
  15.1246946  38.9439971  23.1571860  15.0682148  39.4008523  22.3179492
  15.6775289  38.1830656  22.9794702  18.9351752  34.7329703  23.9821979
  18.6788686  34.3326339  24.8130187  18.3104620  35.4473497  23.8572118
  23.2464090  37.4725776  26.4893271  22.6863648  37.5418966  27.2624833
  22.6407593  37.2966761  25.7692767   6.3159299  48.9062504  28.2411457
   6.1991683  49.8507936  28.1390147   5.4951745  48.6036065  28.6297256
  16.2035833  43.6312639  19.0868050  17.0381437  43.1993838  18.9045524
  16.0420176  43.4594653  20.0144944  15.8581726  40.1344753  20.4524389
  15.8030529  39.9689024  19.5112833  15.2327781  40.8420786  20.6086579
  13.1727633  42.4393664  39.7777952  14.0418792  42.6134317  39.4164587
  12.6934384  43.2588081  39.6553681   7.3413813  49.5590765  31.4567385
   8.2441060  49.5914376  31.7733880   7.1151183  48.6291216  31.4713721
   9.0967415  48.3121752  28.1177464   8.1463046  48.3123614  28.0041836
   9.3999901  47.5654487  27.6013499  12.9829971  26.2295638  24.2855644
  12.2162366  25.6754125  24.4312326  13.3940675  26.3017507  25.1469796
   4.9871732  32.5180434  38.3760825   5.8503193  32.1617239  38.5864150
   4.4137142  32.1794329  39.0636230  24.8320108  54.1482290  29.1823226
  25.4698518  54.0289038  28.4786566  24.7140951  55.0963134  29.2411178
  21.6409815  54.1009719  29.1184751  21.3028326  53.9850783  28.2305286
  22.5099583  53.7000884  29.0985757  17.4996630  55.9545195  25.1081642
  16.9361496  55.8635132  24.3397930  17.3849026  55.1345099  25.5884135
  22.1229598  55.2544570  35.0770957  22.1118239  54.8597368  34.2051460
  22.2850237  54.5210643  35.6704728  15.0461062  57.4496387  27.9465862
  15.8382354  57.1087211  27.5312162  15.2857713  57.5591362  28.8668016
  23.0796189  59.6216163  20.4196107  22.4284169  60.2070243  20.0330121
  23.8740552  60.1522358  20.4791144  17.0051816  56.7105300  20.8183241
  17.7782692  56.1634287  20.6796117  17.3577215  57.5749549  21.0297703
  18.8436859  58.0381682  34.0250141  18.5526725  58.9427313  33.9096807
  19.4793843  58.0798210  34.7394210  19.7693066  55.4158531  30.6151500
  20.3656638  55.1914553  29.9008463  19.8268037  54.6743276  31.2176948
  19.3418094  52.8697966  18.4501691  19.5943615  52.3479487  17.6885154
  18.4042653  52.7064111  18.5528375  24.3861377  51.8733744  26.2576434
  25.1724466  51.4553167  25.9066851  24.6500081  52.7779836  26.4258083
  24.5571454  57.3106595  20.9565091  23.9217287  57.3841221  21.6685996
  24.2268861  57.9000193  20.2784170  29.7869804  51.8108977  27.1609413
  30.5194976  51.2408194  27.3947242  29.0309160  51.4230578  27.6015918
  19.0614383  54.7726072  20.6526066  18.9450641  54.0970975  21.3207150
  19.1716643  54.2858446  19.8358219  21.4045924  54.2336219  24.3572755
  21.0404131  53.7066840  25.0685677  22.2613040  53.8434688  24.1839241
  27.3095224  45.5230552  31.6204021  26.9778549  46.3925963  31.3965236
  26.7140838  45.2066836  32.2998052  21.0451411  49.2626119  19.3534104
  21.2125813  50.1306355  19.7204575  20.8548580  49.4253400  18.4295393
  23.8026744  57.7243098  31.0199934  23.5027467  58.6268136  30.9115741
  23.4577804  57.4575281  31.8721087  17.2539225  54.1756894  27.0536639
  16.3289722  54.0433108  27.2614330  17.5023639  54.9551114  27.5506581
  27.2023888  50.2425638  28.6997372  26.2940765  50.1741046  28.4056133
  27.1511484  50.7197583  29.5279197  21.0240632  51.7183776  20.3380771
  20.9040257  52.1640827  21.1766251  20.3293220  52.0669094  19.7794309
  14.6148037  53.8190168  27.8880428  14.7440418  54.0724647  28.8019839
  13.9345488  54.4117876  27.5685083  18.7847524  64.4887418  23.9870902
  18.7071553  65.4395243  24.0659382  18.1809167  64.1433290  24.6445828
  21.2764754  51.6615283  36.6432269  20.4998088  52.2209203  36.6335133
  21.9155317  52.1472066  37.1647139  29.0685534  48.4442076  30.4775245
  28.4259914  48.7374609  29.8315040  28.5640463  48.3294996  31.2828442
  26.7225698  52.1905249  21.1661105  27.6343554  52.4232636  20.9908802
  26.2135345  52.7742294  20.6036183  19.5311126  54.4700737  36.2050236
  20.2725810  55.0085781  35.9285059  18.8248111  55.0967025  36.3621788
  25.0066466  56.6129877  34.8022397  25.4149822  56.1712288  34.0577030
  24.2843727  56.0382505  35.0556590  21.3597536  51.5502484  32.1755954
  22.2058731  51.9741897  32.3190603  21.2996173  50.8936108  32.8694517
  25.3295280  57.1731068  28.5574686  24.7004143  57.3376782  27.8550754
  24.9420942  57.5872677  29.3285650  29.2084512  58.1085506  25.9119050
  28.5235550  58.4884407  25.3616083  29.2928361  58.7180832  26.6450998
  24.5096981  49.2106852  33.8337128  24.2657913  49.9648913  33.2971404
  24.7856911  49.5892200  34.6684375  26.4635444  55.7545465  32.5114393
  26.6752339  56.3977225  31.8348775  26.4165192  54.9207781  32.0436324
  24.0661673  48.3663285  29.4150966  23.2046152  48.6644539  29.7067703
  24.0924107  48.5833684  28.4831998  20.8823242  56.9105476  25.8224771
  21.3461588  57.1893179  25.0329394  20.6180040  56.0088920  25.6397862
  17.7747323  56.4576957  28.7604535  18.3448680  56.8864226  28.1222019
  18.3655435  56.1759542  29.4588720  19.8192128  53.0328628  22.6314336
  20.5216171  53.4849672  23.0988263  19.4872757  52.3912447  23.2594230
  18.2672490  51.6240385  37.0065546  17.6371150  52.3056666  37.2400943
  18.1608577  51.5123466  36.0618684  13.5617462  51.2912181  27.9331470
  12.7716516  51.5469709  27.4571581  14.0528709  52.1060519  28.0383511
  27.5781272  58.6317420  30.6836751  28.3998715  58.2297607  30.4019432
  27.5743674  58.5285654  31.6352867  15.5132207  51.6556760  24.8914947
  14.7163371  51.7675454  25.4098442  15.2857800  51.9943412  24.0255837
  21.3437875  58.1801463  32.8397461  21.4082308  58.6421871  33.6755633
  20.6348799  57.5498828  32.9679771  11.8455165  51.5442671  30.3646461
  12.0963203  52.4289681  30.6304037  12.3814713  51.3647273  29.5921553
  35.6687265  54.9756169  27.0321722  34.9150973  54.4063567  26.8765727
  35.8034806  54.9418833  27.9792357  21.0585893  59.8469571  22.7076442
  20.9231567  60.6921107  23.1361289  21.5995705  60.0488848  21.9442375
  17.5453232  45.9261151  39.3690797  17.1520178  45.3727349  40.0438441
  18.3619373  46.2371729  39.7597314  14.5115290  57.3645009  23.2804367
  15.0239811  58.1588259  23.4309931  15.1638003  56.6671299  23.2137968
  16.3210175  60.4810765  25.3627120  16.4976803  61.4028730  25.1748104
  17.1167008  60.1669184  25.7921500  20.4621193  47.3419030  36.9611053
  21.2030907  47.9426183  36.8815516  20.6939116  46.5996668  36.4029096
  15.6062531  52.5275397  35.2389283  15.4916046  51.6260654  35.5396382
  14.7507049  52.7739094  34.8874100  22.6854369  60.4693137  36.8376784
  22.2418223  59.6829516  36.5197688  23.3471583  60.6572288  36.1720675
  17.4441490  61.9988939  31.3637462  17.9948915  61.8706002  30.5914456
  16.6052966  62.2983828  31.0132355  24.7835607  60.7495937  34.8658185
  24.7654083  61.5704818  34.3738454  25.7055527  60.6250013  35.0908326
  21.2408661  58.2640067  35.7081693  21.7736998  57.5028355  35.4781001
  20.7122742  57.9713719  36.4505848  24.4078356  43.3700133  31.2375335
  24.0642626  44.2601774  31.1614446  24.7757319  43.1801790  30.3744920
  12.4764207  55.6933663  24.0563937  13.3139429  56.1030672  23.8397645
  12.6542475  54.7533105  24.0264131  24.3728639  53.3608744  19.7447770
  23.8575262  54.1313348  19.9836158  24.1005947  52.6873880  20.3680832
  21.9575750  48.2058445  24.8033009  21.1017346  47.8165295  24.6238647
  22.3702702  48.2850405  23.9432794  23.4874897  45.7404788  29.2024568
  22.9839692  45.7034923  28.3892374  23.7805504  46.6497531  29.2621225
  19.7317783  45.8243518  28.2090750  20.5970779  45.6286326  27.8496640
  19.7995291  45.5953869  29.1360107  29.3462913  56.1141098  21.6800944
  28.5692356  55.7752258  21.2356106  30.0254394  56.1193722  21.0055909
  24.1614942  51.2335836  21.5707551  23.8565078  51.5481985  22.4217695
  25.1145384  51.3117256  21.6134884  22.6061374  57.3926059  23.2200505
  22.0782736  56.6578819  22.9073743  22.1048877  58.1700736  22.9740474
  27.5854220  55.5875080  28.3367552  26.9277894  56.2774341  28.4247680
  28.3894619  55.9771512  28.6801538  17.3380102  48.0545726  25.5807117
  17.9123854  47.8320907  24.8480310  17.9251084  48.1234420  26.3335718
  26.3959679  53.9419452  26.3871493  26.9091561  54.5749444  26.8893203
  27.0460903  53.3420648  26.0214853  17.6649689  50.0850187  19.6003002
  16.8287001  50.4224873  19.9212277  17.5254458  49.9499166  18.6630139
  19.6402769  44.9286974  24.3082186  18.9867182  44.6135992  23.6838801
  19.5983243  44.3062715  25.0342009  20.7513974  55.2106270  16.2235478
  19.8441036  54.9795523  16.4226627  21.2485006  54.4143889  16.4109460
  23.6582053  63.9203777  19.1432165  22.9843752  64.2235473  19.7517122
  24.0447875  64.7232857  18.7937622  22.8740510  51.4168908  28.6329834
  21.9563071  51.6383855  28.4751522  23.2900653  51.4915218  27.7741541
  23.6575557  52.8160324  23.7632514  24.4047376  53.3281721  23.4539636
  23.9267147  52.4944376  24.6236908  21.9302208  55.3118864  20.7459469
  21.0213427  55.0277897  20.8431938  21.9597291  55.7317943  19.8862775
  27.1621475  58.9225454  24.5150636  26.7083802  58.0816364  24.5715827
  26.5315442  59.5586852  24.8525416  26.1054395  49.8517440  25.7451304
  25.3677151  49.3394826  26.0761546  26.3581168  49.4117822  24.9334580
  25.6054414  60.7601951  25.4500454  25.8977389  61.3207008  24.7312820
  26.1153035  61.0530512  26.2053613  26.2066022  42.6293692  26.3393073
  26.5124899  41.7691055  26.0518988  26.9318627  43.2211312  26.1392067
  12.4990378  53.0324379  24.7274671  12.3014778  52.4393739  24.0025737
  11.9437042  52.7276589  25.4450610  20.4787102  52.9247485  26.8469264
  20.5335711  51.9721321  26.7711740  19.6678304  53.0806924  27.3310562
  21.6278295  56.8527608  18.0847547  21.1897725  56.1363467  17.6253184
  22.3688736  57.0803723  17.5232638  18.4179462  51.5424545  24.6059643
  17.6047327  51.8418715  25.0124835  18.9138456  51.1480234  25.3234125
  20.5688039  61.5382302  26.5393907  20.5264218  61.7643148  25.6102439
  21.4850738  61.3045676  26.6879709  24.0153673  52.0066369  33.4374537
  24.3703061  52.2337842  34.2969002  24.6625805  52.3384746  32.8151792
  29.7451410  55.1284805  24.1423866  29.6069309  55.3186401  23.2145055
  29.3887629  55.8904188  24.5991917  17.9093536  49.1142900  30.2220878
  18.5492916  48.9731659  29.5243841  17.0771067  48.8277414  29.8459480
  29.7720790  57.1961332  29.1535137  30.2057296  57.1036621  30.0018191
  30.4852371  57.1718833  28.5155153  18.6853840  58.4145331  26.3355870
  19.4794439  57.9195651  26.1338445  17.9745533  57.8863194  25.9723576
  23.5048685  60.7963426  30.6868238  23.5585707  61.3654363  31.4545954
  22.6363466  60.9665311  30.3222275  14.9936604  52.5588412  22.4115623
  14.0634192  52.4972868  22.6285585  15.0894076  52.0364365  21.6152264
  14.9122153  49.0843225  24.9993864  15.1728970  49.9988558  24.8903025
  15.7339325  48.6167668  25.1490477  16.3847078  50.4980982  32.1692689
  17.0570132  50.2898345  31.5205338  15.5576865  50.3003068  31.7297921
  30.6336339  57.2385033  31.6868023  30.8272229  58.1430843  31.9327297
  30.5336958  56.7792452  32.5206608  22.2872650  47.1242923  34.1858350
  21.6400565  47.8232873  34.0922826  23.0573666  47.5579067  34.5534598
  25.6951448  57.3891776  37.2608903  25.5436954  57.1602327  36.3438987
  25.6856128  58.3462377  37.2740248  22.4636784  54.9623688  32.2455170
  23.3928844  55.1134848  32.0724137  22.0427814  55.0507709  31.3903816
  21.2625116  58.9874353  30.0153707  21.1236202  58.6193137  30.8879645
  20.4739712  59.5021992  29.8437665  21.8573268  64.0883449  21.3579244
  22.0325024  63.6171492  22.1724866  21.1706056  64.7149215  21.5860504
  22.8130331  58.3655955  27.4042545  22.4780164  58.3256725  28.3000195
  22.3134277  57.7000671  26.9312955  16.7874575  53.7723585  32.9295126
  16.6494373  53.0403824  33.5306665  17.6979499  53.6832485  32.6479314
  25.7489523  55.7111990  17.6779605  25.1318694  54.9858818  17.5812657
  25.2806012  56.4721350  17.3346679  19.4156876  53.4843545  32.4178806
  20.1256495  52.8436737  32.3765424  19.3726184  53.7356440  33.3404987
  27.4043655  60.4210898  35.3385385  27.3456201  59.7370118  34.6715968
  27.8063173  61.1629888  34.8866011  18.1285810  50.4708763  34.2374445
  17.5923167  50.0199501  34.8896042  17.5402518  50.6054671  33.4944910
  16.4234354  67.2372812  28.1319104  16.6630952  67.8691336  28.8098122
  15.5803550  66.8860852  28.4184463  17.5388069  49.9297414  16.8000909
  16.6617535  49.8086215  16.4363156  18.0145822  49.1383492  16.5479798
  27.4061062  58.3850482  33.5699365  26.5187841  58.0476404  33.6925764
  27.9759613  57.6533513  33.8068130   9.0590209  54.7174574  26.8942416
   9.7461249  54.4036304  26.3063431   8.9038338  55.6215938  26.6209668
  13.8624931  49.6064770  31.3227440  13.7783120  48.9990440  30.5877850
  13.0407638  50.0973789  31.3236936  20.9362215  63.0451934  30.5360608
  20.8632387  63.8506906  31.0479912  20.4939608  63.2443900  29.7108629
  20.7251995  62.2823704  24.0463429  19.9419517  62.8245385  24.1401654
  21.4244740  62.7997684  24.4457671  24.0348645  48.0918334  26.6897635
  24.5317345  47.3388296  26.3698705  23.2635627  48.1282650  26.1240844
  31.8878403  53.7958699  28.3315926  31.8768279  54.6783415  27.9609859
  31.0195782  53.4430250  28.1370463  23.3960899  62.9438768  32.6918767
  24.1088871  63.5786233  32.6194668  22.9050928  63.0402634  31.8758768
  25.1178426  56.8490021  24.2636058  24.1834705  56.9691484  24.0940763
  25.2955094  55.9462488  23.9996068  20.6183614  50.2335717  26.4169319
  20.2481401  49.6806757  27.1050225  21.1142706  49.6293850  25.8644319
  28.5050977  52.6907340  24.7986092  28.9711429  53.5235332  24.7246395
  28.9558478  52.2252322  25.5031351  18.4472812  60.6933212  33.5124337
  19.1482272  61.3269695  33.6653732  17.9767927  61.0347943  32.7519977
  26.5727208  59.0351162  21.7972244  26.8487052  58.9207756  22.7066118
  25.7031707  58.6368646  21.7584418  26.4767640  45.0587927  28.8376994
  25.5630720  45.2892154  29.0059201  26.9060741  45.1426371  29.6891026
  26.2474098  53.2477819  31.3376888  25.5945549  53.4953727  30.6829340
  26.6254478  52.4341957  31.0039365  23.2081272  63.2837512  25.4405058
  23.3903667  62.4659168  25.9032810  24.0314258  63.5005205  25.0029948
  23.5423438  62.2105698  22.7020107  24.0711204  61.6998152  22.0890269
  23.8051657  61.8948228  23.5665640  22.2961671  53.9897630  37.8242925
  21.6202308  53.8891760  38.4945300  23.1189305  53.8336844  38.2878922
  14.0440530  60.2269567  30.4455440  14.6293967  59.4813255  30.5783344
  13.8465369  60.5373524  31.3292104  16.8979186  63.2620814  25.4617882
  16.2289561  63.7466942  24.9781923  16.7592055  63.5090035  26.3761261
   8.6358185  52.7975167  29.1659883   8.6742285  52.2638758  29.9597001
   8.1298478  52.2710373  28.5470860  21.0384454  65.2964558  32.0600541
  21.5902762  65.4596179  32.8249626  21.3790648  65.8868996  31.3880566
  16.0148948  47.6439708  32.6622426  16.0790274  48.5054538  32.2499823
  15.9516068  47.0313709  31.9294784  15.4901220  49.7162840  36.3095460
  16.1173259  49.3339917  36.9232984  14.6329139  49.4977042  36.6751152
  25.8895329  60.1225815  37.9149195  26.4335233  60.7355774  37.4204150
  25.3082173  60.6805394  38.4316208  12.2666763  51.5239269  22.2413815
  12.5620204  50.6149948  22.1880868  11.3654799  51.5027009  21.9194817
  24.1752842  63.2446533  29.0464223  24.0503981  62.4436273  28.5375168
  24.8331933  63.7392727  28.5578193  15.7961010  49.5995266  28.2241363
  15.0747596  50.2131234  28.0848837  16.5854266  50.1353031  28.1458009
  26.2387750  61.0455553  30.6743773  25.2918085  60.9260905  30.6022100
  26.5870523  60.1578051  30.7570034  18.5987323  46.9349692  34.4982015
  19.1221725  47.1811989  35.2608324  18.3799657  47.7669727  34.0785152
  13.9954604  49.2053367  22.3653140  13.6667311  48.3250746  22.1828246
  14.3493975  49.1501036  23.2529529  23.2434183  60.8408270  26.8748125
  23.0959146  59.9124977  27.0555695  24.0687677  60.8628360  26.3905201
  17.1096428  49.4926337  22.7328617  17.4492500  50.0212258  22.0107226
  17.5568548  49.8306743  23.5087184  26.8468305  61.6636828  27.9612998
  27.7714853  61.4579690  27.8237449  26.6783608  61.4153230  28.8702340
  19.8039868  47.8763387  32.1831685  19.4636689  47.0771200  32.5852365
  19.0978875  48.1765098  31.6108519  20.4556340  44.9612700  30.6359009
  21.2782410  44.4873178  30.5137899  20.6994404  45.7403184  31.1357695
  19.0964575  47.9900958  20.9321910  19.8172937  48.3682211  20.4285627
  18.4729879  48.7089835  21.0356888  23.2395698  48.6946107  21.8680243
  23.4559312  49.5770745  21.5669071  22.7589765  48.3032321  21.1385885
  17.9794919  51.6531820  28.4450987  17.8339500  51.9672124  29.3375269
  17.5020123  52.2716721  27.8921886  19.8391302  48.6434368  28.4931877
  19.8252871  47.7475462  28.1564175  20.5563730  48.6505032  29.1270163
  21.6917433  49.0771709  30.5385004  21.4335210  49.9988779  30.5369335
  21.1602473  48.6802143  31.2285468  26.6363621  62.1822496  23.3175090
  26.8100499  61.6168918  22.5648942  27.1292513  62.9823391  23.1354579
  12.4540581  54.1937165  31.3838648  11.9094049  54.9696973  31.5158923
  13.3319931  54.5407969  31.2257770  19.2428198  47.5248749  23.7619447
  19.3644109  46.5965395  23.9610334  18.9530240  47.5387435  22.8497762
  22.1119388  45.2103659  26.8986167  22.1341085  45.2742992  25.9438146
  22.5287447  44.3708168  27.0926673  32.4903012  54.9458919  24.9365389
  32.9334159  54.1966244  24.5384513  31.6129523  54.9369055  24.5539121
  27.6238794  61.4989260  20.4171988  28.3189698  62.1195953  20.6359302
  27.9661944  60.6484611  20.6924366  13.2406603  53.3207061  34.2768805
  12.4988339  53.4689697  34.8633436  12.9199347  53.5815327  33.4135555
  29.5230217  58.9488966  21.9459319  30.0481541  59.2876238  21.2208639
  29.4352569  58.0135981  21.7622453  21.1850266  62.8623039  34.0749195
  21.4937392  62.6172186  34.9471895  21.9825748  63.0669678  33.5868065
  21.2070878  65.0160949  26.3054572  20.7675868  64.5237328  26.9987428
  21.9578995  64.4733917  26.0646647  13.6863217  61.2072490  26.3079200
  14.5121237  60.9076262  25.9277843  13.3357269  60.4380112  26.7568988
  18.6544750  60.5598958  28.3776873  18.0324759  59.8969663  28.0779101
  19.3249617  60.5860090  27.6950521  11.8871822  59.1258816  27.2668133
  11.0503730  58.6980991  27.0852135  11.8595467  59.3191260  28.2038925
  18.7269277  49.0380746  37.9709379  18.7757433  49.9142869  37.5887149
  19.2691792  48.4958139  37.3981023  29.2124123  59.5821869  37.2510517
  28.4219667  59.5646008  36.7115016  28.9757478  60.1210163  38.0059553
  29.3321998  56.4314336  34.5643245  29.3820003  56.2664343  35.5058768
  29.2235921  55.5641595  34.1741126  18.2158257  59.1102881  21.8535334
  18.3646377  59.7938346  21.2002007  19.0224700  59.0907971  22.3684790
  26.6225760  52.4145264  35.8802552  27.5235623  52.2751729  35.5886550
  26.6973735  52.5799719  36.8200729  20.9568566  49.7912119  34.7255738
  20.0871875  50.0845685  34.4538327  21.1928046  50.3752564  35.4463002
  30.8340195  58.8511277  34.8085267  30.5425003  59.2141258  35.6448728
  30.2212326  58.1378286  34.6298599  32.0335877  56.4164157  27.3287837
  32.8682769  56.8553961  27.4925397  32.1695006  55.9402810  26.5096083
  29.0827383  53.9743892  33.2765325  29.5581505  54.1671538  32.4684176
  28.1592948  54.0303078  33.0308708  15.9710890  55.1368059  22.8596403
  15.7256932  54.2330389  23.0576613  16.1406804  55.1385210  21.9175881
  23.6607600  46.0091735  32.2421158  24.1789543  46.7452762  31.9167647
  23.3062732  46.3155729  33.0767918  15.2406537  50.8696417  20.3582564
  14.5475782  50.9440772  19.7022600  14.9958289  50.1056760  20.8804081
  23.9120194  42.4292018  27.7622055  24.1921948  41.7615207  28.3882482
  24.6970801  42.6221114  27.2496719  21.7153662  61.6051012  19.3247081
  21.1427629  62.2241199  18.8717553  22.2886456  62.1550374  19.8587003
  27.7829052  50.8509652  31.5093630  28.7346475  50.9507750  31.5305854
  27.6132503  50.0587921  32.0191715  25.8043432  47.9365235  31.6953031
  25.2093364  48.2170248  30.9999520  25.5193128  48.4259136  32.4669772
  24.9350922  61.8888162  20.4555664  25.8681595  61.8233724  20.6588539
  24.8474135  62.7244429  19.9970196  27.5638939  61.2054032  17.4159611
  27.4852570  60.8713896  18.3095369  28.3848605  61.6975800  17.4151084
  30.2617130  54.0715772  30.6235930  30.2293450  53.1331772  30.8095614
  30.8717754  54.1499808  29.8901755  22.1000461  52.9411825  16.6663134
  23.0459565  52.8118033  16.7351552  21.7214706  52.2026487  17.1432562
  30.4111618  50.8626815  30.6694213  29.8950667  50.0785272  30.4824142
  31.2951567  50.5345532  30.8340732  28.0722345  44.6067831  26.6290026
  27.8747166  44.2982919  27.5133358  28.6822051  45.3329470  26.7587956
  36.0793680  55.1331779  29.7641967  36.8097068  54.8717067  30.3249670
  35.4700625  54.3960500  29.8044035  34.1608977  53.2739641  30.3616418
  33.4342140  53.1395606  29.7532909  33.7456264  53.5816470  31.1673136
  21.9839153  56.9929571  38.1263791  22.9042163  57.1708170  38.3203837
  21.9488736  56.0485616  37.9743490  20.2843378  50.8661801  16.6018019
  19.3774833  50.5694914  16.6780733  20.5619359  50.5691619  15.7352305
  11.2021318  52.1868164  27.0517065  10.8824103  51.3333473  26.7591439
  10.6554746  52.4016743  27.8075033  14.9801226  54.9030605  30.7686572
  15.1987236  55.8347713  30.7874606  15.3927000  54.5438580  31.5541376
  21.9005444  45.4098691  22.7562260  21.0906172  45.0645776  23.1317506
  22.5889861  45.1006234  23.3449872  23.8295992  44.4876738  24.3786557
  24.3827031  44.9072191  25.0376580  24.0666078  43.5612486  24.4209513
  19.8529091  50.4763811  40.1589321  19.7525818  51.4258168  40.0901412
  19.6350633  50.1482050  39.2865391  19.0542163  47.7248736  16.7429998
  19.9161327  48.0503635  17.0025816  19.2392507  46.9380232  16.2303064
  11.0709578  55.8071076  29.0210187  10.3773050  55.3925029  28.5080141
  11.8182569  55.8491612  28.4243606  27.2074799  46.5977263  23.8865221
  26.6273468  47.2562067  23.5043274  26.9410732  45.7754607  23.4752639
  25.6578365  45.9982320  26.0886542  26.1578144  46.1098855  25.2800860
  26.3013973  45.6943373  26.7287350  19.7160361  53.9060950  38.9754383
  19.2327443  54.7061310  39.1818272  19.8021300  53.9168895  38.0221827
  12.9846321  55.7389330  26.8976202  12.9617009  55.8377017  25.9458085
  13.2946957  56.5854481  27.2193368  15.6433699  57.7965485  31.0122816
  16.5976952  57.7649427  30.9452748  15.4446222  57.3356108  31.8273042
  16.2333081  56.3666601  33.5793614  17.0525970  56.8610679  33.6028451
  16.5069889  55.4498569  33.5511182  25.9899677  48.7577353  22.9421570
  25.1025532  49.0427004  22.7241764  26.4053666  48.5971116  22.0948846
  29.3414213  48.7823874  26.6575909  30.1174603  49.2720327  26.9300526
  28.6162347  49.2081928  27.1147778  31.7786772  49.4951493  27.7149849
  32.3731263  49.2547229  27.0043158  31.8513355  48.7758624  28.3423386
  13.9983927  63.3385104  28.0293014  13.8638395  62.5785505  27.4631012
  13.5815990  64.0626004  27.5621803  25.1342890  58.5222028  17.0369590
  25.8378741  58.7272030  17.6527245  24.4105539  59.0898790  17.3018673
  25.9640701  54.2731889  23.1571860  25.9075902  54.7300440  22.3179492
  26.5169043  53.5122574  22.9794702  29.7745507  50.0621621  23.9821979
  29.5182441  49.6618257  24.8130187  29.1498375  50.7765415  23.8572118
  34.0857845  52.8017694  26.4893271  33.5257403  52.8710883  27.2624833
  33.4801348  52.6258679  25.7692767  17.1553053  64.2354421  28.2411457
  17.0385438  65.1799854  28.1390147  16.3345500  63.9327983  28.6297256
  27.0429588  58.9604557  19.0868050  27.8775192  58.5285755  18.9045524
  26.8813931  58.7886571  20.0144944  26.6975480  55.4636670  20.4524389
  26.6424284  55.2980942  19.5112833  26.0721535  56.1712703  20.6086579
  11.4867995  50.7004735  34.2785811  12.1326859  50.1903689  34.7673036
  11.2785146  51.4373416  34.8529236  24.0121387  57.7685582  39.7777952
  24.8812547  57.9426234  39.4164587  23.5328139  58.5879999  39.6553681
  20.0071606  44.9644779  20.0309707  19.9950275  45.9086619  20.1877978
  20.8995027  44.7814925  19.7369168  18.1807567  64.8882683  31.4567385
  19.0834814  64.9206293  31.7733880  17.9544938  63.9583134  31.4713721
  19.9361169  63.6413670  28.1177464  18.9856801  63.6415531  28.0041836
  20.2393656  62.8946404  27.6013499  23.8223725  41.5587556  24.2855644
  23.0556121  41.0046043  24.4312326  24.2334430  41.6309425  25.1469796
  15.8265486  47.8472352  38.3760825  16.6896948  47.4909157  38.5864150
  15.2530897  47.5086247  39.0636230  35.6713863  69.4774208  29.1823226
  36.3092273  69.3580955  28.4786566  35.5534706  70.4255052  29.2411178
  32.4803569  69.4301636  29.1184751  32.1422081  69.3142701  28.2305286
  33.3493337  69.0292801  29.0985757  28.3390385  71.2837113  25.1081642
  27.7755250  71.1927050  24.3397930  28.2242780  70.4637017  25.5884135
  32.9623352  70.5836488  35.0770957  32.9511993  70.1889286  34.2051460
  33.1243992  69.8502561  35.6704728  25.8854817  72.7788304  27.9465862
  26.6776109  72.4379129  27.5312162  26.1251467  72.8883279  28.8668016
  33.9189944  74.9508080  20.4196107  33.2677923  75.5362161  20.0330121
  34.7134306  75.4814275  20.4791144  27.8445571  72.0397217  20.8183241
  28.6176447  71.4926205  20.6796117  28.1970970  72.9041467  21.0297703
  29.6830613  73.3673600  34.0250141  29.3920479  74.2719231  33.9096807
  30.3187598  73.4090127  34.7394210  30.6086820  70.7450448  30.6151500
  31.2050392  70.5206471  29.9008463  30.6661792  70.0035194  31.2176948
  30.1811849  68.1989884  18.4501691  30.4337369  67.6771405  17.6885154
  29.2436408  68.0356029  18.5528375  35.2255131  67.2025662  26.2576434
  36.0118221  66.7845085  25.9066851  35.4893836  68.1071754  26.4258083
  35.3965209  72.6398512  20.9565091  34.7611042  72.7133139  21.6685996
  35.0662615  73.2292111  20.2784170  40.6263559  67.1400895  27.1609413
  41.3588731  66.5700112  27.3947242  39.8702914  66.7522496  27.6015918
  29.9008137  70.1017990  20.6526066  29.7844395  69.4262893  21.3207150
  30.0110397  69.6150363  19.8358219  32.2439678  69.5628137  24.3572755
  31.8797886  69.0358758  25.0685677  33.1006794  69.1726606  24.1839241
  38.1488979  60.8522469  31.6204021  37.8172304  61.7217880  31.3965236
  37.5534592  60.5358753  32.2998052  31.8845165  64.5918036  19.3534104
  32.0519568  65.4598273  19.7204575  31.6942334  64.7545318  18.4295393
  34.6420498  73.0535015  31.0199934  34.3421222  73.9560054  30.9115741
  34.2971558  72.7867198  31.8721087  28.0932980  69.5048812  27.0536639
  27.1683476  69.3725026  27.2614330  28.3417393  70.2843031  27.5506581
  38.0417642  65.5717555  28.6997372  37.1334520  65.5032964  28.4056133
  37.9905238  66.0489500  29.5279197  31.8634386  67.0475694  20.3380771
  31.7434011  67.4932745  21.1766251  31.1686975  67.3961011  19.7794309
  25.4541791  69.1482086  27.8880428  25.5834172  69.4016565  28.8019839
  24.7739242  69.7409794  27.5685083  29.6241278  79.8179336  23.9870902
  29.5465308  80.7687161  24.0659382  29.0202922  79.4725208  24.6445828
  32.1158508  66.9907201  36.6432269  31.3391842  67.5501121  36.6335133
  32.7549071  67.4763984  37.1647139  39.9079289  63.7733994  30.4775245
  39.2653669  64.0666527  29.8315040  39.4034217  63.6586914  31.2828442
  37.5619452  67.5197167  21.1661105  38.4737308  67.7524554  20.9908802
  37.0529099  68.1034211  20.6036183  30.3704880  69.7992654  36.2050236
  31.1119565  70.3377698  35.9285059  29.6641866  70.4258943  36.3621788
  35.8460220  71.9421795  34.8022397  36.2543576  71.5004205  34.0577030
  35.1237482  71.3674422  35.0556590  32.1991290  66.8794402  32.1755954
  33.0452485  67.3033815  32.3190603  32.1389928  66.2228026  32.8694517
  36.1689035  72.5022985  28.5574686  35.5397897  72.6668700  27.8550754
  35.7814697  72.9164595  29.3285650  40.0478267  73.4377423  25.9119050
  39.3629305  73.8176325  25.3616083  40.1322116  74.0472750  26.6450998
  35.3490735  64.5398770  33.8337128  35.1051667  65.2940830  33.2971404
  35.6250666  64.9184118  34.6684375  37.3029198  71.0837382  32.5114393
  37.5146093  71.7269142  31.8348775  37.2558946  70.2499699  32.0436324
  34.9055427  63.6955203  29.4150966  34.0439906  63.9936457  29.7067703
  34.9317862  63.9125602  28.4831998  31.7216997  72.2397394  25.8224771
  32.1855342  72.5185097  25.0329394  31.4573795  71.3380838  25.6397862
  28.6141078  71.7868875  28.7604535  29.1842435  72.2156143  28.1222019
  29.2049189  71.5051460  29.4588720  30.6585883  68.3620546  22.6314336
  31.3609926  68.8141590  23.0988263  30.3266511  67.7204365  23.2594230
  29.1066244  66.9532303  37.0065546  28.4764905  67.6348583  37.2400943
  29.0002332  66.8415384  36.0618684  24.4011217  66.6204099  27.9331470
  23.6110271  66.8761627  27.4571581  24.8922464  67.4352436  28.0383511
  38.4175026  73.9609338  30.6836751  39.2392470  73.5589525  30.4019432
  38.4137429  73.8577572  31.6352867  26.3525962  66.9848678  24.8914947
  25.5557125  67.0967372  25.4098442  26.1251554  67.3235330  24.0255837
  32.1831630  73.5093381  32.8397461  32.2476062  73.9713788  33.6755633
  31.4742553  72.8790746  32.9679771  22.6848920  66.8734589  30.3646461
  22.9356958  67.7581599  30.6304037  23.2208468  66.6939191  29.5921553
  46.5081019  70.3048086  27.0321722  45.7544728  69.7355484  26.8765727
  46.6428560  70.2710751  27.9792357  31.8979647  75.1761489  22.7076442
  31.7625322  76.0213024  23.1361289  32.4389460  75.3780766  21.9442375
  28.3846987  61.2553068  39.3690797  27.9913932  60.7019267  40.0438441
  29.2013127  61.5663647  39.7597314  25.3509045  72.6936927  23.2804367
  25.8633565  73.4880177  23.4309931  26.0031757  71.9963217  23.2137968
  27.1603929  75.8102683  25.3627120  27.3370558  76.7320648  25.1748104
  27.9560763  75.4961102  25.7921500  31.3014948  62.6710947  36.9611053
  32.0424661  63.2718101  36.8815516  31.5332871  61.9288585  36.4029096
  26.4456286  67.8567315  35.2389283  26.3309801  66.9552572  35.5396382
  25.5900804  68.1031011  34.8874100  33.5248124  75.7985055  36.8376784
  33.0811978  75.0121434  36.5197688  34.1865337  75.9864206  36.1720675
  28.2835245  77.3280857  31.3637462  28.8342670  77.1997920  30.5914456
  27.4446721  77.6275746  31.0132355  35.6229362  76.0787855  34.8658185
  35.6047837  76.8996736  34.3738454  36.5449282  75.9541930  35.0908326
  32.0802416  73.5931984  35.7081693  32.6130753  72.8320273  35.4781001
  31.5516497  73.3005636  36.4505848  35.2472111  58.6992050  31.2375335
  34.9036380  59.5893692  31.1614446  35.6151073  58.5093708  30.3744920
  23.3157961  71.0225581  24.0563937  24.1533183  71.4322589  23.8397645
  23.4936229  70.0825023  24.0264131  35.2122393  68.6900662  19.7447770
  34.6969017  69.4605266  19.9836158  34.9399702  68.0165798  20.3680832
  32.7969505  63.5350362  24.8033009  31.9411101  63.1457213  24.6238647
  33.2096456  63.6142323  23.9432794  34.3268651  61.0696706  29.2024568
  33.8233447  61.0326841  28.3892374  34.6199258  61.9789448  29.2621225
  30.5711537  61.1535435  28.2090750  31.4364534  60.9578244  27.8496640
  30.6389046  60.9245787  29.1360107  40.1856668  71.4433016  21.6800944
  39.4086110  71.1044176  21.2356106  40.8648149  71.4485639  21.0055909
  35.0008697  66.5627754  21.5707551  34.6958832  66.8773903  22.4217695
  35.9539139  66.6409174  21.6134884  33.4455129  72.7217977  23.2200505
  32.9176490  71.9870737  22.9073743  32.9442631  73.4992653  22.9740474
  38.4247975  70.9166997  28.3367552  37.7671649  71.6066259  28.4247680
  39.2288374  71.3063429  28.6801538  28.1773856  63.3837643  25.5807117
  28.7517608  63.1612825  24.8480310  28.7644839  63.4526338  26.3335718
  37.2353433  69.2711370  26.3871493  37.7485315  69.9041362  26.8893203
  37.8854657  68.6712566  26.0214853  28.5043443  65.4142104  19.6003002
  27.6680755  65.7516791  19.9212277  28.3648213  65.2791084  18.6630139
  30.4796524  60.2578892  24.3082186  29.8260936  59.9427909  23.6838801
  30.4376998  59.6354633  25.0342009  31.5907729  70.5398187  16.2235478
  30.6834790  70.3087441  16.4226627  32.0878761  69.7435806  16.4109460
  34.4975808  79.2495694  19.1432165  33.8237506  79.5527391  19.7517122
  34.8841630  80.0524775  18.7937622  33.7134264  66.7460826  28.6329834
  32.7956826  66.9675773  28.4751522  34.1294408  66.8207136  27.7741541
  34.4969312  68.1452241  23.7632514  35.2441131  68.6573639  23.4539636
  34.7660901  67.8236294  24.6236908  32.7695962  70.6410782  20.7459469
  31.8607181  70.3569815  20.8431938  32.7991046  71.0609861  19.8862775
  38.0015230  74.2517372  24.5150636  37.5477557  73.4108281  24.5715827
  37.3709196  74.8878770  24.8525416  36.9448149  65.1809358  25.7451304
  36.2070906  64.6686744  26.0761546  37.1974923  64.7409739  24.9334580
  36.4448169  76.0893868  25.4500454  36.7371143  76.6498925  24.7312820
  36.9546789  76.3822429  26.2053613  37.0459776  57.9585610  26.3393073
  37.3518653  57.0982973  26.0518988  37.7712381  58.5503230  26.1392067
  23.3384133  68.3616296  24.7274671  23.1408532  67.7685657  24.0025737
  22.7830796  68.0568506  25.4450610  31.3180856  68.2539403  26.8469264
  31.3729466  67.3013239  26.7711740  30.5072058  68.4098842  27.3310562
  32.4672050  72.1819526  18.0847547  32.0291480  71.4655385  17.6253184
  33.2082491  72.4095641  17.5232638  29.2573216  66.8716462  24.6059643
  28.4441082  67.1710633  25.0124835  29.7532210  66.4772151  25.3234125
  31.4081794  76.8674219  26.5393907  31.3657973  77.0935066  25.6102439
  32.3244493  76.6337594  26.6879709  34.8547428  67.3358287  33.4374537
  35.2096815  67.5629760  34.2969002  35.5019559  67.6676664  32.8151792
  40.5845165  70.4576723  24.1423866  40.4463063  70.6478319  23.2145055
  40.2281384  71.2196106  24.5991917  28.7487291  64.4434818  30.2220878
  29.3886670  64.3023577  29.5243841  27.9164821  64.1569331  29.8459480
  40.6114544  72.5253250  29.1535137  41.0451051  72.4328539  30.0018191
  41.3246125  72.5010750  28.5155153  29.5247595  73.7437248  26.3355870
  30.3188193  73.2487568  26.1338445  28.8139287  73.2155111  25.9723576
  34.3442439  76.1255344  30.6868238  34.3979461  76.6946280  31.4545954
  33.4757221  76.2957229  30.3222275  25.8330358  67.8880330  22.4115623
  24.9027946  67.8264786  22.6285585  25.9287830  67.3656283  21.6152264
  25.7515907  64.4135143  24.9993864  26.0122725  65.3280476  24.8903025
  26.5733080  63.9459585  25.1490477  27.2240833  65.8272900  32.1692689
  27.8963886  65.6190262  31.5205338  26.3970619  65.6294986  31.7297921
  41.4730094  72.5676950  31.6868023  41.6665984  73.4722761  31.9327297
  41.3730712  72.1084370  32.5206608  33.1266405  62.4534841  34.1858350
  32.4794320  63.1524791  34.0922826  33.8967420  62.8870985  34.5534598
  36.5345203  72.7183693  37.2608903  36.3830709  72.4894245  36.3438987
  36.5249882  73.6754295  37.2740248  33.3030539  70.2915606  32.2455170
  34.2322599  70.4426766  32.0724137  32.8821569  70.3799627  31.3903816
  32.1018871  74.3166270  30.0153707  31.9629956  73.9485055  30.8879645
  31.3133467  74.8313910  29.8437665  32.6967023  79.4175367  21.3579244
  32.8718778  78.9463410  22.1724866  32.0099811  80.0441133  21.5860504
  33.6524086  73.6947873  27.4042545  33.3173918  73.6548643  28.3000195
  33.1528032  73.0292589  26.9312955  27.6268330  69.1015503  32.9295126
  27.4888128  68.3695742  33.5306665  28.5373253  69.0124403  32.6479314
  36.5883278  71.0403907  17.6779605  35.9712448  70.3150736  17.5812657
  36.1199766  71.8013268  17.3346679  30.2550631  68.8135462  32.4178806
  30.9650249  68.1728655  32.3765424  30.2119939  69.0648357  33.3404987
  38.2437409  75.7502816  35.3385385  38.1849955  75.0662036  34.6715968
  38.6456928  76.4921806  34.8866011  28.9679564  65.8000680  34.2374445
  28.4316922  65.3491419  34.8896042  28.3796273  65.9346589  33.4944910
  27.2628108  82.5664730  28.1319104  27.5024706  83.1983254  28.8098122
  26.4197304  82.2152770  28.4184463  28.3781823  65.2589332  16.8000909
  27.5011290  65.1378132  16.4363156  28.8539577  64.4675410  16.5479798
  38.2454816  73.7142400  33.5699365  37.3581595  73.3768321  33.6925764
  38.8153368  72.9825431  33.8068130  19.8983964  70.0466491  26.8942416
  20.5855003  69.7328221  26.3063431  19.7432092  70.9507856  26.6209668
  24.7018686  64.9356688  31.3227440  24.6176874  64.3282358  30.5877850
  23.8801392  65.4265706  31.3236936  31.7755970  78.3743852  30.5360608
  31.7026141  79.1798824  31.0479912  31.3333363  78.5735818  29.7108629
  31.5645749  77.6115622  24.0463429  30.7813271  78.1537302  24.1401654
  32.2638495  78.1289602  24.4457671  34.8742400  63.4210252  26.6897635
  35.3711099  62.6680214  26.3698705  34.1029381  63.4574568  26.1240844
  42.7272157  69.1250617  28.3315926  42.7162033  70.0075332  27.9609859
  41.8589536  68.7722168  28.1370463  34.2354653  78.2730686  32.6918767
  34.9482626  78.9078151  32.6194668  33.7444682  78.3694552  31.8758768
  35.9572180  72.1781939  24.2636058  35.0228459  72.2983401  24.0940763
  36.1348849  71.2754405  23.9996068  31.4577368  65.5627634  26.4169319
  31.0875156  65.0098675  27.1050225  31.9536461  64.9585768  25.8644319
  39.3444732  68.0199258  24.7986092  39.8105184  68.8527250  24.7246395
  39.7952232  67.5544240  25.5031351  29.2866567  76.0225130  33.5124337
  29.9876026  76.6561612  33.6653732  28.8161682  76.3639861  32.7519977
  37.4120963  74.3643079  21.7972244  37.6880807  74.2499674  22.7066118
  36.5425461  73.9660564  21.7584418  37.3161394  60.3879845  28.8376994
  36.4024474  60.6184072  29.0059201  37.7454496  60.4718289  29.6891026
  37.0867853  68.5769737  31.3376888  36.4339303  68.8245644  30.6829340
  37.4648233  67.7633875  31.0039365  34.0475027  78.6129430  25.4405058
  34.2297421  77.7951086  25.9032810  34.8708013  78.8297122  25.0029948
  34.3817192  77.5397615  22.7020107  34.9104959  77.0290070  22.0890269
  34.6445412  77.2240145  23.5665640  33.1355426  69.3189548  37.8242925
  32.4596063  69.2183677  38.4945300  33.9583060  69.1628762  38.2878922
  24.8834285  75.5561485  30.4455440  25.4687722  74.8105172  30.5783344
  24.6859123  75.8665441  31.3292104  27.7372940  78.5912732  25.4617882
  27.0683315  79.0758860  24.9781923  27.5985810  78.8381952  26.3761261
  19.4751940  68.1267085  29.1659883  19.5136039  67.5930675  29.9597001
  18.9692233  67.6002290  28.5470860  31.8778209  80.6256475  32.0600541
  32.4296517  80.7888097  32.8249626  32.2184402  81.2160913  31.3880566
  26.8542702  62.9731625  32.6622426  26.9184028  63.8346456  32.2499823
  26.7909822  62.3605627  31.9294784  26.3294975  65.0454758  36.3095460
  26.9567013  64.6631835  36.9232984  25.4722893  64.8268960  36.6751152
  36.7289083  75.4517733  37.9149195  37.2728987  76.0647691  37.4204150
  36.1475928  76.0097311  38.4316208  23.1060517  66.8531187  22.2413815
  23.4013958  65.9441865  22.1880868  22.2048553  66.8318926  21.9194817
  35.0146596  78.5738451  29.0464223  34.8897736  77.7728191  28.5375168
  35.6725687  79.0684644  28.5578193  26.6354764  64.9287183  28.2241363
  25.9141350  65.5423151  28.0848837  27.4248020  65.4644948  28.1458009
  37.0781504  76.3747471  30.6743773  36.1311840  76.2552822  30.6022100
  37.4264278  75.4869969  30.7570034  29.4381078  62.2641610  34.4982015
  29.9615480  62.5103907  35.2608324  29.2193411  63.0961645  34.0785152
  24.8348359  64.5345285  22.3653140  24.5061065  63.6542663  22.1828246
  25.1887730  64.4792953  23.2529529  34.0827938  76.1700187  26.8748125
  33.9352900  75.2416895  27.0555695  34.9081431  76.1920278  26.3905201
  27.9490182  64.8218254  22.7328617  28.2886255  65.3504176  22.0107226
  28.3962303  65.1598660  23.5087184  37.6862060  76.9928746  27.9612998
  38.6108607  76.7871607  27.8237449  37.5177363  76.7445147  28.8702340
  30.6433623  63.2055305  32.1831685  30.3030443  62.4063118  32.5852365
  29.9372629  63.5057016  31.6108519  31.2950095  60.2904618  30.6359009
  32.1176164  59.8165096  30.5137899  31.5388158  61.0695101  31.1357695
  29.9358329  63.3192876  20.9321910  30.6566692  63.6974129  20.4285627
  29.3123633  64.0381753  21.0356888  34.0789452  64.0238025  21.8680243
  34.2953066  64.9062663  21.5669071  33.5983519  63.6324238  21.1385885
  28.8188673  66.9823738  28.4450987  28.6733254  67.2964041  29.3375269
  28.3413877  67.6008638  27.8921886  30.6785056  63.9726286  28.4931877
  30.6646625  63.0767379  28.1564175  31.3957484  63.9796950  29.1270163
  32.5311187  64.4063626  30.5385004  32.2728965  65.3280697  30.5369335
  31.9996227  64.0094061  31.2285468  37.4757376  77.5114413  23.3175090
  37.6494253  76.9460836  22.5648942  37.9686267  78.3115308  23.1354579
  23.2934336  69.5229083  31.3838648  22.7487804  70.2988891  31.5158923
  24.1713685  69.8699887  31.2257770  30.0821952  62.8540666  23.7619447
  30.2037863  61.9257313  23.9610334  29.7923995  62.8679352  22.8497762
  32.9513143  60.5395577  26.8986167  32.9734839  60.6034910  25.9438146
  33.3681202  59.7000086  27.0926673  43.3296767  70.2750836  24.9365389
  43.7727913  69.5258162  24.5384513  42.4523277  70.2660973  24.5539121
  38.4632548  76.8281178  20.4171988  39.1583453  77.4487871  20.6359302
  38.8055698  75.9776529  20.6924366  24.0800357  68.6498979  34.2768805
  23.3382093  68.7981614  34.8633436  23.7593102  68.9107244  33.4135555
  40.3623971  74.2780883  21.9459319  40.8875295  74.6168156  21.2208639
  40.2746324  73.3427899  21.7622453  32.0244020  78.1914957  34.0749195
  32.3331147  77.9464104  34.9471895  32.8219502  78.3961596  33.5868065
  32.0464632  80.3452867  26.3054572  31.6069622  79.8529245  26.9987428
  32.7972749  79.8025834  26.0646647  24.5256971  76.5364408  26.3079200
  25.3514991  76.2368179  25.9277843  24.1751023  75.7672030  26.7568988
  29.4938504  75.8890876  28.3776873  28.8718514  75.2261581  28.0779101
  30.1643371  75.9152008  27.6950521  22.7265576  74.4550734  27.2668133
  21.8897484  74.0272908  27.0852135  22.6989222  74.6483177  28.2038925
  29.5663032  64.3672664  37.9709379  29.6151187  65.2434787  37.5887149
  30.1085546  63.8250057  37.3981023  40.0517877  74.9113787  37.2510517
  39.2613421  74.8937926  36.7115016  39.8151232  75.4502081  38.0059553
  40.1715753  71.7606253  34.5643245  40.2213757  71.5956261  35.5058768
  40.0629676  70.8933512  34.1741126  29.0552011  74.4394799  21.8535334
  29.2040132  75.1230264  21.2002007  29.8618455  74.4199889  22.3684790
  37.4619515  67.7437181  35.8802552  38.3629378  67.6043646  35.5886550
  37.5367489  67.9091636  36.8200729  31.7962320  65.1204036  34.7255738
  30.9265630  65.4137602  34.4538327  32.0321801  65.7044481  35.4463002
  41.6733949  74.1803195  34.8085267  41.3818758  74.5433175  35.6448728
  41.0606081  73.4670203  34.6298599  42.8729632  71.7456075  27.3287837
  43.7076523  72.1845879  27.4925397  43.0088760  71.2694728  26.5096083
  39.9221138  69.3035810  33.2765325  40.3975259  69.4963456  32.4684176
  38.9986703  69.3594995  33.0308708  26.8104644  70.4659977  22.8596403
  26.5650686  69.5622307  23.0576613  26.9800559  70.4677127  21.9175881
  34.5001354  61.3383653  32.2421158  35.0183298  62.0744680  31.9167647
  34.1456487  61.6447646  33.0767918  26.0800292  66.1988334  20.3582564
  25.3869537  66.2732689  19.7022600  25.8352044  65.4348678  20.8804081
  34.7513948  57.7583936  27.7622055  35.0315702  57.0907125  28.3882482
  35.5364555  57.9513031  27.2496719  32.5547417  76.9342930  19.3247081
  31.9821384  77.5533117  18.8717553  33.1280210  77.4842291  19.8587003
  38.6222807  66.1801570  31.5093630  39.5740229  66.2799667  31.5305854
  38.4526257  65.3879838  32.0191715  36.6437186  63.2657153  31.6953031
  36.0487118  63.5462166  30.9999520  36.3586883  63.7551054  32.4669772
  35.7744677  77.2180080  20.4555664  36.7075350  77.1525641  20.6588539
  35.6867889  78.0536347  19.9970196  38.4032693  76.5345950  17.4159611
  38.3246325  76.2005814  18.3095369  39.2242360  77.0267718  17.4151084
  41.1010884  69.4007689  30.6235930  41.0687204  68.4623690  30.8095614
  41.7111508  69.4791726  29.8901755  32.9394215  68.2703742  16.6663134
  33.8853320  68.1409950  16.7351552  32.5608460  67.5318404  17.1432562
  41.2505373  66.1918733  30.6694213  40.7344422  65.4077189  30.4824142
  42.1345321  65.8637449  30.8340732  38.9116100  59.9359748  26.6290026
  38.7140921  59.6274837  27.5133358  39.5215805  60.6621387  26.7587956
  46.9187434  70.4623696  29.7641967  47.6490823  70.2008984  30.3249670
  46.3094380  69.7252418  29.8044035  45.0002731  68.6031559  30.3616418
  44.2735895  68.4687524  29.7532909  44.5850018  68.9108387  31.1673136
  32.8232908  72.3221488  38.1263791  33.7435917  72.5000087  38.3203837
  32.7882491  71.3777534  37.9743490  31.1237132  66.1953719  16.6018019
  30.2168588  65.8986831  16.6780733  31.4013113  65.8983537  15.7352305
  22.0415073  67.5160082  27.0517065  21.7217857  66.6625390  26.7591439
  21.4948501  67.7308660  27.8075033  25.8194980  70.2322523  30.7686572
  26.0380990  71.1639631  30.7874606  26.2320754  69.8730498  31.5541376
  32.7399198  60.7390608  22.7562260  31.9299926  60.3937693  23.1317506
  33.4283615  60.4298152  23.3449872  34.6689746  59.8168655  24.3786557
  35.2220785  60.2364109  25.0376580  34.9059833  58.8904403  24.4209513
  30.6922846  65.8055729  40.1589321  30.5919573  66.7550086  40.0901412
  30.4744388  65.4773968  39.2865391  29.8935917  63.0540654  16.7429998
  30.7555081  63.3795552  17.0025816  30.0786261  62.2672150  16.2303064
  21.9103333  71.1362994  29.0210187  21.2166804  70.7216946  28.5080141
  22.6576324  71.1783530  28.4243606  38.0468553  61.9269180  23.8865221
  37.4667223  62.5853984  23.5043274  37.7804486  61.1046525  23.4752639
  36.4972120  61.3274238  26.0886542  36.9971898  61.4390773  25.2800860
  37.1407728  61.0235291  26.7287350  30.5554116  69.2352868  38.9754383
  30.0721197  70.0353228  39.1818272  30.6415055  69.2460813  38.0221827
  23.8240075  71.0681247  26.8976202  23.8010763  71.1668935  25.9458085
  24.1340712  71.9146398  27.2193368  26.4827453  73.1257402  31.0122816
  27.4370707  73.0941345  30.9452748  26.2839977  72.6648026  31.8273042
  27.0726835  71.6958518  33.5793614  27.8919724  72.1902597  33.6028451
  27.3463643  70.7790487  33.5511182  36.8293432  64.0869271  22.9421570
  35.9419287  64.3718921  22.7241764  37.2447421  63.9263034  22.0948846
  40.1807968  64.1115792  26.6575909  40.9568358  64.6012244  26.9300526
  39.4556102  64.5373846  27.1147778  42.6180526  64.8243411  27.7149849
  43.2125017  64.5839147  27.0043158  42.6907110  64.1050542  28.3423386
  24.8377682  78.6677022  28.0293014  24.7032150  77.9077423  27.4631012
  24.4209744  79.3917922  27.5621803  35.9736645  73.8513945  17.0369590
  36.6772495  74.0563948  17.6527245  35.2499294  74.4190707  17.3018673
  36.8034455  69.6023807  23.1571860  36.7469657  70.0592358  22.3179492
  37.3562798  68.8414491  22.9794702  40.6139261  65.3913539  23.9821979
  40.3576195  64.9910174  24.8130187  39.9892129  66.1057333  23.8572118
  44.9251599  68.1309612  26.4893271  44.3651157  68.2002801  27.2624833
  44.3195102  67.9550596  25.7692767  27.9946808  79.5646339  28.2411457
  27.8779192  80.5091771  28.1390147  27.1739254  79.2619900  28.6297256
  37.8823342  74.2896475  19.0868050  38.7168946  73.8577673  18.9045524
  37.7207685  74.1178488  20.0144944  37.5369235  70.7928588  20.4524389
  37.4818038  70.6272859  19.5112833  36.9115290  71.5004621  20.6086579
  22.3261750  66.0296652  34.2785811  22.9720613  65.5195606  34.7673036
  22.1178901  66.7665334  34.8529236  34.8515142  73.0977500  39.7777952
  35.7206301  73.2718152  39.4164587  34.3721893  73.9171917  39.6553681
  30.8465360  60.2936697  20.0309707  30.8344030  61.2378537  20.1877978
  31.7388782  60.1106842  19.7369168  29.0201322  80.2174601  31.4567385
  29.9228569  80.2498211  31.7733880  28.7938692  79.2875052  31.4713721
  30.7754924  78.9705587  28.1177464  29.8250555  78.9707449  28.0041836
  31.0787410  78.2238322  27.6013499  34.6617479  56.8879474  24.2855644
  33.8949875  56.3337960  24.4312326  35.0728184  56.9601342  25.1469796
  26.6659241  63.1764269  38.3760825  27.5290702  62.8201074  38.5864150
  26.0924651  62.8378164  39.0636230  46.5107617  84.8066126  29.1823226
  47.1486027  84.6872873  28.4786566  46.3928460  85.7546970  29.2411178
  43.3197324  84.7593554  29.1184751  42.9815835  84.6434619  28.2305286
  44.1887092  84.3584719  29.0985757  39.1784139  86.6129030  25.1081642
  38.6149005  86.5218967  24.3397930  39.0636534  85.7928935  25.5884135
  43.8017107  85.9128406  35.0770957  43.7905748  85.5181204  34.2051460
  43.9637746  85.1794478  35.6704728  36.7248571  88.1080222  27.9465862
  37.5169863  87.7671047  27.5312162  36.9645222  88.2175197  28.8668016
  44.7583698  90.2799998  20.4196107  44.1071678  90.8654078  20.0330121
  45.5528061  90.8106193  20.4791144  38.6839325  87.3689135  20.8183241
  39.4570201  86.8218122  20.6796117  39.0364724  88.2333384  21.0297703
  40.5224368  88.6965517  34.0250141  40.2314234  89.6011148  33.9096807
  41.1581352  88.7382045  34.7394210  41.4480575  86.0742366  30.6151500
  42.0444147  85.8498388  29.9008463  41.5055546  85.3327111  31.2176948
  41.0205603  83.5281801  18.4501691  41.2731124  83.0063323  17.6885154
  40.0830162  83.3647947  18.5528375  46.0648886  82.5317580  26.2576434
  46.8511975  82.1137003  25.9066851  46.3287590  83.4363672  26.4258083
  46.2358963  87.9690430  20.9565091  45.6004796  88.0425056  21.6685996
  45.9056370  88.5584029  20.2784170  51.4657313  82.4692813  27.1609413
  52.1982485  81.8992030  27.3947242  50.7096669  82.0814413  27.6015918
  40.7401892  85.4309907  20.6526066  40.6238150  84.7554811  21.3207150
  40.8504152  84.9442281  19.8358219  43.0833433  84.8920054  24.3572755
  42.7191640  84.3650675  25.0685677  43.9400549  84.5018523  24.1839241
  48.9882733  76.1814387  31.6204021  48.6566058  77.0509798  31.3965236
  48.3928347  75.8650671  32.2998052  42.7238920  79.9209954  19.3534104
  42.8913322  80.7890190  19.7204575  42.5336089  80.0837236  18.4295393
  45.4814253  88.3826933  31.0199934  45.1814976  89.2851972  30.9115741
  45.1365312  88.1159116  31.8721087  38.9326734  84.8340730  27.0536639
  38.0077231  84.7016944  27.2614330  39.1811148  85.6134949  27.5506581
  48.8811397  80.9009473  28.6997372  47.9728274  80.8324882  28.4056133
  48.8298993  81.3781418  29.5279197  42.7028141  82.3767611  20.3380771
  42.5827766  82.8224662  21.1766251  42.0080729  82.7252929  19.7794309
  36.2935545  84.4774003  27.8880428  36.4227927  84.7308482  28.8019839
  35.6132997  85.0701711  27.5685083  40.4635033  95.1471253  23.9870902
  40.3859062  96.0979078  24.0659382  39.8596676  94.8017126  24.6445828
  42.9552263  82.3199119  36.6432269  42.1785597  82.8793039  36.6335133
  43.5942826  82.8055902  37.1647139  50.7473043  79.1025911  30.4775245
  50.1047423  79.3958445  29.8315040  50.2427972  78.9878832  31.2828442
  48.4013207  82.8489085  21.1661105  49.3131063  83.0816471  20.9908802
  47.8922854  83.4326129  20.6036183  41.2098635  85.1284572  36.2050236
  41.9513319  85.6669616  35.9285059  40.5035620  85.7550861  36.3621788
  46.6853974  87.2713712  34.8022397  47.0937331  86.8296123  34.0577030
  45.9631236  86.6966340  35.0556590  43.0385045  82.2086319  32.1755954
  43.8846240  82.6325733  32.3190603  42.9783682  81.5519944  32.8694517
  47.0082789  87.8314903  28.5574686  46.3791652  87.9960617  27.8550754
  46.6208451  88.2456513  29.3285650  50.8872021  88.7669341  25.9119050
  50.2023059  89.1468242  25.3616083  50.9715870  89.3764668  26.6450998
  46.1884490  79.8690688  33.8337128  45.9445422  80.6232748  33.2971404
  46.4644420  80.2476035  34.6684375  48.1422953  86.4129300  32.5114393
  48.3539848  87.0561060  31.8348775  48.0952701  85.5791617  32.0436324
  45.7449182  79.0247121  29.4150966  44.8833661  79.3228374  29.7067703
  45.7711616  79.2417520  28.4831998  42.5610751  87.5689311  25.8224771
  43.0249097  87.8477014  25.0329394  42.2967549  86.6672756  25.6397862
  39.4534832  87.1160793  28.7604535  40.0236189  87.5448061  28.1222019
  40.0442944  86.8343377  29.4588720  41.4979637  83.6912464  22.6314336
  42.2003680  84.1433507  23.0988263  41.1660266  83.0496282  23.2594230
  39.9459999  82.2824220  37.0065546  39.3158659  82.9640501  37.2400943
  39.8396086  82.1707302  36.0618684  35.2404971  81.9496016  27.9331470
  34.4504025  82.2053545  27.4571581  35.7316218  82.7644354  28.0383511
  49.2568781  89.2901255  30.6836751  50.0786224  88.8881443  30.4019432
  49.2531183  89.1869490  31.6352867  37.1919716  82.3140595  24.8914947
  36.3950880  82.4259290  25.4098442  36.9645309  82.6527248  24.0255837
  43.0225384  88.8385299  32.8397461  43.0869817  89.3005706  33.6755633
  42.3136308  88.2082664  32.9679771  33.5242674  82.2026507  30.3646461
  33.7750712  83.0873517  30.6304037  34.0602222  82.0231108  29.5921553
  57.3474774  85.6340004  27.0321722  56.5938482  85.0647402  26.8765727
  57.4822315  85.6002668  27.9792357  42.7373402  90.5053406  22.7076442
  42.6019076  91.3504942  23.1361289  43.2783214  90.7072684  21.9442375
  39.2240741  76.5844986  39.3690797  38.8307687  76.0311185  40.0438441
  40.0406882  76.8955565  39.7597314  36.1902799  88.0228844  23.2804367
  36.7027320  88.8172094  23.4309931  36.8425512  87.3255135  23.2137968
  37.9997684  91.1394601  25.3627120  38.1764312  92.0612565  25.1748104
  38.7954517  90.8253020  25.7921500  42.1408702  78.0002865  36.9611053
  42.8818416  78.6010018  36.8815516  42.3726625  77.2580503  36.4029096
  37.2850040  83.1859232  35.2389283  37.1703555  82.2844490  35.5396382
  36.4294558  83.4322929  34.8874100  44.3641878  91.1276973  36.8376784
  43.9205732  90.3413351  36.5197688  45.0259092  91.3156123  36.1720675
  39.1228999  92.6572774  31.3637462  39.6736424  92.5289838  30.5914456
  38.2840475  92.9567663  31.0132355  46.4623116  91.4079773  34.8658185
  46.4441591  92.2288654  34.3738454  47.3843036  91.2833848  35.0908326
  42.9196170  88.9223902  35.7081693  43.4524507  88.1612190  35.4781001
  42.3910251  88.6297554  36.4505848  46.0865865  74.0283968  31.2375335
  45.7430135  74.9185610  31.1614446  46.4544828  73.8385626  30.3744920
  34.1551716  86.3517499  24.0563937  34.9926938  86.7614507  23.8397645
  34.3329984  85.4116941  24.0264131  46.0516148  84.0192579  19.7447770
  45.5362771  84.7897184  19.9836158  45.7793456  83.3457715  20.3680832
  43.6363259  78.8642280  24.8033009  42.7804855  78.4749130  24.6238647
  44.0490211  78.9434241  23.9432794  45.1662406  76.3988623  29.2024568
  44.6627201  76.3618758  28.3892374  45.4593013  77.3081366  29.2621225
  41.4105292  76.4827353  28.2090750  42.2758288  76.2870162  27.8496640
  41.4782800  76.2537705  29.1360107  51.0250422  86.7724934  21.6800944
  50.2479865  86.4336093  21.2356106  51.7041903  86.7777557  21.0055909
  45.8402451  81.8919671  21.5707551  45.5352587  82.2065820  22.4217695
  46.7932893  81.9701091  21.6134884  44.2848883  88.0509895  23.2200505
  43.7570245  87.3162654  22.9073743  43.7836386  88.8284571  22.9740474
  49.2641729  86.2458915  28.3367552  48.6065403  86.9358176  28.4247680
  50.0682128  86.6355347  28.6801538  39.0167611  78.7129561  25.5807117
  39.5911363  78.4904742  24.8480310  39.6038593  78.7818255  26.3335718
  48.0747188  84.6003288  26.3871493  48.5879070  85.2333280  26.8893203
  48.7248412  84.0004483  26.0214853  39.3437198  80.7434022  19.6003002
  38.5074510  81.0808708  19.9212277  39.2041967  80.6083002  18.6630139
  41.3190278  75.5870810  24.3082186  40.6654691  75.2719827  23.6838801
  41.2770752  74.9646550  25.0342009  42.4301483  85.8690105  16.2235478
  41.5228545  85.6379358  16.4226627  42.9272515  85.0727724  16.4109460
  45.3369562  94.5787612  19.1432165  44.6631261  94.8819309  19.7517122
  45.7235384  95.3816692  18.7937622  44.5528019  82.0752743  28.6329834
  43.6350580  82.2967690  28.4751522  44.9688162  82.1499054  27.7741541
  45.3363066  83.4744159  23.7632514  46.0834885  83.9865556  23.4539636
  45.6054656  83.1528212  24.6236908  43.6089717  85.9702700  20.7459469
  42.7000936  85.6861733  20.8431938  43.6384800  86.3901778  19.8862775
  48.8408984  89.5809289  24.5150636  48.3871311  88.7400199  24.5715827
  48.2102951  90.2170688  24.8525416  47.7841904  80.5101275  25.7451304
  47.0464660  79.9978661  26.0761546  48.0368677  80.0701657  24.9334580
  47.2841923  91.4185786  25.4500454  47.5764898  91.9790843  24.7312820
  47.7940544  91.7114347  26.2053613  47.8853531  73.2877527  26.3393073
  48.1912408  72.4274891  26.0518988  48.6106136  73.8795147  26.1392067
  34.1777887  83.6908214  24.7274671  33.9802287  83.0977575  24.0025737
  33.6224551  83.3860424  25.4450610  42.1574611  83.5831320  26.8469264
  42.2123220  82.6305157  26.7711740  41.3465813  83.7390759  27.3310562
  43.3065804  87.5111443  18.0847547  42.8685234  86.7947302  17.6253184
  44.0476245  87.7387558  17.5232638  40.0966971  82.2008380  24.6059643
  39.2834836  82.5002551  25.0124835  40.5925965  81.8064069  25.3234125
  42.2475548  92.1966137  26.5393907  42.2051727  92.4226983  25.6102439
  43.1638247  91.9629512  26.6879709  45.6941182  82.6650205  33.4374537
  46.0490570  82.8921678  34.2969002  46.3413313  82.9968581  32.8151792
  51.4238919  85.7868640  24.1423866  51.2856818  85.9770236  23.2145055
  51.0675138  86.5488023  24.5991917  39.5881045  79.7726736  30.2220878
  40.2280425  79.6315495  29.5243841  38.7558576  79.4861249  29.8459480
  51.4508299  87.8545167  29.1535137  51.8844805  87.7620457  30.0018191
  52.1639880  87.8302668  28.5155153  40.3641349  89.0729166  26.3355870
  41.1581948  88.5779486  26.1338445  39.6533042  88.5447029  25.9723576
  45.1836194  91.4547262  30.6868238  45.2373216  92.0238198  31.4545954
  44.3150975  91.6249147  30.3222275  36.6724113  83.2172248  22.4115623
  35.7421701  83.1556703  22.6285585  36.7681585  82.6948201  21.6152264
  36.5909662  79.7427061  24.9993864  36.8516479  80.6572394  24.8903025
  37.4126834  79.2751503  25.1490477  38.0634587  81.1564818  32.1692689
  38.7357641  80.9482180  31.5205338  37.2364374  80.9586904  31.7297921
  52.3123848  87.8968868  31.6868023  52.5059738  88.8014679  31.9327297
  52.2124467  87.4376287  32.5206608  43.9660159  77.7826759  34.1858350
  43.3188074  78.4816708  34.0922826  44.7361174  78.2162903  34.5534598
  47.3738957  88.0475611  37.2608903  47.2224463  87.8186163  36.3438987
  47.3643637  89.0046212  37.2740248  44.1424293  85.6207524  32.2455170
  45.0716353  85.7718683  32.0724137  43.7215323  85.7091544  31.3903816
  42.9412625  89.6458188  30.0153707  42.8023711  89.2776972  30.8879645
  42.1527221  90.1605827  29.8437665  43.5360777  94.7467284  21.3579244
  43.7112533  94.2755328  22.1724866  42.8493565  95.3733051  21.5860504
  44.4917840  89.0239791  27.4042545  44.1567673  88.9840561  28.3000195
  43.9921786  88.3584507  26.9312955  38.4662084  84.4307421  32.9295126
  38.3281882  83.6987660  33.5306665  39.3767008  84.3416321  32.6479314
  47.4277032  86.3695825  17.6779605  46.8106203  85.6442653  17.5812657
  46.9593520  87.1305185  17.3346679  41.0944385  84.1427380  32.4178806
  41.8044004  83.5020572  32.3765424  41.0513693  84.3940275  33.3404987
  49.0831164  91.0794733  35.3385385  49.0243710  90.3953954  34.6715968
  49.4850682  91.8213723  34.8866011  39.8073319  81.1292598  34.2374445
  39.2710676  80.6783336  34.8896042  39.2190027  81.2638507  33.4944910
  38.1021862  97.8956647  28.1319104  38.3418461  98.5275171  28.8098122
  37.2591059  97.5444687  28.4184463  39.2175578  80.5881249  16.8000909
  38.3405044  80.4670050  16.4363156  39.6933331  79.7967328  16.5479798
  49.0848571  89.0434317  33.5699365  48.1975350  88.7060239  33.6925764
  49.6547122  88.3117349  33.8068130  30.7377718  85.3758409  26.8942416
  31.4248758  85.0620139  26.3063431  30.5825847  86.2799774  26.6209668
  35.5412440  80.2648606  31.3227440  35.4570629  79.6574275  30.5877850
  34.7195147  80.7557624  31.3236936  42.6149724  93.7035770  30.5360608
  42.5419896  94.5090741  31.0479912  42.1727117  93.9027736  29.7108629
  42.4039504  92.9407540  24.0463429  41.6207026  93.4829220  24.1401654
  43.1032249  93.4581519  24.4457671  45.7136154  78.7502169  26.6897635
  46.2104854  77.9972132  26.3698705  44.9423136  78.7866486  26.1240844
  53.5665911  84.4542535  28.3315926  53.5555788  85.3367250  27.9609859
  52.6983291  84.1014086  28.1370463  45.0748408  93.6022604  32.6918767
  45.7876380  94.2370069  32.6194668  44.5838437  93.6986470  31.8758768
  46.7965935  87.5073856  24.2636058  45.8622214  87.6275319  24.0940763
  46.9742603  86.6046323  23.9996068  42.2971123  80.8919552  26.4169319
  41.9268910  80.3390593  27.1050225  42.7930215  80.2877686  25.8644319
  50.1838486  83.3491176  24.7986092  50.6498938  84.1819167  24.7246395
  50.6345987  82.8836157  25.5031351  40.1260321  91.3517047  33.5124337
  40.8269781  91.9853530  33.6653732  39.6555436  91.6931779  32.7519977
  48.2514717  89.6934997  21.7972244  48.5274561  89.5791592  22.7066118
  47.3819216  89.2952482  21.7584418  48.1555149  75.7171763  28.8376994
  47.2418229  75.9475990  29.0059201  48.5848250  75.8010207  29.6891026
  47.9261607  83.9061655  31.3376888  47.2733058  84.1537562  30.6829340
  48.3041987  83.0925793  31.0039365  44.8868781  93.9421348  25.4405058
  45.0691176  93.1243004  25.9032810  45.7101767  94.1589040  25.0029948
  45.2210947  92.8689533  22.7020107  45.7498713  92.3581988  22.0890269
  45.4839166  92.5532063  23.5665640  43.9749180  84.6481466  37.8242925
  43.2989817  84.5475595  38.4945300  44.7976814  84.4920679  38.2878922
  35.7228039  90.8853402  30.4455440  36.3081476  90.1397090  30.5783344
  35.5252878  91.1957359  31.3292104  38.5766695  93.9204650  25.4617882
  37.9077070  94.4050777  24.9781923  38.4379564  94.1673870  26.3761261
  30.3145694  83.4559002  29.1659883  30.3529794  82.9222593  29.9597001
  29.8085987  82.9294208  28.5470860  42.7171963  95.9548393  32.0600541
  43.2690271  96.1180015  32.8249626  43.0578157  96.5452831  31.3880566
  37.6936456  78.3023543  32.6622426  37.7577783  79.1638374  32.2499823
  37.6303577  77.6897545  31.9294784  37.1688729  80.3746675  36.3095460
  37.7960768  79.9923753  36.9232984  36.3116648  80.1560877  36.6751152
  47.5682838  90.7809651  37.9149195  48.1122742  91.3939609  37.4204150
  46.9869682  91.3389229  38.4316208  33.9454272  82.1823105  22.2413815
  34.2407713  81.2733783  22.1880868  33.0442308  82.1610844  21.9194817
  45.8540351  93.9030369  29.0464223  45.7291490  93.1020109  28.5375168
  46.5119442  94.3976562  28.5578193  37.4748519  80.2579101  28.2241363
  36.7535105  80.8715069  28.0848837  38.2641775  80.7936866  28.1458009
  47.9175259  91.7039389  30.6743773  46.9705594  91.5844740  30.6022100
  48.2658032  90.8161887  30.7570034  40.2774832  77.5933528  34.4982015
  40.8009234  77.8395824  35.2608324  40.0587166  78.4253562  34.0785152
  35.6742113  79.8637202  22.3653140  35.3454820  78.9834581  22.1828246
  36.0281484  79.8084871  23.2529529  44.9221692  91.4992105  26.8748125
  44.7746655  90.5708812  27.0555695  45.7475186  91.5212196  26.3905201
  38.7883937  80.1510172  22.7328617  39.1280009  80.6796093  22.0107226
  39.2356057  80.4890578  23.5087184  48.5255814  92.3220664  27.9612998
  49.4502362  92.1163525  27.8237449  48.3571117  92.0737065  28.8702340
  41.4827377  78.5347223  32.1831685  41.1424198  77.7355036  32.5852365
  40.7766384  78.8348934  31.6108519  42.1343849  75.6196535  30.6359009
  42.9569918  75.1457013  30.5137899  42.3781913  76.3987019  31.1357695
  40.7752084  78.6484794  20.9321910  41.4960446  79.0266046  20.4285627
  40.1517388  79.3673670  21.0356888  44.9183207  79.3529943  21.8680243
  45.1346821  80.2354580  21.5669071  44.4377274  78.9616156  21.1385885
  39.6582428  82.3115656  28.4450987  39.5127009  82.6255959  29.3375269
  39.1807632  82.9300556  27.8921886  41.5178811  79.3018204  28.4931877
  41.5040380  78.4059297  28.1564175  42.2351239  79.3088868  29.1270163
  43.3704942  79.7355544  30.5385004  43.1122719  80.6572615  30.5369335
  42.8389982  79.3385979  31.2285468  48.3151130  92.8406331  23.3175090
  48.4888008  92.2752754  22.5648942  48.8080022  93.6407226  23.1354579
  34.1328090  84.8521000  31.3838648  33.5881558  85.6280808  31.5158923
  35.0107440  85.1991805  31.2257770  40.9215707  78.1832584  23.7619447
  41.0431618  77.2549230  23.9610334  40.6317749  78.1971270  22.8497762
  43.7906897  75.8687495  26.8986167  43.8128594  75.9326828  25.9438146
  44.2074956  75.0292003  27.0926673  54.1690521  85.6042754  24.9365389
  54.6121667  84.8550079  24.5384513  53.2917032  85.5952890  24.5539121
  49.3026303  92.1573096  20.4171988  49.9977207  92.7779788  20.6359302
  49.6449453  91.3068447  20.6924366  34.9194112  83.9790897  34.2768805
  34.1775848  84.1273532  34.8633436  34.5986856  84.2399162  33.4135555
  51.2017726  89.6072801  21.9459319  51.7269050  89.9460074  21.2208639
  51.1140078  88.6719816  21.7622453  42.8637775  93.5206875  34.0749195
  43.1724901  93.2756021  34.9471895  43.6613257  93.7253513  33.5868065
  42.8858387  95.6744784  26.3054572  42.4463377  95.1821163  26.9987428
  43.6366504  95.1317752  26.0646647  35.3650726  91.8656325  26.3079200
  36.1908746  91.5660097  25.9277843  35.0144778  91.0963948  26.7568988
  40.3332259  91.2182793  28.3776873  39.7112268  90.5553498  28.0779101
  41.0037126  91.2443925  27.6950521  33.5659331  89.7842652  27.2668133
  32.7291239  89.3564826  27.0852135  33.5382976  89.9775095  28.2038925
  40.4056786  79.6964581  37.9709379  40.4544942  80.5726704  37.5887149
  40.9479300  79.1541975  37.3981023  50.8911632  90.2405705  37.2510517
  50.1007176  90.2229844  36.7115016  50.6544987  90.7793998  38.0059553
  51.0109507  87.0898171  34.5643245  51.0607512  86.9248179  35.5058768
  50.9023430  86.2225430  34.1741126  39.8945766  89.7686717  21.8535334
  40.0433886  90.4522181  21.2002007  40.7012209  89.7491807  22.3684790
  48.3013269  83.0729099  35.8802552  49.2023132  82.9335564  35.5886550
  48.3761244  83.2383554  36.8200729  42.6356075  80.4495954  34.7255738
  41.7659384  80.7429520  34.4538327  42.8715555  81.0336399  35.4463002
  52.5127704  89.5095113  34.8085267  52.2212512  89.8725093  35.6448728
  51.8999835  88.7962121  34.6298599  53.7123386  87.0747992  27.3287837
  54.5470278  87.5137796  27.4925397  53.8482515  86.5986646  26.5096083
  50.7614892  84.6327727  33.2765325  51.2369014  84.8255374  32.4684176
  49.8380457  84.6886913  33.0308708  37.6498399  85.7951894  22.8596403
  37.4044441  84.8914224  23.0576613  37.8194313  85.7969045  21.9175881
  45.3395109  76.6675571  32.2421158  45.8577052  77.4036598  31.9167647
  44.9850241  76.9739564  33.0767918  36.9194046  81.5280252  20.3582564
  36.2263291  81.6024607  19.7022600  36.6745798  80.7640596  20.8804081
  45.5907703  73.0875853  27.7622055  45.8709457  72.4199042  28.3882482
  46.3758310  73.2804949  27.2496719  43.3941171  92.2634847  19.3247081
  42.8215138  92.8825034  18.8717553  43.9673965  92.8134209  19.8587003
  49.4616561  81.5093487  31.5093630  50.4133984  81.6091585  31.5305854
  49.2920011  80.7171756  32.0191715  47.4830941  78.5949071  31.6953031
  46.8880873  78.8754083  30.9999520  47.1980637  79.0842971  32.4669772
  46.6138431  92.5471997  20.4555664  47.5469104  92.4817559  20.6588539
  46.5261644  93.3828264  19.9970196  49.2426448  91.8637868  17.4159611
  49.1640079  91.5297731  18.3095369  50.0636114  92.3559636  17.4151084
  51.9404639  84.7299607  30.6235930  51.9080959  83.7915608  30.8095614
  52.5505263  84.8083644  29.8901755  43.7787970  83.5995660  16.6663134
  44.7247074  83.4701868  16.7351552  43.4002215  82.8610322  17.1432562
  52.0899127  81.5210650  30.6694213  51.5738176  80.7369107  30.4824142
  52.9739076  81.1929367  30.8340732  49.7509854  75.2651666  26.6290026
  49.5534675  74.9566754  27.5133358  50.3609560  75.9913305  26.7587956
  57.7581189  85.7915614  29.7641967  58.4884577  85.5300902  30.3249670
  57.1488134  85.0544336  29.8044035  55.8396486  83.9323476  30.3616418
  55.1129649  83.7979441  29.7532909  55.4243773  84.2400305  31.1673136
  43.6626662  87.6513406  38.1263791  44.5829672  87.8292005  38.3203837
  43.6276245  86.7069451  37.9743490  41.9630887  81.5245636  16.6018019
  41.0562342  81.2278749  16.6780733  42.2406868  81.2275454  15.7352305
  32.8808827  82.8452000  27.0517065  32.5611612  81.9917308  26.7591439
  32.3342255  83.0600578  27.8075033  36.6588735  85.5614441  30.7686572
  36.8774745  86.4931549  30.7874606  37.0714509  85.2022415  31.5541376
  43.5792953  76.0682526  22.7562260  42.7693681  75.7229611  23.1317506
  44.2677370  75.7590070  23.3449872  45.5083501  75.1460573  24.3786557
  46.0614540  75.5656026  25.0376580  45.7453587  74.2196321  24.4209513
  41.5316600  81.1347647  40.1589321  41.4313327  82.0842004  40.0901412
  41.3138142  80.8065885  39.2865391  40.7329672  78.3832572  16.7429998
  41.5948836  78.7087470  17.0025816  40.9180016  77.5964067  16.2303064
  32.7497087  86.4654911  29.0210187  32.0560559  86.0508864  28.5080141
  33.4970078  86.5075448  28.4243606  48.8862308  77.2561098  23.8865221
  48.3060977  77.9145902  23.5043274  48.6198241  76.4338443  23.4752639
  47.3365874  76.6566156  26.0886542  47.8365653  76.7682690  25.2800860
  47.9801482  76.3527209  26.7287350  41.3947870  84.5644785  38.9754383
  40.9114952  85.3645145  39.1818272  41.4808809  84.5752730  38.0221827
  34.6633830  86.3973165  26.8976202  34.6404518  86.4960852  25.9458085
  34.9734466  87.2438316  27.2193368  37.3221208  88.4549320  31.0122816
  38.2764461  88.4233262  30.9452748  37.1233731  87.9939944  31.8273042
  37.9120590  87.0250436  33.5793614  38.7313479  87.5194515  33.6028451
  38.1857398  86.1082404  33.5511182  47.6687186  79.4161188  22.9421570
  46.7813041  79.7010839  22.7241764  48.0841175  79.2554952  22.0948846
  51.0201722  79.4407709  26.6575909  51.7962112  79.9304162  26.9300526
  50.2949856  79.8665764  27.1147778  53.4574281  80.1535329  27.7149849
  54.0518772  79.9131065  27.0043158  53.5300864  79.4342459  28.3423386
  35.6771436  93.9968940  28.0293014  35.5425904  93.2369340  27.4631012
  35.2603499  94.7209839  27.5621803  46.8130399  89.1805863  17.0369590
  47.5166250  89.3855866  17.6527245  46.0893048  89.7482625  17.3018673
  47.6428210  84.9315724  23.1571860  47.5863411  85.3884276  22.3179492
  48.1956552  84.1706409  22.9794702  51.4533016  80.7205456  23.9821979
  51.1969950  80.3202092  24.8130187  50.8285884  81.4349250  23.8572118
  55.7645354  83.4601529  26.4893271  55.2044911  83.5294719  27.2624833
  55.1588857  83.2842514  25.7692767  38.8340562  94.8938257  28.2411457
  38.7172946  95.8383689  28.1390147  38.0133009  94.5911818  28.6297256
  48.7217097  89.6188392  19.0868050  49.5562701  89.1869591  18.9045524
  48.5601440  89.4470406  20.0144944  48.3762989  86.1220506  20.4524389
  48.3211793  85.9564777  19.5112833  47.7509044  86.8296539  20.6086579
  33.1655504  81.3588570  34.2785811  33.8114368  80.8487524  34.7673036
  32.9572655  82.0957252  34.8529236  45.6908896  88.4269417  39.7777952
  46.5600056  88.6010070  39.4164587  45.2115648  89.2463834  39.6553681
  41.6859115  75.6228615  20.0309707  41.6737784  76.5670455  20.1877978
  42.5782536  75.4398760  19.7369168  39.8595076  95.5466518  31.4567385
  40.7622323  95.5790129  31.7733880  39.6332447  94.6166969  31.4713721
  41.6148678  94.2997505  28.1177464  40.6644309  94.2999367  28.0041836
  41.9181165  93.5530240  27.6013499  45.5011234  72.2171391  24.2855644
  44.7343630  71.6629878  24.4312326  45.9121939  72.2893260  25.1469796
  37.5052995  78.5056187  38.3760825  38.3684457  78.1492992  38.5864150
  36.9318406  78.1670082  39.0636230  57.3501372 100.1358043  29.1823226
  57.9879782 100.0164791  28.4786566  57.2322215 101.0838887  29.2411178
  54.1591078 100.0885472  29.1184751  53.8209590  99.9726536  28.2305286
  55.0280846  99.6876637  29.0985757  50.0177894 101.9420948  25.1081642
  49.4542759 101.8510885  24.3397930  49.9030289 101.1220852  25.5884135
  54.6410861 101.2420323  35.0770957  54.6299502 100.8473122  34.2051460
  54.8031501 100.5086396  35.6704728  47.5642326 103.4372140  27.9465862
  48.3563618 103.0962964  27.5312162  47.8038976 103.5467115  28.8668016
  55.5977453 105.6091916  20.4196107  54.9465432 106.1945996  20.0330121
  56.3921815 106.1398111  20.4791144  49.5233080 102.6981053  20.8183241
  50.2963956 102.1510040  20.6796117  49.8758479 103.5625302  21.0297703
  51.3618122 104.0257435  34.0250141  51.0707988 104.9303066  33.9096807
  51.9975107 104.0673963  34.7394210  52.2874329 101.4034284  30.6151500
  52.8837901 101.1790306  29.9008463  52.3449301 100.6619029  31.2176948
  51.8599358  98.8573719  18.4501691  52.1124878  98.3355240  17.6885154
  50.9223917  98.6939864  18.5528375  56.9042640  97.8609497  26.2576434
  57.6905730  97.4428920  25.9066851  57.1681345  98.7655589  26.4258083
  57.0752718 103.2982348  20.9565091  56.4398551 103.3716974  21.6685996
  56.7450124 103.8875946  20.2784170  62.3051068  97.7984730  27.1609413
  63.0376240  97.2283947  27.3947242  61.5490423  97.4106331  27.6015918
  51.5795646 100.7601825  20.6526066  51.4631904 100.0846728  21.3207150
  51.6897906 100.2734199  19.8358219  53.9227187 100.2211972  24.3572755
  53.5585395  99.6942593  25.0685677  54.7794303  99.8310441  24.1839241
  59.8276488  91.5106305  31.6204021  59.4959813  92.3801716  31.3965236
  59.2322101  91.1942589  32.2998052  53.5632674  95.2501872  19.3534104
  53.7307077  96.1182108  19.7204575  53.3729843  95.4129153  18.4295393
  56.3208007 103.7118851  31.0199934  56.0208731 104.6143889  30.9115741
  55.9759067 103.4451034  31.8721087  49.7720489 100.1632647  27.0536639
  48.8470985 100.0308862  27.2614330  50.0204902 100.9426867  27.5506581
  59.7205151  96.2301391  28.6997372  58.8122029  96.1616799  28.4056133
  59.6692747  96.7073336  29.5279197  53.5421895  97.7059529  20.3380771
  53.4221520  98.1516580  21.1766251  52.8474484  98.0544847  19.7794309
  47.1329300  99.8065921  27.8880428  47.2621681 100.0600400  28.8019839
  46.4526751 100.3993629  27.5685083  53.7946017  97.6491036  36.6432269
  53.0179351  98.2084956  36.6335133  54.4336580  98.1347819  37.1647139
  61.5866798  94.4317829  30.4775245  60.9441178  94.7250362  29.8315040
  61.0821726  94.3170749  31.2828442  59.2406961  98.1781002  21.1661105
  60.1524817  98.4108389  20.9908802  58.7316608  98.7618047  20.6036183
  52.0492389 100.4576490  36.2050236  52.7907074 100.9961534  35.9285059
  51.3429375 101.0842778  36.3621788  57.5247729 102.6005630  34.8022397
  57.9331085 102.1588041  34.0577030  56.8024990 102.0258258  35.0556590
  53.8778799  97.5378237  32.1755954  54.7239994  97.9617650  32.3190603
  53.8177437  96.8811861  32.8694517  57.8476544 103.1606821  28.5574686
  57.2185406 103.3252535  27.8550754  57.4602206 103.5748430  29.3285650
  61.7265776 104.0961259  25.9119050  61.0416814 104.4760160  25.3616083
  61.8109625 104.7056585  26.6450998  57.0278244  95.1982605  33.8337128
  56.7839176  95.9524666  33.2971404  57.3038175  95.5767953  34.6684375
  58.9816707 101.7421218  32.5114393  59.1933602 102.3852978  31.8348775
  58.9346455 100.9083534  32.0436324  56.5842936  94.3539038  29.4150966
  55.7227415  94.6520292  29.7067703  56.6105371  94.5709437  28.4831998
  53.4004506 102.8981229  25.8224771  53.8642851 103.1768932  25.0329394
  53.1361304 101.9964673  25.6397862  50.2928587 102.4452710  28.7604535
  50.8629944 102.8739979  28.1222019  50.8836698 102.1635295  29.4588720
  52.3373392  99.0204381  22.6314336  53.0397435  99.4725425  23.0988263
  52.0054020  98.3788200  23.2594230  50.7853753  97.6116138  37.0065546
  50.1552414  98.2932419  37.2400943  50.6789841  97.4999219  36.0618684
  46.0798726  97.2787934  27.9331470  45.2897780  97.5345462  27.4571581
  46.5709973  98.0936272  28.0383511  60.0962535 104.6193173  30.6836751
  60.9179979 104.2173360  30.4019432  60.0924938 104.5161407  31.6352867
  48.0313471  97.6432513  24.8914947  47.2344634  97.7551207  25.4098442
  47.8039063  97.9819165  24.0255837  53.8619139 104.1677216  32.8397461
  53.9263571 104.6297624  33.6755633  53.1530062 103.5374581  32.9679771
  44.3636429  97.5318424  30.3646461  44.6144467  98.4165434  30.6304037
  44.8995977  97.3523026  29.5921553  68.1868528 100.9631922  27.0321722
  67.4332237 100.3939320  26.8765727  68.3216069 100.9294586  27.9792357
  53.5767156 105.8345324  22.7076442  53.4412831 106.6796860  23.1361289
  54.1176969 106.0364602  21.9442375  50.0634496  91.9136904  39.3690797
  49.6701441  91.3603102  40.0438441  50.8800636  92.2247482  39.7597314
  47.0296554 103.3520762  23.2804367  47.5421074 104.1464012  23.4309931
  47.6819266 102.6547052  23.2137968  48.8391438 106.4686518  25.3627120
  49.0158067 107.3904483  25.1748104  49.6348272 106.1544937  25.7921500
  52.9802457  93.3294783  36.9611053  53.7212170  93.9301936  36.8815516
  53.2120380  92.5872421  36.4029096  48.1243795  98.5151150  35.2389283
  48.0097310  97.6136407  35.5396382  47.2688313  98.7614847  34.8874100
  55.2035633 106.4568890  36.8376784  54.7599487 105.6705269  36.5197688
  55.8652846 106.6448041  36.1720675  49.9622754 107.9864692  31.3637462
  50.5130179 107.8581755  30.5914456  49.1234230 108.2859581  31.0132355
  57.3016871 106.7371690  34.8658185  57.2835346 107.5580571  34.3738454
  58.2236791 106.6125766  35.0908326  53.7589925 104.2515820  35.7081693
  54.2918262 103.4904108  35.4781001  53.2304006 103.9589472  36.4505848
  56.9259620  89.3575886  31.2375335  56.5823889  90.2477527  31.1614446
  57.2938582  89.1677543  30.3744920  44.9945470 101.6809416  24.0563937
  45.8320692 102.0906425  23.8397645  45.1723738 100.7408858  24.0264131
  56.8909902  99.3484497  19.7447770  56.3756526 100.1189102  19.9836158
  56.6187211  98.6749633  20.3680832  54.4757014  94.1934198  24.8033009
  53.6198610  93.8041048  24.6238647  54.8883965  94.2726158  23.9432794
  56.0056160  91.7280541  29.2024568  55.5020956  91.6910676  28.3892374
  56.2986767  92.6373284  29.2621225  52.2499046  91.8119271  28.2090750
  53.1152043  91.6162079  27.8496640  52.3176555  91.5829622  29.1360107
  61.8644177 102.1016852  21.6800944  61.0873619 101.7628011  21.2356106
  62.5435658 102.1069475  21.0055909  56.6796206  97.2211589  21.5707551
  56.3746341  97.5357738  22.4217695  57.6326648  97.2993009  21.6134884
  55.1242637 103.3801812  23.2200505  54.5963999 102.6454572  22.9073743
  54.6230140 104.1576489  22.9740474  60.1035484 101.5750833  28.3367552
  59.4459158 102.2650094  28.4247680  60.9075883 101.9647265  28.6801538
  49.8561365  94.0421479  25.5807117  50.4305117  93.8196660  24.8480310
  50.4432348  94.1110173  26.3335718  58.9140942  99.9295205  26.3871493
  59.4272824 100.5625197  26.8893203  59.5642166  99.3296401  26.0214853
  50.1830952  96.0725940  19.6003002  49.3468264  96.4100626  19.9212277
  50.0435722  95.9374919  18.6630139  52.1584033  90.9162727  24.3082186
  51.5048445  90.6011745  23.6838801  52.1164507  90.2938468  25.0342009
  53.2695238 101.1982023  16.2235478  52.3622299 100.9671276  16.4226627
  53.7666270 100.4019642  16.4109460  55.3921773  97.4044661  28.6329834
  54.4744335  97.6259608  28.4751522  55.8081917  97.4790971  27.7741541
  56.1756821  98.8036077  23.7632514  56.9228640  99.3157474  23.4539636
  56.4448410  98.4820129  24.6236908  54.4483471 101.2994617  20.7459469
  53.5394690 101.0153650  20.8431938  54.4778555 101.7193696  19.8862775
  59.6802739 104.9101207  24.5150636  59.2265066 104.0692117  24.5715827
  59.0496705 105.5462605  24.8525416  58.6235658  95.8393193  25.7451304
  57.8858415  95.3270579  26.0761546  58.8762432  95.3993575  24.9334580
  58.1235678 106.7477704  25.4500454  58.4158652 107.3082761  24.7312820
  58.6334298 107.0406265  26.2053613  58.7247285  88.6169445  26.3393073
  59.0306162  87.7566808  26.0518988  59.4499890  89.2087065  26.1392067
  45.0171641  99.0200132  24.7274671  44.8196041  98.4269492  24.0025737
  44.4618305  98.7152342  25.4450610  52.9968365  98.9123238  26.8469264
  53.0516975  97.9597074  26.7711740  52.1859567  99.0682677  27.3310562
  54.1459559 102.8403361  18.0847547  53.7078989 102.1239220  17.6253184
  54.8870000 103.0679476  17.5232638  50.9360725  97.5300298  24.6059643
  50.1228591  97.8294468  25.0124835  51.4319719  97.1355987  25.3234125
  53.0869303 107.5258055  26.5393907  53.0445482 107.7518901  25.6102439
  54.0032002 107.2921429  26.6879709  56.5334937  97.9942122  33.4374537
  56.8884324  98.2213595  34.2969002  57.1807068  98.3260499  32.8151792
  62.2632674 101.1160558  24.1423866  62.1250572 101.3062154  23.2145055
  61.9068893 101.8779941  24.5991917  50.4274800  95.1018653  30.2220878
  51.0674179  94.9607412  29.5243841  49.5952330  94.8153167  29.8459480
  62.2902053 103.1837085  29.1535137  62.7238560 103.0912374  30.0018191
  63.0033634 103.1594586  28.5155153  51.2035104 104.4021084  26.3355870
  51.9975702 103.9071404  26.1338445  50.4926796 103.8738947  25.9723576
  56.0229948 106.7839179  30.6868238  56.0766970 107.3530116  31.4545954
  55.1544730 106.9541064  30.3222275  47.5117867  98.5464165  22.4115623
  46.5815455  98.4848621  22.6285585  47.6075339  98.0240118  21.6152264
  47.4303416  95.0718978  24.9993864  47.6910234  95.9864312  24.8903025
  48.2520589  94.6043421  25.1490477  48.9028342  96.4856735  32.1692689
  49.5751395  96.2774098  31.5205338  48.0758128  96.2878821  31.7297921
  63.1517603 103.2260786  31.6868023  63.3453493 104.1306596  31.9327297
  63.0518221 102.7668205  32.5206608  54.8053914  93.1118676  34.1858350
  54.1581829  93.8108626  34.0922826  55.5754929  93.5454820  34.5534598
  58.2132712 103.3767529  37.2608903  58.0618218 103.1478080  36.3438987
  58.2037391 104.3338130  37.2740248  54.9818048 100.9499441  32.2455170
  55.9110108 101.1010601  32.0724137  54.5609078 101.0383462  31.3903816
  53.7806380 104.9750106  30.0153707  53.6417465 104.6068890  30.8879645
  52.9920976 105.4897745  29.8437665  54.3754532 110.0759202  21.3579244
  54.5506287 109.6047245  22.1724866  53.6887320 110.7024968  21.5860504
  55.3311595 104.3531708  27.4042545  54.9961427 104.3132478  28.3000195
  54.8315541 103.6876424  26.9312955  49.3055839  99.7599338  32.9295126
  49.1675637  99.0279577  33.5306665  50.2160762  99.6708239  32.6479314
  51.9338139  99.4719298  32.4178806  52.6437758  98.8312490  32.3765424
  51.8907448  99.7232193  33.3404987  59.9224918 106.4086651  35.3385385
  59.8637464 105.7245871  34.6715968  60.3244437 107.1505641  34.8866011
  50.6467073  96.4584516  34.2374445  50.1104430  96.0075254  34.8896042
  50.0583782  96.5930424  33.4944910  50.0569332  95.9173167  16.8000909
  49.1798799  95.7961968  16.4363156  50.5327085  95.1259245  16.5479798
  59.9242325 104.3726235  33.5699365  59.0369104 104.0352157  33.6925764
  60.4940877 103.6409266  33.8068130  41.5771473 100.7050327  26.8942416
  42.2642512 100.3912057  26.3063431  41.4219601 101.6091691  26.6209668
  46.3806195  95.5940523  31.3227440  46.2964383  94.9866193  30.5877850
  45.5588901  96.0849542  31.3236936  53.4543479 109.0327687  30.5360608
  53.3813650 109.8382659  31.0479912  53.0120872 109.2319653  29.7108629
  53.2433258 108.2699457  24.0463429  52.4600780 108.8121138  24.1401654
  53.9426004 108.7873437  24.4457671  56.5529909  94.0794087  26.6897635
  57.0498608  93.3264049  26.3698705  55.7816890  94.1158404  26.1240844
  64.4059666  99.7834452  28.3315926  64.3949542 100.6659168  27.9609859
  63.5377045  99.4306003  28.1370463  55.9142162 108.9314521  32.6918767
  56.6270135 109.5661986  32.6194668  55.4232191 109.0278387  31.8758768
  57.6359689 102.8365774  24.2636058  56.7015968 102.9567237  24.0940763
  57.8136358 101.9338241  23.9996068  53.1364877  96.2211470  26.4169319
  52.7662665  95.6682510  27.1050225  53.6323970  95.6169603  25.8644319
  61.0232241  98.6783093  24.7986092  61.4892693  99.5111085  24.7246395
  61.4739741  98.2128075  25.5031351  50.9654076 106.6808965  33.5124337
  51.6663535 107.3145448  33.6653732  50.4949191 107.0223696  32.7519977
  59.0908472 105.0226915  21.7972244  59.3668316 104.9083509  22.7066118
  58.2212970 104.6244399  21.7584418  58.9948903  91.0463680  28.8376994
  58.0811983  91.2767907  29.0059201  59.4242005  91.1302124  29.6891026
  58.7655362  99.2353572  31.3376888  58.1126812  99.4829480  30.6829340
  59.1435742  98.4217710  31.0039365  55.7262536 109.2713265  25.4405058
  55.9084930 108.4534921  25.9032810  56.5495522 109.4880958  25.0029948
  56.0604701 108.1981451  22.7020107  56.5892468 107.6873905  22.0890269
  56.3232921 107.8823981  23.5665640  54.8142935  99.9773383  37.8242925
  54.1383572  99.8767513  38.4945300  55.6370569  99.8212597  38.2878922
  46.5621794 106.2145320  30.4455440  47.1475231 105.4689008  30.5783344
  46.3646632 106.5249277  31.3292104  41.1539449  98.7850920  29.1659883
  41.1923548  98.2514511  29.9597001  40.6479742  98.2586126  28.5470860
  48.5330211  93.6315461  32.6622426  48.5971537  94.4930292  32.2499823
  48.4697331  93.0189462  31.9294784  48.0082484  95.7038593  36.3095460
  48.6354522  95.3215670  36.9232984  47.1510402  95.4852795  36.6751152
  58.4076592 106.1101568  37.9149195  58.9516496 106.7231527  37.4204150
  57.8263437 106.6681147  38.4316208  44.7848026  97.5115022  22.2413815
  45.0801467  96.6025701  22.1880868  43.8836062  97.4902762  21.9194817
  56.6934105 109.2322286  29.0464223  56.5685244 108.4312026  28.5375168
  57.3513196 109.7268480  28.5578193  48.3142273  95.5871019  28.2241363
  47.5928859  96.2006987  28.0848837  49.1035529  96.1228784  28.1458009
  58.7569013 107.0331306  30.6743773  57.8099349 106.9136658  30.6022100
  59.1051787 106.1453804  30.7570034  51.1168587  92.9225445  34.4982015
  51.6402989  93.1687742  35.2608324  50.8980920  93.7545480  34.0785152
  46.5135868  95.1929120  22.3653140  46.1848574  94.3126499  22.1828246
  46.8675239  95.1376789  23.2529529  55.7615447 106.8284023  26.8748125
  55.6140409 105.9000730  27.0555695  56.5868940 106.8504113  26.3905201
  49.6277691  95.4802090  22.7328617  49.9673764  96.0088011  22.0107226
  50.0749811  95.8182496  23.5087184  59.3649569 107.6512581  27.9612998
  60.2896116 107.4455443  27.8237449  59.1964872 107.4028983  28.8702340
  52.3221132  93.8639140  32.1831685  51.9817952  93.0646954  32.5852365
  51.6160138  94.1640851  31.6108519  52.9737604  90.9488453  30.6359009
  53.7963673  90.4748931  30.5137899  53.2175667  91.7278937  31.1357695
  51.6145838  93.9776711  20.9321910  52.3354201  94.3557964  20.4285627
  50.9911142  94.6965588  21.0356888  55.7576961  94.6821860  21.8680243
  55.9740575  95.5646498  21.5669071  55.2771028  94.2908074  21.1385885
  50.4976182  97.6407574  28.4450987  50.3520763  97.9547877  29.3375269
  50.0201386  98.2592474  27.8921886  52.3572565  94.6310122  28.4931877
  52.3434134  93.7351215  28.1564175  53.0744993  94.6380785  29.1270163
  54.2098696  95.0647462  30.5385004  53.9516474  95.9864532  30.5369335
  53.6783736  94.6677896  31.2285468  59.1544885 108.1698249  23.3175090
  59.3281762 107.6044671  22.5648942  59.6473776 108.9699144  23.1354579
  44.9721845 100.1812918  31.3838648  44.4275313 100.9572726  31.5158923
  45.8501194 100.5283722  31.2257770  51.7609461  93.5124502  23.7619447
  51.8825372  92.5841148  23.9610334  51.4711504  93.5263188  22.8497762
  54.6300652  91.1979412  26.8986167  54.6522348  91.2618745  25.9438146
  55.0468711  90.3583921  27.0926673  65.0084276 100.9334672  24.9365389
  65.4515422 100.1841997  24.5384513  64.1310786 100.9244808  24.5539121
  45.7587866  99.3082814  34.2768805  45.0169602  99.4565450  34.8633436
  45.4380611  99.5691080  33.4135555  62.0411480 104.9364719  21.9459319
  62.5662804 105.2751992  21.2208639  61.9533833 104.0011734  21.7622453
  53.7031529 108.8498792  34.0749195  54.0118656 108.6047939  34.9471895
  54.5007011 109.0545431  33.5868065  53.7252141 111.0036702  26.3054572
  53.2857131 110.5113081  26.9987428  54.4760258 110.4609670  26.0646647
  46.2044480 107.1948243  26.3079200  47.0302500 106.8952015  25.9277843
  45.8538532 106.4255865  26.7568988  51.1726013 106.5474711  28.3776873
  50.5506023 105.8845416  28.0779101  51.8430880 106.5735843  27.6950521
  44.4053085 105.1134569  27.2668133  43.5684993 104.6856744  27.0852135
  44.3776731 105.3067013  28.2038925  51.2450541  95.0256499  37.9709379
  51.2938696  95.9018622  37.5887149  51.7873055  94.4833892  37.3981023
  61.7305386 105.5697622  37.2510517  60.9400930 105.5521761  36.7115016
  61.4938741 106.1085916  38.0059553  61.8503262 102.4190089  34.5643245
  61.9001266 102.2540096  35.5058768  61.7417185 101.5517348  34.1741126
  50.7339520 105.0978634  21.8535334  50.8827641 105.7814099  21.2002007
  51.5405964 105.0783725  22.3684790  59.1407024  98.4021017  35.8802552
  60.0416887  98.2627482  35.5886550  59.2154998  98.5675472  36.8200729
  53.4749829  95.7787872  34.7255738  52.6053139  96.0721438  34.4538327
  53.7109310  96.3628317  35.4463002  63.3521458 104.8387030  34.8085267
  63.0606267 105.2017011  35.6448728  62.7393590 104.1254039  34.6298599
  64.5517141 102.4039910  27.3287837  65.3864032 102.8429714  27.4925397
  64.6876269 101.9278563  26.5096083  61.6008647  99.9619645  33.2765325
  62.0762768 100.1547291  32.4684176  60.6774212 100.0178831  33.0308708
  48.4892153 101.1243812  22.8596403  48.2438195 100.2206142  23.0576613
  48.6588068 101.1260963  21.9175881  56.1788863  91.9967488  32.2421158
  56.6970807  92.7328515  31.9167647  55.8243996  92.3031482  33.0767918
  47.7587801  96.8572170  20.3582564  47.0657046  96.9316525  19.7022600
  47.5139553  96.0932513  20.8804081  56.4301457  88.4167771  27.7622055
  56.7103211  87.7490960  28.3882482  57.2152064  88.6096867  27.2496719
  60.3010316  96.8385405  31.5093630  61.2527738  96.9383503  31.5305854
  60.1313766  96.0463674  32.0191715  58.3224695  93.9240988  31.6953031
  57.7274627  94.2046001  30.9999520  58.0374392  94.4134889  32.4669772
  62.7798393 100.0591525  30.6235930  62.7474713  99.1207525  30.8095614
  63.3899017 100.1375561  29.8901755  54.6181724  98.9287578  16.6663134
  55.5640829  98.7993786  16.7351552  54.2395969  98.1902240  17.1432562
  62.9292882  96.8502568  30.6694213  62.4131930  96.0661025  30.4824142
  63.8132830  96.5221285  30.8340732  60.5903609  90.5943584  26.6290026
  60.3928430  90.2858672  27.5133358  61.2003314  91.3205223  26.7587956
  68.5974943 101.1207532  29.7641967  69.3278332 100.8592820  30.3249670
  67.9881889 100.3836253  29.8044035  66.6790240  99.2615394  30.3616418
  65.9523404  99.1271359  29.7532909  66.2637527  99.5692223  31.1673136
  54.5020417 102.9805324  38.1263791  55.4223426 103.1583923  38.3203837
  54.4670000 102.0361369  37.9743490  52.8024641  96.8537554  16.6018019
  51.8956097  96.5570667  16.6780733  53.0800622  96.5567372  15.7352305
  43.7202582  98.1743917  27.0517065  43.4005366  97.3209226  26.7591439
  43.1736010  98.3892496  27.8075033  47.4982489 100.8906358  30.7686572
  47.7168499 101.8223466  30.7874606  47.9108263 100.5314333  31.5541376
  54.4186707  91.3974444  22.7562260  53.6087435  91.0521529  23.1317506
  55.1071124  91.0881988  23.3449872  56.3477255  90.4752491  24.3786557
  56.9008294  90.8947944  25.0376580  56.5847342  89.5488239  24.4209513
  52.3710355  96.4639564  40.1589321  52.2707082  97.4133921  40.0901412
  52.1531897  96.1357803  39.2865391  51.5723426  93.7124489  16.7429998
  52.4342590  94.0379388  17.0025816  51.7573770  92.9255985  16.2303064
  43.5890842 101.7946829  29.0210187  42.8954313 101.3800782  28.5080141
  44.3363833 101.8367365  28.4243606  59.7256062  92.5853016  23.8865221
  59.1454732  93.2437820  23.5043274  59.4591995  91.7630360  23.4752639
  58.1759629  91.9858073  26.0886542  58.6759407  92.0974608  25.2800860
  58.8195237  91.6819126  26.7287350  52.2341625  99.8936703  38.9754383
  51.7508706 100.6937063  39.1818272  52.3202564  99.9044648  38.0221827
  45.5027584 101.7265083  26.8976202  45.4798272 101.8252770  25.9458085
  45.8128221 102.5730234  27.2193368  48.1614962 103.7841238  31.0122816
  49.1158216 103.7525180  30.9452748  47.9627486 103.3231862  31.8273042
  48.7514344 102.3542354  33.5793614  49.5707233 102.8486432  33.6028451
  49.0251152 101.4374322  33.5511182  58.5080940  94.7453106  22.9421570
  57.6206796  95.0302757  22.7241764  58.9234930  94.5846869  22.0948846
  61.8595477  94.7699627  26.6575909  62.6355867  95.2596080  26.9300526
  61.1343611  95.1957681  27.1147778  64.2968035  95.4827246  27.7149849
  64.8912526  95.2422982  27.0043158  64.3694619  94.7634377  28.3423386
  58.4821964 100.2607642  23.1571860  58.4257166 100.7176193  22.3179492
  59.0350307  99.4998327  22.9794702  62.2926770  96.0497374  23.9821979
  62.0363704  95.6494010  24.8130187  61.6679638  96.7641168  23.8572118
  66.6039108  98.7893447  26.4893271  66.0438666  98.8586636  27.2624833
  65.9982611  98.6134432  25.7692767  59.2156744 101.4512423  20.4524389
  59.1605547 101.2856695  19.5112833  58.5902799 102.1588456  20.6086579
  44.0049259  96.6880488  34.2785811  44.6508122  96.1779442  34.7673036
  43.7966410  97.4249169  34.8529236  56.5302651 103.7561335  39.7777952
  57.3993810 103.9301987  39.4164587  56.0509402 104.5755752  39.6553681
  52.5252869  90.9520532  20.0309707  52.5131539  91.8962372  20.1877978
  53.4176291  90.7690678  19.7369168  52.4542433 109.6289423  28.1177464
  51.5038064 109.6291284  28.0041836  52.7574919 108.8822157  27.6013499
  56.3404988  87.5463309  24.2855644  55.5737384  86.9921796  24.4312326
  56.7515693  87.6185178  25.1469796  48.3446750  93.8348105  38.3760825
  49.2078211  93.4784910  38.5864150  47.7712160  93.4962000  39.0636230
  70.6670242 106.8398222  31.6204021  70.3353567 107.7093633  31.3965236
  70.0715856 106.5234506  32.2998052  70.5598906 111.5593308  28.6997372
  69.6515783 111.4908717  28.4056133  70.5086502 112.0365253  29.5279197
  64.6339772 112.9782954  36.6432269  63.8573106 113.5376874  36.6335133
  65.2730335 113.4639737  37.1647139  72.4260552 109.7609747  30.4775245
  71.7834932 110.0542280  29.8315040  71.9215481 109.6462667  31.2828442
  64.7172554 112.8670155  32.1755954  65.5633749 113.2909568  32.3190603
  64.6571191 112.2103779  32.8694517  67.8671999 110.5274523  33.8337128
  67.6232931 111.2816584  33.2971404  68.1431929 110.9059871  34.6684375
  67.4236691 109.6830956  29.4150966  66.5621170 109.9812210  29.7067703
  67.4499125 109.9001355  28.4831998  61.6247508 112.9408056  37.0065546
  60.9946168 113.6224336  37.2400943  61.5183595 112.8291137  36.0618684
  60.9028250 107.2428821  39.3690797  60.5095196 106.6895020  40.0438441
  61.7194391 107.5539400  39.7597314  63.8196211 108.6586700  36.9611053
  64.5605925 109.2593854  36.8815516  64.0514134 107.9164338  36.4029096
  67.7653374 104.6867803  31.2375335  67.4217644 105.5769445  31.1614446
  68.1332337 104.4969461  30.3744920  66.8449915 107.0572459  29.2024568
  66.3414710 107.0202594  28.3892374  67.1380521 107.9665201  29.2621225
  63.0892801 107.1411188  28.2090750  63.9545797 106.9453997  27.8496640
  63.1570309 106.9121540  29.1360107  60.6955120 109.3713396  25.5807117
  61.2698871 109.1488578  24.8480310  61.2826102 109.4402091  26.3335718
  62.9977787 106.2454645  24.3082186  62.3442200 105.9303662  23.6838801
  62.9558261 105.6230386  25.0342009  66.2315528 112.7336579  28.6329834
  65.3138089 112.9551526  28.4751522  66.6475671 112.8082889  27.7741541
  69.5641040 103.9461363  26.3393073  69.8699917 103.0858726  26.0518988
  70.2893645 104.5378983  26.1392067  63.8362120 114.2415156  26.8469264
  63.8910729 113.2888992  26.7711740  63.0253322 114.3974595  27.3310562
  67.3728691 113.3234040  33.4374537  67.7278079 113.5505513  34.2969002
  68.0200822 113.6552417  32.8151792  61.2668554 110.4310571  30.2220878
  61.9067934 110.2899330  29.5243841  60.4346085 110.1445084  29.8459480
  58.2697171 110.4010896  24.9993864  58.5303988 111.3156229  24.8903025
  59.0914343 109.9335339  25.1490477  59.7422096 111.8148653  32.1692689
  60.4145149 111.6066015  31.5205338  58.9151883 111.6170739  31.7297921
  65.6447668 108.4410594  34.1858350  64.9975583 109.1400544  34.0922826
  66.4148683 108.8746738  34.5534598  61.4860828 111.7876433  34.2374445
  60.9498185 111.3367172  34.8896042  60.8977536 111.9222342  33.4944910
  57.2199949 110.9232441  31.3227440  57.1358138 110.3158111  30.5877850
  56.3982656 111.4141459  31.3236936  67.3923663 109.4086005  26.6897635
  67.8892363 108.6555967  26.3698705  66.6210645 109.4450321  26.1240844
  63.9758632 111.5503388  26.4169319  63.6056419 110.9974428  27.1050225
  64.4717724 110.9461521  25.8644319  69.8342658 106.3755598  28.8376994
  68.9205738 106.6059825  29.0059201  70.2635759 106.4594042  29.6891026
  69.6049116 114.5645490  31.3376888  68.9520567 114.8121397  30.6829340
  69.9829496 113.7509628  31.0039365  65.6536689 115.3065301  37.8242925
  64.9777326 115.2059430  38.4945300  66.4764323 115.1504515  38.2878922
  59.3723965 108.9607378  32.6622426  59.4365292 109.8222209  32.2499823
  59.3091086 108.3481380  31.9294784  58.8476238 111.0330511  36.3095460
  59.4748277 110.6507588  36.9232984  57.9904157 110.8144713  36.6751152
  59.1536028 110.9162937  28.2241363  58.4322614 111.5298904  28.0848837
  59.9429284 111.4520701  28.1458009  61.9562341 108.2517363  34.4982015
  62.4796743 108.4979660  35.2608324  61.7374675 109.0837398  34.0785152
  57.3529622 110.5221038  22.3653140  57.0242329 109.6418417  22.1828246
  57.7068993 110.4668706  23.2529529  63.1614886 109.1931058  32.1831685
  62.8211707 108.3938871  32.5852365  62.4553893 109.4932769  31.6108519
  63.8131358 106.2780371  30.6359009  64.6357427 105.8040849  30.5137899
  64.0569422 107.0570854  31.1357695  61.3369937 112.9699491  28.4450987
  61.1914518 113.2839794  29.3375269  60.8595141 113.5884392  27.8921886
  63.1966320 109.9602039  28.4931877  63.1827889 109.0643132  28.1564175
  63.9138748 109.9672703  29.1270163  65.0492451 110.3939379  30.5385004
  64.7910228 111.3156450  30.5369335  64.5177491 109.9969814  31.2285468
  65.4694406 106.5271330  26.8986167  65.4916103 106.5910663  25.9438146
  65.8862465 105.6875839  27.0926673  62.0844295 110.3548417  37.9709379
  62.1332451 111.2310540  37.5887149  62.6266809 109.8125810  37.3981023
  69.9800778 113.7312934  35.8802552  70.8810641 113.5919399  35.5886550
  70.0548753 113.8967389  36.8200729  64.3143584 111.1079789  34.7255738
  63.4446893 111.4013355  34.4538327  64.5503064 111.6920234  35.4463002
  72.4402401 115.2911563  33.2765325  72.9156523 115.4839209  32.4684176
  71.5167966 115.3470748  33.0308708  67.0182618 107.3259406  32.2421158
  67.5364561 108.0620433  31.9167647  66.6637750 107.6323399  33.0767918
  67.2695212 103.7459689  27.7622055  67.5496965 103.0782878  28.3882482
  68.0545819 103.9388784  27.2496719  71.1404070 112.1677323  31.5093630
  72.0921493 112.2675420  31.5305854  70.9707520 111.3755591  32.0191715
  69.1618450 109.2532906  31.6953031  68.5668382 109.5337919  30.9999520
  68.8768146 109.7426807  32.4669772  73.7686636 112.1794486  30.6694213
  73.2525685 111.3952942  30.4824142  74.6526585 111.8513202  30.8340732
  71.4297363 105.9235501  26.6290026  71.2322184 105.6150590  27.5133358
  72.0397069 106.6497140  26.7587956  67.1871010 105.8044408  24.3786557
  67.7402048 106.2239862  25.0376580  67.4241096 104.8780156  24.4209513
  63.2104109 111.7931482  40.1589321  63.1100836 112.7425839  40.0901412
  62.9925651 111.4649721  39.2865391  69.0153383 107.3149991  26.0886542
  69.5153162 107.4266526  25.2800860  69.6588991 107.0111044  26.7287350
  67.1798743 102.8755227  24.2855644  66.4131139 102.3213713  24.4312326
  67.5909448 102.9477095  25.1469796  59.1840504 109.1640022  38.3760825
  60.0471966 108.8076827  38.5864150  58.6105915 108.8253917  39.0636230
  15.0501575  21.7996020  24.6394502  15.5941479  22.4125978  24.1449457
  14.4688420  22.3575599  25.1561515  18.3730370  21.2592074  23.9755823
  17.5825913  21.2416213  23.4360323  18.1363724  21.7980368  24.7304860
  13.1727634  19.4455787  26.5023258  14.0418794  19.6196439  26.1409893
  12.6934385  20.2650204  26.3798988  24.8320110  31.1544413  15.9068533
  25.4698520  31.0351160  15.2031873  24.7140953  32.1025257  15.9656485
  22.1229599  32.2606693  21.8016263  22.1118240  31.8659491  20.9296767
  22.2850239  31.5272765  22.3950035  18.8436860  35.0443805  20.7495447
  18.5526726  35.9489435  20.6342113  19.4793845  35.0860332  21.4639517
  19.7693067  32.4220653  17.3396807  20.3656639  32.1976676  16.6253770
  19.8268039  31.6805399  17.9422255  29.7869805  28.8171100  13.8854720
  30.5194977  28.2470317  14.1192549  29.0309161  28.4292700  14.3261225
  27.3095226  22.5292674  18.3449328  26.9778551  23.3988085  18.1210543
  26.7140839  22.2128958  19.0243359  23.8026745  34.7305220  17.7445241
  23.5027468  35.6330259  17.6361048  23.4577805  34.4637403  18.5966394
  18.7847525  41.4949540  10.7116209  18.7071555  42.4457366  10.7904689
  18.1809169  41.1495413  11.3691135  21.2764755  28.6677406  23.3677575
  20.4998089  29.2271326  23.3580440  21.9155318  29.1534189  23.8892446
  29.0685535  25.4504199  17.2020552  28.4259916  25.7436732  16.5560347
  28.5640464  25.3357119  18.0073749  19.5311127  31.4762859  22.9295542
  20.2725811  32.0147903  22.6530366  18.8248113  32.1029148  23.0867094
  25.0066467  33.6192000  21.5267704  25.4149823  33.1774410  20.7822336
  24.2843728  33.0444627  21.7801897  21.3597537  28.5564607  18.9001261
  22.2058732  28.9804020  19.0435910  21.2996174  27.8998231  19.5939824
  25.3295281  34.1793190  15.2819993  24.7004144  34.3438904  14.5796061
  24.9420943  34.5934800  16.0530957  29.2084513  35.1147628  12.6364357
  28.5235551  35.4946530  12.0861390  29.2928363  35.7242955  13.3696304
  24.5096982  26.2168975  20.5582435  24.2657914  26.9711035  20.0216710
  24.7856913  26.5954322  21.3929682  26.4635445  32.7607587  19.2359700
  26.6752340  33.4039347  18.5594081  26.4165193  31.9269904  18.7681630
  17.7747324  33.4639080  15.4849841  18.3448681  33.8926348  14.8467326
  18.3655436  33.1821665  16.1834027  18.2672491  28.6302507  23.7310852
  17.6371151  29.3118788  23.9646249  18.1608579  28.5185589  22.7863991
  27.5781273  35.6379543  17.4082057  28.3998717  35.2359730  17.1264739
  27.5743676  35.5347777  18.3598173  21.3437876  35.1863586  19.5642768
  21.4082309  35.6483993  20.4000940  20.6348800  34.5560951  19.6925078
  35.6687266  31.9818291  13.7567029  34.9150974  31.4125689  13.6011033
  35.8034807  31.9480956  14.7037664  17.5453234  22.9323273  26.0936104
  17.1520179  22.3789472  26.7683748  18.3619374  23.2433852  26.4842621
  20.4621195  24.3481152  23.6856360  21.2030908  24.9488306  23.6060823
  20.6939117  23.6058790  23.1274403  15.6062533  29.5337520  21.9634590
  15.4916048  28.6322777  22.2641689  14.7507050  29.7801216  21.6119406
  22.6854370  37.4755260  23.5622090  22.2418225  36.6891639  23.2442995
  23.3471584  37.6634410  22.8965981  17.4441492  39.0051062  18.0882769
  17.9948917  38.8768125  17.3159763  16.6052967  39.3045951  17.7377662
  24.7835608  37.7558060  21.5903492  24.7654084  38.5766941  21.0983761
  25.7055528  37.6312135  21.8153633  21.2408663  35.2702189  22.4327000
  21.7736999  34.5090478  22.2026308  20.7122744  34.9775841  23.1751154
  27.5854221  32.5937202  15.0612858  26.9277896  33.2836464  15.1492987
  28.3894621  32.9833634  15.4046845  27.1621476  35.9287576  11.2395943
  26.7083803  35.0878486  11.2961133  26.5315443  36.5648975  11.5770723
  25.6054416  37.7664073  12.1745761  25.8977390  38.3269130  11.4558126
  26.1153036  38.0592634  12.9298920  20.5688041  38.5444424  13.2639214
  20.5264220  38.7705271  12.3347746  21.4850740  38.3107799  13.4125015
  24.0153675  29.0128492  20.1619843  24.3703062  29.2399965  21.0214309
  24.6625806  29.3446869  19.5397099  29.7720791  34.2023455  15.8780444
  30.2057298  34.1098744  16.7263498  30.4852372  34.1780955  15.2400460
  23.5048686  37.8025549  17.4113544  23.5585708  38.3716485  18.1791260
  22.6363467  37.9727434  17.0467582  30.6336341  34.2447155  18.4113329
  30.8272231  35.1492966  18.6572604  30.5336959  33.7854574  19.2451914
  22.2872651  24.1305046  20.9103657  21.6400566  24.8294996  20.8168133
  23.0573667  24.5641190  21.2779905  25.6951449  34.3953898  23.9854210
  25.5436956  34.1664450  23.0684293  25.6856129  35.3524500  23.9985555
  22.4636786  31.9685811  18.9700476  23.3928846  32.1196970  18.7969444
  22.0427816  32.0569832  18.1149123  21.2625118  35.9936475  16.7399014
  21.1236203  35.6255260  17.6124952  20.4739714  36.5084115  16.5682972
  22.8130333  35.3718078  14.1287852  22.4780165  35.3318848  15.0245502
  22.3134278  34.7062794  13.6558262  16.7874577  30.7785708  19.6540433
  16.6494375  30.0465947  20.2551972  17.6979500  30.6894608  19.3724621
  19.4156877  30.4905667  19.1424112  20.1256496  29.8498859  19.1010731
  19.3726185  30.7418562  20.0650293  27.4043656  37.4273021  22.0630692
  27.3456202  36.7432241  21.3961275  27.8063174  38.1692011  21.6111318
  18.1285811  27.4770885  20.9619752  17.5923168  27.0261624  21.6141348
  17.5402520  27.6116794  20.2190216  16.4234355  44.2434934  14.8564411
  16.6630953  44.8753459  15.5343429  15.5803551  43.8922975  15.1429770
  27.4061063  35.3912605  20.2944671  26.5187842  35.0538526  20.4171070
  27.9759614  34.6595636  20.5313437  20.9362217  40.0514057  17.2605915
  20.8632388  40.8569028  17.7725219  20.4939610  40.2506023  16.4353936
  20.7251996  39.2885827  10.7708736  19.9419518  39.8307507  10.8646961
  21.4244741  39.8059807  11.1702977  31.8878404  30.8020822  15.0561233
  31.8768280  31.6845537  14.6855166  31.0195783  30.4492373  14.8615770
  23.3960900  39.9500891  19.4164073  24.1088872  40.5848356  19.3439975
  22.9050929  40.0464757  18.6004075  18.4472814  37.6995334  20.2369644
  19.1482273  38.3331817  20.3899038  17.9767929  38.0410066  19.4765283
  26.2474100  30.2539942  18.0622194  25.5945550  30.5015849  17.4074647
  26.6254480  29.4404080  17.7284672  23.2081274  40.2899635  12.1650365
  23.3903668  39.4721291  12.6278117  24.0314260  40.5067327  11.7275255
  22.2961673  30.9959753  24.5488231  21.6202310  30.8953882  25.2190607
  23.1189307  30.8398967  25.0124229  14.0440532  37.2331689  17.1700747
  14.6293969  36.4875377  17.3028651  13.8465370  37.5435646  18.0537411
  16.8979187  40.2682937  12.1863189  16.2289562  40.7529064  11.7027229
  16.7592057  40.5152157  13.1006568  21.0384456  42.3026680  18.7845847
  21.5902764  42.4658302  19.5494933  21.3790649  42.8931118  18.1125872
  15.4901221  26.7224963  23.0340766  16.1173260  26.3402040  23.6478291
  14.6329140  26.5039165  23.3996459  25.8895330  37.1287938  24.6394502
  26.4335234  37.7417896  24.1449457  25.3082175  37.6867516  25.1561515
  24.1752843  40.2508656  15.7709530  24.0503982  39.4498396  15.2620475
  24.8331934  40.7454849  15.2823500  26.2387751  38.0517676  17.3989080
  25.2918087  37.9323027  17.3267406  26.5870524  37.1640174  17.4815341
  18.5987325  23.9411815  21.2227322  19.1221726  24.1874111  21.9853631
  18.3799658  24.7731850  20.8030459  23.2434185  37.8470392  13.5993432
  23.0959147  36.9187100  13.7801002  24.0687678  37.8690483  13.1150507
  26.8468306  38.6698951  14.6858305  27.7714854  38.4641812  14.5482756
  26.6783610  38.4215352  15.5947646  26.6363623  39.1884618  10.0420396
  26.8100500  38.6231041   9.2894249  27.1292514  39.9885513   9.8599886
  32.4903014  31.9521041  11.6610696  32.9334160  31.2028367  11.2629819
  31.6129524  31.9431178  11.2784428  13.2406604  30.3269184  21.0014112
  12.4988340  30.4751819  21.5878742  12.9199349  30.5877449  20.1380861
  21.1850267  39.8685162  20.7994502  21.4937393  39.6234309  21.6717201
  21.9825749  40.0731800  20.3113372  21.2070879  42.0223072  13.0299878
  20.7675869  41.5299450  13.7232735  21.9578996  41.4796039  12.7891954
  18.6544751  37.5661081  15.1022180  18.0324760  36.9031786  14.8024408
  19.3249618  37.5922213  14.4195828  18.7269279  26.0442869  24.6954686
  18.7757434  26.9204992  24.3132456  19.2691793  25.5020262  24.1226329
  29.2124124  36.5883992  23.9755823  28.4219668  36.5708131  23.4360323
  28.9757479  37.1272286  24.7304860  29.3321999  33.4376458  21.2888552
  29.3820004  33.2726466  22.2304074  29.2235923  32.5703717  20.8986432
  26.6225762  29.4207386  22.6047858  27.5235624  29.2813851  22.3131856
  26.6973736  29.5861841  23.5446036  20.9568567  26.7974241  21.4501045
  20.0871876  27.0907807  21.1783633  21.1928047  27.3814686  22.1708308
  30.8340196  35.8573400  21.5330573  30.5425004  36.2203380  22.3694034
  30.2212327  35.1440408  21.3543905  32.0335878  33.4226280  14.0533143
  32.8682770  33.8616084  14.2170704  32.1695007  32.9464933  13.2341389
  29.0827384  30.9806014  20.0010631  29.5581506  31.1733661  19.1929483
  28.1592950  31.0365200  19.7554015  23.6607601  23.0153858  18.9666465
  24.1789545  23.7514885  18.6412954  23.3062734  23.3217851  19.8013224
  27.7829053  27.8571775  18.2338937  28.7346476  27.9569872  18.2551161
  27.6132504  27.0650043  18.7437021  25.8043433  24.9427358  18.4198338
  25.2093365  25.2232371  17.7244826  25.5193130  25.4321259  19.1915079
  30.2617131  31.0777894  17.3481236  30.2293451  30.1393895  17.5340920
  30.8717755  31.1561931  16.6147061  30.4111620  27.8688938  17.3939520
  29.8950668  27.0847394  17.2069449  31.2951568  27.5407654  17.5586039
  36.0793681  32.1393901  16.4887273  36.8097069  31.8779189  17.0494977
  35.4700626  31.4022623  16.5289341  34.1608978  30.2801764  17.0861724
  33.4342142  30.1457729  16.4778216  33.7456265  30.5878592  17.8918442
  21.9839155  33.9991693  24.8509097  22.9042164  34.1770292  25.0449144
  21.9488738  33.0547739  24.6988797  14.9801227  31.9092728  17.4931879
  15.1987237  32.8409836  17.5119912  15.3927001  31.5500702  18.2786682
  19.8529092  27.4825934  26.8834628  19.7525819  28.4320291  26.8146719
  19.6350634  27.1544173  26.0110698  19.7160362  30.9123073  25.6999689
  19.2327444  31.7123433  25.9063578  19.8021301  30.9231017  24.7467133
  15.6433700  34.8027607  17.7368123  16.5976953  34.7711550  17.6698055
  15.4446224  34.3418231  18.5518349  16.2333082  33.3728723  20.3038921
  17.0525971  33.8672802  20.3273758  16.5069890  32.4560692  20.2756488
  31.7786773  26.5013616  14.4395156  32.3731264  26.2609352  13.7288464
  31.8513357  25.7820746  15.0668692  13.9983929  40.3447227  14.7538321
  13.8638397  39.5847628  14.1876319  13.5815991  41.0688127  14.2867110
  34.0857846  29.8079817  13.2138577  33.5257404  29.8773006  13.9870139
  33.4801349  29.6320801  12.4938073  17.1553055  41.2416544  14.9656764
  17.0385439  42.1861976  14.8635454  16.3345501  40.9390105  15.3542563
  24.0121389  34.7747705  26.5023258  24.8812548  34.9488357  26.1409893
  23.5328140  35.5942122  26.3798988  18.1807569  41.8944806  18.1812692
  19.0834815  41.9268416  18.4979187  17.9544939  40.9645257  18.1959028
  19.9361171  40.6475792  14.8422771  18.9856802  40.6477654  14.7287143
  20.2393657  39.9008527  14.3258805  15.8265487  24.8534474  25.1006132
  16.6896949  24.4971279  25.3109457  15.2530898  24.5148369  25.7881536
  35.6713864  46.4836331  15.9068533  36.3092274  46.3643078  15.2031873
  35.5534707  47.4317175  15.9656485  32.4803571  46.4363759  15.8430058
  32.1422082  46.3204823  14.9550593  33.3493339  46.0354924  15.8231064
  28.3390386  48.2899235  11.8326949  27.7755251  48.1989172  11.0643236
  28.2242781  47.4699140  12.3129441  32.9623354  47.5898610  21.8016263
  32.9511994  47.1951409  20.9296767  33.1243993  46.8564683  22.3950035
  25.8854818  49.7850427  14.6711169  26.6776110  49.4441251  14.2557468
  26.1251468  49.8945402  15.5913322  33.9189945  51.9570203   7.1441414
  33.2677925  52.5424283   6.7575427  34.7134308  52.4876398   7.2036451
  27.8445572  49.0459340   7.5428548  28.6176448  48.4988327   7.4041424
  28.1970971  49.9103589   7.7543009  29.6830615  50.3735722  20.7495447
  29.3920481  51.2781353  20.6342113  30.3187599  50.4152250  21.4639517
  30.6086822  47.7512571  17.3396807  31.2050394  47.5268593  16.6253770
  30.6661793  47.0097316  17.9422255  30.1811850  45.2052006   5.1746998
  30.4337371  44.6833527   4.4130461  29.2436409  45.0418152   5.2773681
  35.2255133  44.2087785  12.9821741  36.0118222  43.7907208  12.6312158
  35.4893837  45.1133877  13.1503389  35.3965210  49.6460635   7.6810398
  34.7611043  49.7195261   8.3931302  35.0662616  50.2354234   7.0029477
  40.6263560  44.1463018  13.8854720  41.3588732  43.5762235  14.1192549
  39.8702916  43.7584618  14.3261225  29.9008139  47.1080112   7.3771373
  29.7844397  46.4325015   8.0452457  30.0110399  46.6212486   6.5603526
  32.2439680  46.5690259  11.0818062  31.8797887  46.0420880  11.7930983
  33.1006795  46.1788728  10.9084547  38.1488980  37.8584592  18.3449328
  37.8172305  38.7280003  18.1210543  37.5534594  37.5420876  19.0243359
  31.8845167  41.5980159   6.0779410  32.0519569  42.4660395   6.4449882
  31.6942336  41.7607441   5.1540700  34.6420500  50.0597138  17.7445241
  34.3421223  50.9622177  17.6361048  34.2971559  49.7929321  18.5966394
  28.0932981  46.5110935  13.7781945  27.1683478  46.3787149  13.9859637
  28.3417394  47.2905154  14.2751888  38.0417644  42.5779678  15.4242678
  37.1334521  42.5095086  15.1301439  37.9905239  43.0551623  16.2524504
  31.8634387  44.0537816   7.0626077  31.7434013  44.4994867   7.9011558
  31.1686976  44.4023134   6.5039615  25.4541792  46.1544208  14.6125734
  25.5834173  46.4078687  15.5265146  24.7739244  46.7471916  14.2930389
  29.6241280  56.8241458  10.7116209  29.5465309  57.7749283  10.7904689
  29.0202923  56.4787331  11.3691135  32.1158509  43.9969324  23.3677575
  31.3391843  44.5563244  23.3580440  32.7549072  44.4826107  23.8892446
  39.9079290  40.7796116  17.2020552  39.2653670  41.0728650  16.5560347
  39.4034218  40.6649037  18.0073749  37.5619454  44.5259290   7.8906411
  38.4737310  44.7586676   7.7154109  37.0529101  45.1096334   7.3281490
  30.3704882  46.8054777  22.9295542  31.1119566  47.3439821  22.6530366
  29.6641867  47.4321066  23.0867094  35.8460221  48.9483917  21.5267704
  36.2543577  48.5066328  20.7822336  35.1237483  48.3736545  21.7801897
  32.1991291  43.8856524  18.9001261  33.0452487  44.3095938  19.0435910
  32.1389929  43.2290149  19.5939824  36.1689036  49.5085108  15.2819993
  35.5397898  49.6730822  14.5796061  35.7814698  49.9226718  16.0530957
  40.0478268  50.4439546  12.6364357  39.3629306  50.8238447  12.0861390
  40.1322117  51.0534873  13.3696304  35.3490737  41.5460893  20.5582435
  35.1051669  42.3002953  20.0216710  35.6250667  41.9246240  21.3929682
  37.3029199  48.0899505  19.2359700  37.5146095  48.7331265  18.5594081
  37.2558948  47.2561821  18.7681630  34.9055428  40.7017326  16.1396272
  34.0439907  40.9998579  16.4313010  34.9317863  40.9187724  15.2077305
  31.7216998  49.2459516  12.5470078  32.1855343  49.5247219  11.7574700
  31.4573796  48.3442961  12.3643169  28.6141079  48.7930998  15.4849841
  29.1842436  49.2218266  14.8467326  29.2049191  48.5113582  16.1834027
  30.6585884  45.3682669   9.3559643  31.3609927  45.8203712   9.8233569
  30.3266512  44.7266487   9.9839536  29.1066245  43.9594425  23.7310852
  28.4764906  44.6410706  23.9646249  29.0002333  43.8477507  22.7863991
  24.4011218  43.6266221  14.6576777  23.6110272  43.8823750  14.1816887
  24.8922465  44.4414559  14.7628817  38.4175027  50.9671460  17.4082057
  39.2392471  50.5651648  17.1264739  38.4137430  50.8639695  18.3598173
  26.3525963  43.9910800  11.6160253  25.5557126  44.1029495  12.1343749
  26.1251555  44.3297453  10.7501144  32.1831631  50.5155504  19.5642768
  32.2476063  50.9775911  20.4000940  31.4742555  49.8852869  19.6925078
  22.6848921  43.8796712  17.0891767  22.9356959  44.7643722  17.3549343
  23.2208469  43.7001313  16.3166859  46.5081020  47.3110209  13.7567029
  45.7544729  46.7417607  13.6011033  46.6428562  47.2772873  14.7037664
  31.8979648  52.1823611   9.4321748  31.7625323  53.0275147   9.8606596
  32.4389461  52.3842889   8.6687682  28.3846988  38.2615191  26.0936104
  27.9913934  37.7081390  26.7683748  29.2013128  38.5725769  26.4842621
  25.3509046  49.6999049  10.0049673  25.8633566  50.4942299  10.1555238
  26.0031759  49.0025340   9.9383275  27.1603931  52.8164805  12.0872427
  27.3370559  53.7382770  11.8993410  27.9560764  52.5023225  12.5166806
  31.3014949  39.6773070  23.6856360  32.0424662  40.2780223  23.6060823
  31.5332872  38.9350708  23.1274403  26.4456287  44.8629437  21.9634590
  26.3309802  43.9614695  22.2641689  25.5900805  45.1093134  21.6119406
  33.5248125  52.8047178  23.5622090  33.0811979  52.0183556  23.2442995
  34.1865338  52.9926328  22.8965981  28.2835246  54.3342979  18.0882769
  28.8342671  54.2060043  17.3159763  27.4446722  54.6337868  17.7377662
  35.6229363  53.0849978  21.5903492  35.6047838  53.9058859  21.0983761
  36.5449283  52.9604053  21.8153633  32.0802417  50.5994107  22.4327000
  32.6130754  49.8382395  22.2026308  31.5516498  50.3067759  23.1751154
  35.2472112  35.7054173  17.9620642  34.9036381  36.5955815  17.8859752
  35.6151075  35.5155831  17.0990227  23.3157963  48.0287703  10.7809244
  24.1533185  48.4384712  10.5642952  23.4936230  47.0887146  10.7509438
  35.2122395  45.6962784   6.4693077  34.6969018  46.4667389   6.7081464
  34.9399703  45.0227920   7.0926138  32.7969506  40.5412485  11.5278315
  31.9411102  40.1519335  11.3483954  33.2096458  40.6204446  10.6678101
  34.3268652  38.0758828  15.9269875  33.8233448  38.0388963  15.1137680
  34.6199259  38.9851571  15.9866532  30.5711538  38.1597558  14.9336057
  31.4364535  37.9640367  14.5741946  30.6389047  37.9307910  15.8605413
  40.1856669  48.4495139   8.4046250  39.4086112  48.1106298   7.9601412
  40.8648150  48.4547762   7.7301215  35.0008698  43.5689876   8.2952858
  34.6958833  43.8836025   9.1463001  35.9539140  43.6471296   8.3380191
  33.4455130  49.7280100   9.9445812  32.9176491  48.9932859   9.6319049
  32.9442632  50.5054776   9.6985780  38.4247976  47.9229120  15.0612858
  37.7671650  48.6128381  15.1492987  39.2288375  48.3125552  15.4046845
  28.1773857  40.3899766  12.3052424  28.7517609  40.1674947  11.5725616
  28.7644840  40.4588460  13.0581025  37.2353435  46.2773493  13.1116800
  37.7485316  46.9103485  13.6138510  37.8854658  45.6774688  12.7460160
  30.4796525  37.2641015  11.0327493  29.8260937  36.9490032  10.4084108
  30.4376999  36.6416755  11.7587316  31.5907730  47.5460310   2.9480785
  30.6834792  47.3149563   3.1471934  32.0878762  46.7497929   3.1354767
  34.4975809  56.2557817   5.8677471  33.8237508  56.5589514   6.4762429
  34.8841631  57.0586897   5.5182928  33.7134265  43.7522948  15.3575141
  32.7956827  43.9737895  15.1996829  34.1294409  43.8269259  14.4986848
  34.4969313  45.1514364  10.4877821  35.2441132  45.6635761  10.1784943
  34.7660903  44.8298417  11.3482214  32.7695963  47.6472905   7.4704775
  31.8607183  47.3631937   7.5677245  32.7991047  48.0671983   6.6108082
  38.0015231  51.2579494  11.2395943  37.5477558  50.4170404  11.2961133
  37.3709198  51.8940893  11.5770723  36.9448150  42.1871480  12.4696610
  36.2070907  41.6748866  12.8006853  37.1974924  41.7471862  11.6579887
  36.4448170  53.0955991  12.1745761  36.7371144  53.6561048  11.4558126
  36.9546791  53.3884552  12.9298920  37.0459778  34.9647732  13.0638379
  37.3518654  34.1045096  12.7764295  37.7712382  35.5565352  12.8637373
  23.3384134  45.3678419  11.4519977  23.1408534  44.7747779  10.7271044
  22.7830798  45.0630629  12.1695916  31.3180857  45.2601525  13.5714570
  31.3729467  44.3075362  13.4957047  30.5072059  45.4160964  14.0555869
  32.4672051  49.1881648   4.8092854  32.0291481  48.4717507   4.3498491
  33.2082492  49.4157763   4.2477945  29.2573217  43.8778585  11.3304949
  28.4441083  44.1772756  11.7370142  29.7532212  43.4834274  12.0479432
  31.4081795  53.8736342  13.2639214  31.3657974  54.0997188  12.3347746
  32.3244494  53.6399717  13.4125015  34.8547429  44.3420409  20.1619843
  35.2096817  44.5691883  21.0214309  35.5019560  44.6738786  19.5397099
  40.5845166  47.4638845  10.8669172  40.4463065  47.6540441   9.9390362
  40.2281385  48.2258228  11.3237223  28.7487292  41.4496941  16.9466184
  29.3886671  41.3085700  16.2489148  27.9164823  41.1631454  16.5704786
  40.6114546  49.5315372  15.8780444  41.0451052  49.4390661  16.7263498
  41.3246126  49.5072873  15.2400460  29.5247596  50.7499371  13.0601177
  30.3188194  50.2549691  12.8583752  28.8139288  50.2217234  12.6968882
  34.3442440  53.1317466  17.4113544  34.3979463  53.7008403  18.1791260
  33.4757222  53.3019352  17.0467582  25.8330359  44.8942453   9.1360929
  24.9027948  44.8326908   9.3530892  25.9287831  44.3718405   8.3397571
  25.7515909  41.4197266  11.7239171  26.0122726  42.3342599  11.6148332
  26.5733081  40.9521708  11.8735784  27.2240834  42.8335023  18.8937996
  27.8963887  42.6252385  18.2450645  26.3970620  42.6357109  18.4543228
  41.4730095  49.5739073  18.4113329  41.6665985  50.4784884  18.6572604
  41.3730713  49.1146492  19.2451914  33.1266406  39.4596964  20.9103657
  32.4794321  40.1586913  20.8168133  33.8967421  39.8933108  21.2779905
  36.5345204  49.7245816  23.9854210  36.3830710  49.4956367  23.0684293
  36.5249883  50.6816417  23.9985555  33.3030540  47.2977729  18.9700476
  34.2322600  47.4488888  18.7969444  32.8821570  47.3861749  18.1149123
  32.1018872  51.3228393  16.7399014  31.9629958  50.9547177  17.6124952
  31.3133468  51.8376032  16.5682972  32.6967024  56.4237489   8.0824550
  32.8718780  55.9525533   8.8970173  32.0099812  57.0503256   8.3105811
  33.6524087  50.7009996  14.1287852  33.3173920  50.6610766  15.0245502
  33.1528033  50.0354712  13.6558262  27.6268331  46.1077626  19.6540433
  27.4888129  45.3757864  20.2551972  28.5373255  46.0186526  19.3724621
  36.5883279  48.0466030   4.4024911  35.9712449  47.3212858   4.3057964
  36.1199767  48.8075390   4.0591986  30.2550632  45.8197585  19.1424112
  30.9650250  45.1790777  19.1010731  30.2119940  46.0710480  20.0650293
  38.2437410  52.7564938  22.0630692  38.1849957  52.0724158  21.3961275
  38.6456929  53.4983928  21.6111318  28.9679566  42.8062803  20.9619752
  28.4316923  42.3553541  21.6141348  28.3796274  42.9408712  20.2190216
  27.2628109  59.5726852  14.8564411  27.5024707  60.2045376  15.5343429
  26.4197306  59.2214892  15.1429770  38.2454818  50.7204522  20.2944671
  37.3581596  50.3830444  20.4171070  38.8153369  49.9887553  20.5313437
  19.8983965  47.0528614  13.6187723  20.5855005  46.7390344  13.0308738
  19.7432094  47.9569979  13.3454974  24.7018687  41.9418811  18.0472746
  24.6176876  41.3344480  17.3123156  23.8801393  42.4327829  18.0482243
  31.7755971  55.3805975  17.2605915  31.7026143  56.1860946  17.7725219
  31.3333364  55.5797940  16.4353936  31.5645751  54.6177745  10.7708736
  30.7813273  55.1599425  10.8646961  32.2638496  55.1351724  11.1702977
  34.8742401  40.4272374  13.4142941  35.3711100  39.6742336  13.0944012
  34.1029382  40.4636691  12.8486151  42.7272158  46.1312740  15.0561233
  42.7162035  47.0137455  14.6855166  41.8589538  45.7784290  14.8615770
  34.2354655  55.2792809  19.4164073  34.9482627  55.9140273  19.3439975
  33.7444683  55.3756675  18.6004075  35.9572182  49.1844061  10.9881365
  35.0228460  49.3045524  10.8186069  36.1348850  48.2816528  10.7241375
  31.4577370  42.5689757  13.1414626  31.0875157  42.0160797  13.8295532
  31.9536462  41.9647891  12.5889626  39.3444733  45.0261381  11.5231399
  39.8105185  45.8589372  11.4491702  39.7952233  44.5606362  12.2276658
  29.2866568  53.0287252  20.2369644  29.9876028  53.6623735  20.3899038
  28.8161683  53.3701984  19.4765283  37.4120964  51.3705202   8.5217551
  37.6880808  51.2561796   9.4311425  36.5425463  50.9722687   8.4829724
  37.3161396  37.3941968  15.5622300  36.4024475  37.6246194  15.7304507
  37.7454497  37.4780412  16.4136333  37.0867854  45.5831860  18.0622194
  36.4339304  45.8307767  17.4074647  37.4648234  44.7695998  17.7284672
  34.0475028  55.6191553  12.1650365  34.2297423  54.8013209  12.6278117
  34.8708014  55.8359245  11.7275255  34.3817194  54.5459738   9.4265413
  34.9104960  54.0352192   8.8135575  34.6445413  54.2302268  10.2910946
  33.1355427  46.3251671  24.5488231  32.4596064  46.2245800  25.2190607
  33.9583061  46.1690884  25.0124229  24.8834286  52.5623607  17.1700747
  25.4687723  51.8167295  17.3028651  24.6859125  52.8727564  18.0537411
  27.7372941  55.5974855  12.1863189  27.0683317  56.0820982  11.7027229
  27.5985811  55.8444075  13.1006568  19.4751941  45.1329207  15.8905190
  19.5136040  44.5992798  16.6842308  18.9692234  44.6064413  15.2716167
  31.8778210  57.6318598  18.7845847  32.4296518  57.7950220  19.5494933
  32.2184403  58.2223036  18.1125872  26.8542703  39.9793748  19.3867732
  26.9184030  40.8408579  18.9745130  26.7909824  39.3667750  18.6540091
  26.3294976  42.0516880  23.0340766  26.9567015  41.6693958  23.6478291
  25.4722895  41.8331082  23.3996459  36.7289084  52.4579856  24.6394502
  37.2728988  53.0709814  24.1449457  36.1475929  53.0159434  25.1561515
  23.1060519  43.8593310   8.9659121  23.4013960  42.9503988   8.9126175
  22.2048554  43.8381049   8.6440124  35.0146597  55.5800574  15.7709530
  34.8897737  54.7790313  15.2620475  35.6725688  56.0746767  15.2823500
  26.6354766  41.9349306  14.9486670  25.9141351  42.5485274  14.8094143
  27.4248021  42.4707071  14.8703316  37.0781506  53.3809594  17.3989080
  36.1311841  53.2614945  17.3267406  37.4264279  52.4932092  17.4815341
  29.4381079  39.2703733  21.2227322  29.9615481  39.5166029  21.9853631
  29.2193412  40.1023767  20.8030459  24.8348360  41.5407407   9.0898446
  24.5061066  40.6604786   8.9073552  25.1887731  41.4855076   9.9774836
  34.0827939  53.1762310  13.5993432  33.9352901  52.2479017  13.7801002
  34.9081433  53.1982401  13.1150507  27.9490183  41.8280377   9.4573924
  28.2886256  42.3566298   8.7352532  28.3962304  42.1660783  10.2332491
  37.6862061  53.9990869  14.6858305  38.6108608  53.7933730  14.5482756
  37.5177364  53.7507270  15.5947646  30.6433624  40.2117428  18.9076992
  30.3030444  39.4125241  19.3097672  29.9372630  40.5119139  18.3353825
  31.2950096  37.2966740  17.3604315  32.1176165  36.8227218  17.2383205
  31.5388159  38.0757224  17.8603001  29.9358330  40.3254999   7.6567217
  30.6566693  40.7036251   7.1530934  29.3123635  41.0443875   7.7602195
  34.0789453  41.0300148   8.5925549  34.2953068  41.9124785   8.2914377
  33.5983520  40.6386361   7.8631191  28.8188675  43.9885861  15.1696294
  28.6733255  44.3026164  16.0620575  28.3413878  44.6070761  14.6167192
  30.6785058  40.9788409  15.2177183  30.6646626  40.0829502  14.8809481
  31.3957486  40.9859072  15.8515469  32.5311188  41.4125749  17.2630311
  32.2728966  42.3342820  17.2614641  31.9996229  41.0156183  17.9530775
  37.4757377  54.5176536  10.0420396  37.6494255  53.9522959   9.2894249
  37.9686268  55.3177431   9.8599886  23.2934337  46.5291205  18.1083955
  22.7487805  47.3051013  18.2404229  24.1713687  46.8762010  17.9503076
  30.0821954  39.8602789  10.4864753  30.2037865  38.9319435  10.6855641
  29.7923996  39.8741475   9.5743069  32.9513144  37.5457699  13.6231473
  32.9734841  37.6097033  12.6683453  33.3681203  36.7062208  13.8171979
  43.3296768  47.2812959  11.6610696  43.7727914  46.5320284  11.2629819
  42.4523279  47.2723095  11.2784428  38.4632550  53.8343300   7.1417294
  39.1583454  54.4549993   7.3604609  38.8055700  52.9838652   7.4169672
  24.0800359  45.6561101  21.0014112  23.3382095  45.8043737  21.5878742
  23.7593103  45.9169367  20.1380861  40.3623973  51.2843006   8.6704625
  40.8875297  51.6230279   7.9453945  40.2746325  50.3490021   8.4867760
  32.0244021  55.1977080  20.7994502  32.3331148  54.9526226  21.6717201
  32.8219503  55.4023718  20.3113372  32.0464633  57.3514989  13.0299878
  31.6069624  56.8591368  13.7232735  32.7972750  56.8087957  12.7891954
  24.5256972  53.5426530  13.0324506  25.3514992  53.2430302  12.6523150
  24.1751024  52.7734153  13.4814295  29.4938506  52.8952998  15.1022180
  28.8718515  52.2323703  14.8024408  30.1643372  52.9214130  14.4195828
  22.7265577  51.4612857  13.9913440  21.8897486  51.0335031  13.8097441
  22.6989223  51.6545300  14.9284231  29.5663033  41.3734786  24.6954686
  29.6151189  42.2496909  24.3132456  30.1085547  40.8312179  24.1226329
  40.0517879  51.9175910  23.9755823  39.2613422  51.9000048  23.4360323
  39.8151233  52.4564203  24.7304860  40.1715754  48.7668376  21.2888552
  40.2213759  48.6018383  22.2304074  40.0629677  47.8995635  20.8986432
  29.0552012  51.4456922   8.5780641  29.2040133  52.1292386   7.9247313
  29.8618456  51.4262012   9.0930096  37.4619516  44.7499304  22.6047858
  38.3629379  44.6105769  22.3131856  37.5367491  44.9153759  23.5446036
  31.7962321  42.1266159  21.4501045  30.9265631  42.4199725  21.1783633
  32.0321802  42.7106604  22.1708308  41.6733951  51.1865318  21.5330573
  41.3818759  51.5495298  22.3694034  41.0606082  50.4732326  21.3543905
  42.8729633  48.7518197  14.0533143  43.7076524  49.1908001  14.2170704
  43.0088762  48.2756851  13.2341389  39.9221139  46.3097932  20.0010631
  40.3975260  46.5025578  19.1929483  38.9986704  46.3657118  19.7554015
  26.8104645  47.4722099   9.5841709  26.5650687  46.5684429   9.7821920
  26.9800560  47.4739250   8.6421187  34.5001355  38.3445776  18.9666465
  35.0183299  39.0806803  18.6412954  34.1456488  38.6509769  19.8013224
  34.7513949  34.7646058  14.4867362  35.0315703  34.0969247  15.1127788
  35.5364556  34.9575154  13.9742026  32.5547418  53.9405052   6.0492388
  31.9821385  54.5595239   5.5962860  33.1280212  54.4904414   6.5832310
  38.6222808  43.1863692  18.2338937  39.5740231  43.2861790  18.2551161
  38.4526258  42.3941961  18.7437021  36.6437187  40.2719275  18.4198338
  36.0487119  40.5524288  17.7244826  36.3586884  40.7613176  19.1915079
  35.7744678  54.2242202   7.1800970  36.7075351  54.1587764   7.3833846
  35.6867891  55.0598469   6.7215503  38.4032694  53.5408073   4.1404918
  38.3246326  53.2067936   5.0340676  39.2242361  54.0329841   4.1396390
  41.1010886  46.4069812  17.3481236  41.0687206  45.4685813  17.5340920
  41.7111509  46.4853849  16.6147061  32.9394216  45.2765865   3.3908440
  33.8853321  45.1472073   3.4596859  32.5608461  44.5380527   3.8677869
  41.2505374  43.1980855  17.3939520  40.7344423  42.4139312  17.2069449
  42.1345323  42.8699572  17.5586039  38.9116101  36.9421871  13.3535332
  38.7140922  36.6336959  14.2378664  39.5215807  37.6683510  13.4833262
  46.9187435  47.4685819  16.4887273  47.6490824  47.2071107  17.0494977
  46.3094381  46.7314541  16.5289341  45.0002733  45.6093681  17.0861724
  44.2735896  45.4749646  16.4778216  44.5850019  45.9170510  17.8918442
  32.8232909  49.3283611  24.8509097  33.7435918  49.5062210  25.0449144
  32.7882492  48.3839656  24.6988797  22.0415074  44.5222205  13.7762372
  21.7217858  43.6687513  13.4836746  21.4948502  44.7370783  14.5320339
  25.8194982  47.2384646  17.4931879  26.0380991  48.1701754  17.5119912
  26.2320755  46.8792620  18.2786682  32.7399199  37.7452731   9.4807567
  31.9299928  37.3999816   9.8562813  33.4283616  37.4360275  10.0695179
  34.6689748  36.8230778  11.1031864  35.2220786  37.2426231  11.7621887
  34.9059834  35.8966526  11.1454820  30.6922847  42.8117851  26.8834628
  30.5919574  43.7612208  26.8146719  30.4744389  42.4836090  26.0110698
  21.9103334  48.1425116  15.7455494  21.2166805  47.7279069  15.2325448
  22.6576325  48.1845653  15.1488913  38.0468555  38.9331303  10.6110528
  37.4667224  39.5916107  10.2288580  37.7804487  38.1108648  10.1997945
  36.4972121  38.3336361  12.8131848  36.9971899  38.4452895  12.0046167
  37.1407729  38.0297414  13.4532657  30.5554117  46.2414990  25.6999689
  30.0721199  47.0415350  25.9063578  30.6415056  46.2522935  24.7467133
  23.8240077  48.0743370  13.6221509  23.8010765  48.1731057  12.6703392
  24.1340713  48.9208521  13.9438675  26.4827454  50.1319525  17.7368123
  27.4370708  50.1003467  17.6698055  26.2839978  49.6710149  18.5518349
  27.0726837  48.7020641  20.3038921  27.8919726  49.1964720  20.3273758
  27.3463644  47.7852609  20.2756488  36.8293433  41.0931393   9.6666876
  35.9419288  41.3781044   9.4487071  37.2447422  40.9325157   8.8194153
  40.1807969  41.1177914  13.3821215  40.9568359  41.6074367  13.6545832
  39.4556103  41.5435969  13.8393085  42.6180528  41.8305534  14.4395156
  43.2125018  41.5901270  13.7288464  42.6907111  41.1112664  15.0668692
  24.8377683  55.6739145  14.7538321  24.7032151  54.9139545  14.1876319
  24.4209745  56.3980044  14.2867110  35.9736646  50.8576068   3.7614896
  36.6772496  51.0626071   4.3772552  35.2499295  51.4252830   4.0263980
  36.8034457  46.6085929   9.8817166  36.7469658  47.0654481   9.0424799
  37.3562799  45.8476614   9.7040009  40.6139262  42.3975661  10.7067286
  40.3576197  41.9972297  11.5375494  39.9892130  43.1119455  10.5817425
  44.9251600  45.1371734  13.2138577  44.3651158  45.2064924  13.9870139
  44.3195104  44.9612719  12.4938073  27.9946809  56.5708462  14.9656764
  27.8779193  57.5153894  14.8635454  27.1739255  56.2682023  15.3542563
  37.8823344  51.2958597   5.8113356  38.7168948  50.8639796   5.6290831
  37.7207687  51.1240611   6.7390251  37.5369236  47.7990711   7.1769696
  37.4818040  47.6334982   6.2358140  36.9115291  48.5066743   7.3331885
  22.3261751  43.0358775  21.0031118  22.9720614  42.5257729  21.4918343
  22.1178902  43.7727457  21.5774543  34.8515143  50.1039622  26.5023258
  35.7206303  50.2780275  26.1409893  34.3721894  50.9234039  26.3798988
  29.0201323  57.2236723  18.1812692  29.9228570  57.2560334  18.4979187
  28.7938693  56.2937174  18.1959028  30.7754925  55.9767710  14.8422771
  29.8250556  55.9769572  14.7287143  31.0787411  55.2300445  14.3258805
  34.6617481  33.8941596  11.0100951  33.8949877  33.3400083  11.1557633
  35.0728186  33.9663465  11.8715102  26.6659242  40.1826392  25.1006132
  27.5290703  39.8263197  25.3109457  26.0924652  39.8440287  25.7881536
  46.5107619  61.8128248  15.9068533  47.1486029  61.6934996  15.2031873
  46.3928462  62.7609092  15.9656485  43.3197325  61.7655676  15.8430058
  42.9815837  61.6496741  14.9550593  44.1887093  61.3646842  15.8231064
  39.1784141  63.6191153  11.8326949  38.6149006  63.5281090  11.0643236
  39.0636536  62.7991057  12.3129441  43.8017108  62.9190528  21.8016263
  43.7905749  62.5243326  20.9296767  43.9637747  62.1856601  22.3950035
  36.7248573  65.1142344  14.6711169  37.5169865  64.7733169  14.2557468
  36.9645223  65.2237320  15.5913322  44.7583699  67.2862121   7.1441414
  44.1071679  67.8716201   6.7575427  45.5528062  67.8168315   7.2036451
  38.6839327  64.3751258   7.5428548  39.4570203  63.8280245   7.4041424
  39.0364725  65.2395507   7.7543009  40.5224369  65.7027640  20.7495447
  40.2314235  66.6073271  20.6342113  41.1581354  65.7444168  21.4639517
  41.4480576  63.0804489  17.3396807  42.0444148  62.8560511  16.6253770
  41.5055548  62.3389234  17.9422255  41.0205604  60.5343924   5.1746998
  41.2731125  60.0125445   4.4130461  40.0830163  60.3710069   5.2773681
  46.0648887  59.5379702  12.9821741  46.8511976  59.1199125  12.6312158
  46.3287592  60.4425794  13.1503389  46.2358965  64.9752553   7.6810398
  45.6004798  65.0487179   8.3931302  45.9056371  65.5646151   7.0029477
  51.4657314  59.4754935  13.8854720  52.1982486  58.9054152  14.1192549
  50.7096670  59.0876536  14.3261225  40.7401893  62.4372030   7.3771373
  40.6238151  61.7616933   8.0452457  40.8504153  61.9504404   6.5603526
  43.0833434  61.8982177  11.0818062  42.7191641  61.3712798  11.7930983
  43.9400550  61.5080646  10.9084547  48.9882735  53.1876510  18.3449328
  48.6566059  54.0571920  18.1210543  48.3928348  52.8712794  19.0243359
  42.7238921  56.9272077   6.0779410  42.8913323  57.7952313   6.4449882
  42.5336090  57.0899358   5.1540700  45.4814254  65.3889055  17.7445241
  45.1814977  66.2914094  17.6361048  45.1365314  65.1221239  18.5966394
  38.9326736  61.8402852  13.7781945  38.0077232  61.7079066  13.9859637
  39.1811149  62.6197072  14.2751888  48.8811398  57.9071596  15.4242678
  47.9728275  57.8387004  15.1301439  48.8298994  58.3843541  16.2524504
  42.7028142  59.3829734   7.0626077  42.5827767  59.8286785   7.9011558
  42.0080730  59.7315052   6.5039615  36.2935547  61.4836126  14.6125734
  36.4227928  61.7370605  15.5265146  35.6132998  62.0763834  14.2930389
  40.4635034  72.1533376  10.7116209  40.3859064  73.1041201  10.7904689
  39.8596678  71.8079248  11.3691135  42.9552264  59.3261241  23.3677575
  42.1785598  59.8855161  23.3580440  43.5942827  59.8118024  23.8892446
  50.7473044  56.1088034  17.2020552  50.1047425  56.4020567  16.5560347
  50.2427973  55.9940954  18.0073749  48.4013208  59.8551207   7.8906411
  49.3131064  60.0878594   7.7154109  47.8922855  60.4388251   7.3281490
  41.2098636  62.1346695  22.9295542  41.9513320  62.6731739  22.6530366
  40.5035622  62.7612983  23.0867094  46.6853976  64.2775835  21.5267704
  47.0937332  63.8358246  20.7822336  45.9631237  63.7028463  21.7801897
  43.0385046  59.2148442  18.9001261  43.8846241  59.6387855  19.0435910
  42.9783683  58.5582066  19.5939824  47.0082790  64.8377026  15.2819993
  46.3791653  65.0022740  14.5796061  46.6208452  65.2518635  16.0530957
  50.8872022  65.7731464  12.6364357  50.2023060  66.1530365  12.0861390
  50.9715872  66.3826790  13.3696304  46.1884491  56.8752810  20.5582435
  45.9445423  57.6294871  20.0216710  46.4644422  57.2538158  21.3929682
  48.1422954  63.4191423  19.2359700  48.3539849  64.0623182  18.5594081
  48.0952702  62.5853739  18.7681630  45.7449183  56.0309243  16.1396272
  44.8833662  56.3290497  16.4313010  45.7711618  56.2479642  15.2077305
  42.5610752  64.5751434  12.5470078  43.0249098  64.8539137  11.7574700
  42.2967550  63.6734878  12.3643169  39.4534833  64.1222915  15.4849841
  40.0236190  64.5510184  14.8467326  40.0442945  63.8405500  16.1834027
  41.4979638  60.6974586   9.3559643  42.2003682  61.1495630   9.8233569
  41.1660267  60.0558405   9.9839536  39.9460000  59.2886343  23.7310852
  39.3158660  59.9702624  23.9646249  39.8396088  59.1769424  22.7863991
  35.2404972  58.9558139  14.6576777  34.4504026  59.2115667  14.1816887
  35.7316220  59.7706477  14.7628817  49.2568782  66.2963378  17.4082057
  50.0786226  65.8943565  17.1264739  49.2531185  66.1931612  18.3598173
  37.1919718  59.3202718  11.6160253  36.3950881  59.4321412  12.1343749
  36.9645310  59.6589370  10.7501144  43.0225385  65.8447421  19.5642768
  43.0869818  66.3067829  20.4000940  42.3136309  65.2144786  19.6925078
  33.5242675  59.2088629  17.0891767  33.7750714  60.0935639  17.3549343
  34.0602224  59.0293231  16.3166859  57.3474775  62.6402126  13.7567029
  56.5938483  62.0709525  13.6011033  57.4822316  62.6064791  14.7037664
  42.7373403  67.5115529   9.4321748  42.6019078  68.3567065   9.8606596
  43.2783215  67.7134806   8.6687682  39.2240743  53.5907109  26.0936104
  38.8307688  53.0373307  26.7683748  40.0406883  53.9017687  26.4842621
  36.1902800  65.0290967  10.0049673  36.7027321  65.8234217  10.1555238
  36.8425513  64.3317257   9.9383275  37.9997685  68.1456723  12.0872427
  38.1764313  69.0674688  11.8993410  38.7954519  67.8315142  12.5166806
  42.1408704  55.0064988  23.6856360  42.8818417  55.6072141  23.6060823
  42.3726626  54.2642626  23.1274403  37.2850042  60.1921355  21.9634590
  37.1703557  59.2906612  22.2641689  36.4294559  60.4385052  21.6119406
  44.3641879  68.1339095  23.5622090  43.9205734  67.3475474  23.2442995
  45.0259093  68.3218246  22.8965981  39.1229001  69.6634897  18.0882769
  39.6736426  69.5351960  17.3159763  38.2840476  69.9629786  17.7377662
  46.4623117  68.4141895  21.5903492  46.4441593  69.2350776  21.0983761
  47.3843037  68.2895970  21.8153633  42.9196172  65.9286025  22.4327000
  43.4524508  65.1674313  22.2026308  42.3910253  65.6359677  23.1751154
  46.0865867  51.0346091  17.9620642  45.7430136  51.9247732  17.8859752
  46.4544829  50.8447748  17.0990227  34.1551717  63.3579621  10.7809244
  34.9926939  63.7676630  10.5642952  34.3329985  62.4179063  10.7509438
  46.0516149  61.0254702   6.4693077  45.5362773  61.7959306   6.7081464
  45.7793458  60.3519838   7.0926138  43.6363260  55.8704403  11.5278315
  42.7804857  55.4811253  11.3483954  44.0490212  55.9496363  10.6678101
  45.1662407  53.4050746  15.9269875  44.6627202  53.3680881  15.1137680
  45.4593014  54.3143489  15.9866532  41.4105293  53.4889476  14.9336057
  42.2758290  53.2932284  14.5741946  41.4782802  53.2599827  15.8605413
  51.0250423  63.7787056   8.4046250  50.2479866  63.4398216   7.9601412
  51.7041904  63.7839680   7.7301215  45.8402452  58.8981794   8.2952858
  45.5352588  59.2127943   9.1463001  46.7932895  58.9763214   8.3380191
  44.2848884  65.0572017   9.9445812  43.7570246  64.3224777   9.6319049
  43.7836387  65.8346694   9.6985780  49.2641730  63.2521038  15.0612858
  48.6065405  63.9420299  15.1492987  50.0682129  63.6417470  15.4046845
  39.0167612  55.7191683  12.3052424  39.5911364  55.4966865  11.5725616
  39.6038594  55.7880378  13.0581025  48.0747189  61.6065410  13.1116800
  48.5879071  62.2395402  13.6138510  48.7248413  61.0066606  12.7460160
  39.3437199  57.7496145   6.3248309  38.5074511  58.0870831   6.6457584
  39.2041969  57.6145124   5.3875446  41.3190280  52.5932932  11.0327493
  40.6654692  52.2781950  10.4084108  41.2770754  51.9708673  11.7587316
  42.4301484  62.8752227   2.9480785  41.5228546  62.6441481   3.1471934
  42.9272516  62.0789847   3.1354767  45.3369563  71.5849735   5.8677471
  44.6631262  71.8881431   6.4762429  45.7235385  72.3878815   5.5182928
  44.5528020  59.0814866  15.3575141  43.6350581  59.3029813  15.1996829
  44.9688164  59.1561176  14.4986848  45.3363068  60.4806282  10.4877821
  46.0834887  60.9927679  10.1784943  45.6054657  60.1590334  11.3482214
  43.6089718  62.9764822   7.4704775  42.7000937  62.6923855   7.5677245
  43.6384802  63.3963901   6.6108082  48.8408985  66.5871412  11.2395943
  48.3871312  65.7462322  11.2961133  48.2102952  67.2232810  11.5770723
  47.7841905  57.5163398  12.4696610  47.0464662  57.0040784  12.8006853
  48.0368678  57.0763779  11.6579887  47.2841925  68.4247909  12.1745761
  47.5764899  68.9852966  11.4558126  47.7940545  68.7176470  12.9298920
  47.8853532  50.2939650  13.0638379  48.1912409  49.4337013  12.7764295
  48.6106137  50.8857270  12.8637373  34.1777888  60.6970336  11.4519977
  33.9802288  60.1039697  10.7271044  33.6224552  60.3922547  12.1695916
  42.1574612  60.5893443  13.5714570  42.2123222  59.6367279  13.4957047
  41.3465814  60.7452882  14.0555869  43.3065806  64.5173566   4.8092854
  42.8685236  63.8009425   4.3498491  44.0476247  64.7449681   4.2477945
  40.0966972  59.2070503  11.3304949  39.2834837  59.5064673  11.7370142
  40.5925966  58.8126191  12.0479432  42.2475550  69.2028260  13.2639214
  42.2051729  69.4289106  12.3347746  43.1638249  68.9691634  13.4125015
  45.6941184  59.6712327  20.1619843  46.0490571  59.8983800  21.0214309
  46.3413315  60.0030704  19.5397099  51.4238920  62.7930763  10.8669172
  51.2856819  62.9832359   9.9390362  51.0675139  63.5550146  11.3237223
  39.5881047  56.7788858  16.9466184  40.2280426  56.6377617  16.2489148
  38.7558577  56.4923372  16.5704786  51.4508300  64.8607290  15.8780444
  51.8844807  64.7682579  16.7263498  52.1639881  64.8364791  15.2400460
  40.3641350  66.0791289  13.0601177  41.1581949  65.5841609  12.8583752
  39.6533043  65.5509152  12.6968882  45.1836195  68.4609384  17.4113544
  45.2373217  69.0300320  18.1791260  44.3150976  68.6311269  17.0467582
  36.6724114  60.2234370   9.1360929  35.7421702  60.1618826   9.3530892
  36.7681586  59.7010323   8.3397571  36.5909663  56.7489183  11.7239171
  36.8516480  57.6634516  11.6148332  37.4126835  56.2813626  11.8735784
  38.0634588  58.1626940  18.8937996  38.7357642  57.9544302  18.2450645
  37.2364375  57.9649026  18.4543228  52.3123850  64.9030991  18.4113329
  52.5059740  65.8076801  18.6572604  52.2124468  64.4438410  19.2451914
  43.9660160  54.7888881  20.9103657  43.3188075  55.4878831  20.8168133
  44.7361176  55.2225025  21.2779905  47.3738958  65.0537733  23.9854210
  47.2224465  64.8248285  23.0684293  47.3643638  66.0108335  23.9985555
  44.1424295  62.6269646  18.9700476  45.0716355  62.7780806  18.7969444
  43.7215325  62.7153667  18.1149123  42.9412626  66.6520311  16.7399014
  42.8023712  66.2839095  17.6124952  42.1527223  67.1667950  16.5682972
  43.5360778  71.7529407   8.0824550  43.7112534  71.2817450   8.8970173
  42.8493566  72.3795173   8.3105811  44.4917842  66.0301913  14.1287852
  44.1567674  65.9902683  15.0245502  43.9921787  65.3646629  13.6558262
  38.4662086  61.4369543  19.6540433  38.3281884  60.7049782  20.2551972
  39.3767009  61.3478443  19.3724621  47.4277033  63.3757948   4.4024911
  46.8106204  62.6504776   4.3057964  46.9593522  64.1367308   4.0591986
  41.0944386  61.1489503  19.1424112  41.8044005  60.5082695  19.1010731
  41.0513694  61.4002398  20.0650293  49.0831165  68.0856856  22.0630692
  49.0243711  67.4016076  21.3961275  49.4850683  68.8275846  21.6111318
  39.8073320  58.1354721  20.9619752  39.2710677  57.6845459  21.6141348
  39.2190029  58.2700629  20.2190216  38.1021864  74.9018770  14.8564411
  38.3418462  75.5337294  15.5343429  37.2591060  74.5506810  15.1429770
  39.2175579  57.5943372   3.5246216  38.3405046  57.4732173   3.1608462
  39.6933332  56.8029450   3.2725104  49.0848572  66.0496440  20.2944671
  48.1975351  65.7122362  20.4171070  49.6547123  65.3179471  20.5313437
  30.7377719  62.3820532  13.6187723  31.4248759  62.0682262  13.0308738
  30.5825848  63.2861896  13.3454974  35.5412441  57.2710728  18.0472746
  35.4570630  56.6636398  17.3123156  34.7195148  57.7619747  18.0482243
  42.6149726  70.7097892  17.2605915  42.5419897  71.5152864  17.7725219
  42.1727119  70.9089858  16.4353936  42.4039505  69.9469662  10.7708736
  41.6207027  70.4891342  10.8646961  43.1032250  70.4643642  11.1702977
  45.7136155  55.7564292  13.4142941  46.2104855  55.0034254  13.0944012
  44.9423137  55.7928608  12.8486151  53.5665913  61.4604657  15.0561233
  53.5555789  62.3429373  14.6855166  52.6983292  61.1076208  14.8615770
  45.0748409  70.6084726  19.4164073  45.7876381  71.2432191  19.3439975
  44.5838438  70.7048592  18.6004075  46.7965936  64.5135979  10.9881365
  45.8622215  64.6337441  10.8186069  46.9742605  63.6108446  10.7241375
  42.2971124  57.8981675  13.1414626  41.9268912  57.3452715  13.8295532
  42.7930217  57.2939808  12.5889626  50.1838487  60.3553298  11.5231399
  50.6498940  61.1881290  11.4491702  50.6345988  59.8898280  12.2276658
  40.1260323  68.3579170  20.2369644  40.8269782  68.9915653  20.3899038
  39.6555438  68.6993901  19.4765283  48.2514718  66.6997120   8.5217551
  48.5274562  66.5853714   9.4311425  47.3819217  66.3014604   8.4829724
  48.1555150  52.7233885  15.5622300  47.2418230  52.9538112  15.7304507
  48.5848252  52.8072329  16.4136333  47.9261609  60.9123777  18.0622194
  47.2733059  61.1599685  17.4074647  48.3041989  60.0987915  17.7284672
  44.8868783  70.9483470  12.1650365  45.0691177  70.1305126  12.6278117
  45.7101769  71.1651163  11.7275255  45.2210948  69.8751656   9.4265413
  45.7498714  69.3644110   8.8135575  45.4839168  69.5594186  10.2910946
  43.9749182  61.6543588  24.5488231  43.2989819  61.5537718  25.2190607
  44.7976816  61.4982802  25.0124229  35.7228041  67.8915525  17.1700747
  36.3081478  67.1459213  17.3028651  35.5252879  68.2019482  18.0537411
  38.5766696  70.9266772  12.1863189  37.9077071  71.4112900  11.7027229
  38.4379566  71.1735993  13.1006568  30.3145695  60.4621125  15.8905190
  30.3529795  59.9284716  16.6842308  29.8085988  59.9356331  15.2716167
  42.7171965  72.9610516  18.7845847  43.2690273  73.1242137  19.5494933
  43.0578158  73.5514954  18.1125872  37.6936458  55.3085666  19.3867732
  37.7577784  56.1700496  18.9745130  37.6303578  54.6959667  18.6540091
  37.1688730  57.3808798  23.0340766  37.7960769  56.9985875  23.6478291
  36.3116649  57.1623000  23.3996459  47.5682839  67.7871773  24.6394502
  48.1122743  68.4001732  24.1449457  46.9869684  68.3451352  25.1561515
  33.9454273  59.1885227   8.9659121  34.2407714  58.2795906   8.9126175
  33.0442309  59.1672967   8.6440124  45.8540352  70.9092491  15.7709530
  45.7291491  70.1082231  15.2620475  46.5119443  71.4038685  15.2823500
  37.4748520  57.2641224  14.9486670  36.7535106  57.8777191  14.8094143
  38.2641776  57.7998989  14.8703316  47.9175260  68.7101511  17.3989080
  46.9705596  68.5906863  17.3267406  48.2658033  67.8224009  17.4815341
  40.2774834  54.5995650  21.2227322  40.8009235  54.8457947  21.9853631
  40.0587167  55.4315685  20.8030459  35.6742115  56.8699325   9.0898446
  35.3454821  55.9896704   8.9073552  36.0281485  56.8146994   9.9774836
  44.9221694  68.5054228  13.5993432  44.7746656  67.5770935  13.7801002
  45.7475187  68.5274318  13.1150507  38.7883938  57.1572295   9.4573924
  39.1280010  57.6858216   8.7352532  39.2356058  57.4952701  10.2332491
  48.5255815  69.3282786  14.6858305  49.4502363  69.1225648  14.5482756
  48.3571119  69.0799187  15.5947646  41.4827379  55.5409345  18.9076992
  41.1424199  54.7417158  19.3097672  40.7766385  55.8411056  18.3353825
  42.1343850  52.6258658  17.3604315  42.9569920  52.1519136  17.2383205
  42.3781914  53.4049142  17.8603001  40.7752085  55.6546916   7.6567217
  41.4960447  56.0328169   7.1530934  40.1517389  56.3735793   7.7602195
  44.9183208  56.3592065   8.5925549  45.1346822  57.2416703   8.2914377
  44.4377275  55.9678279   7.8631191  39.6582429  59.3177778  15.1696294
  39.5127010  59.6318082  16.0620575  39.1807633  59.9362679  14.6167192
  41.5178812  56.3080326  15.2177183  41.5040381  55.4121420  14.8809481
  42.2351240  56.3150990  15.8515469  43.3704943  56.7417667  17.2630311
  43.1122721  57.6634737  17.2614641  42.8389983  56.3448101  17.9530775
  48.3151132  69.8468454  10.0420396  48.4888009  69.2814876   9.2894249
  48.8080023  70.6469349   9.8599886  34.1328091  61.8583123  18.1083955
  33.5881559  62.6342931  18.2404229  35.0107441  62.2053927  17.9503076
  40.9215708  55.1894707  10.4864753  41.0431619  54.2611353  10.6855641
  40.6317750  55.2033393   9.5743069  43.7906898  52.8749617  13.6231473
  43.8128595  52.9388950  12.6683453  44.2074957  52.0354126  13.8171979
  54.1690523  62.6104877  11.6610696  54.6121669  61.8612202  11.2629819
  53.2917033  62.6015013  11.2784428  49.3026304  69.1635218   7.1417294
  49.9977209  69.7841911   7.3604609  49.6449454  68.3130569   7.4169672
  34.9194113  60.9853019  21.0014112  34.1775849  61.1335654  21.5878742
  34.5986857  61.2461285  20.1380861  51.2017727  66.6134924   8.6704625
  51.7269051  66.9522196   7.9453945  51.1140080  65.6781939   8.4867760
  42.8637776  70.5268997  20.7994502  43.1724902  70.2818144  21.6717201
  43.6613258  70.7315636  20.3113372  42.8858388  72.6806907  13.0299878
  42.4463378  72.1883286  13.7232735  43.6366505  72.1379875  12.7891954
  35.3650727  68.8718448  13.0324506  36.1908747  68.5722220  12.6523150
  35.0144779  68.1026070  13.4814295  40.3332260  68.2244916  15.1022180
  39.7112269  67.5615621  14.8024408  41.0037127  68.2506048  14.4195828
  33.5659332  66.7904774  13.9913440  32.7291240  66.3626949  13.8097441
  33.5382977  66.9837218  14.9284231  40.4056788  56.7026704  24.6954686
  40.4544943  57.5788827  24.3132456  40.9479302  56.1604097  24.1226329
  50.8911633  67.2467827  23.9755823  50.1007177  67.2291966  23.4360323
  50.6544988  67.7856121  24.7304860  51.0109508  64.0960294  21.2888552
  51.0607513  63.9310301  22.2304074  50.9023432  63.2287553  20.8986432
  39.8945767  66.7748839   8.5780641  40.0433887  67.4584304   7.9247313
  40.7012210  66.7553929   9.0930096  48.3013271  60.0791222  22.6047858
  49.2023133  59.9397687  22.3131856  48.3761245  60.2445677  23.5446036
  42.6356076  57.4558076  21.4501045  41.7659385  57.7491643  21.1783633
  42.8715556  58.0398521  22.1708308  52.5127705  66.5157235  21.5330573
  52.2212513  66.8787216  22.3694034  51.8999836  65.8024243  21.3543905
  53.7123387  64.0810115  14.0533143  54.5470279  64.5199919  14.2170704
  53.8482516  63.6048768  13.2341389  50.7614893  61.6389850  20.0010631
  51.2369015  61.8317496  19.1929483  49.8380459  61.6949036  19.7554015
  37.6498400  62.8014017   9.5841709  37.4044442  61.8976347   9.7821920
  37.8194314  62.8031167   8.6421187  45.3395110  53.6737693  18.9666465
  45.8577054  54.4098720  18.6412954  44.9850243  53.9801687  19.8013224
  36.9194047  58.5342375   7.0827871  36.2263292  58.6086730   6.4267907
  36.6745799  57.7702718   7.6049388  45.5907704  50.0937976  14.4867362
  45.8709458  49.4261165  15.1127788  46.3758311  50.2867072  13.9742026
  43.3941172  69.2696970   6.0492388  42.8215140  69.8887157   5.5962860
  43.9673966  69.8196332   6.5832310  49.4616562  58.5155610  18.2338937
  50.4133985  58.6153708  18.2551161  49.2920013  57.7233878  18.7437021
  47.4830942  55.6011193  18.4198338  46.8880874  55.8816206  17.7244826
  47.1980639  56.0905094  19.1915079  46.6138432  69.5534120   7.1800970
  47.5469105  69.4879682   7.3833846  46.5261645  70.3890387   6.7215503
  49.2426449  68.8699990   4.1404918  49.1640080  68.5359854   5.0340676
  50.0636116  69.3621758   4.1396390  51.9404640  61.7361730  17.3481236
  51.9080960  60.7977730  17.5340920  52.5505264  61.8145766  16.6147061
  43.7787971  60.6057783   3.3908440  44.7247076  60.4763991   3.4596859
  43.4002216  59.8672444   3.8677869  52.0899129  58.5272773  17.3939520
  51.5738177  57.7431230  17.2069449  52.9739077  58.1991490  17.5586039
  49.7509856  52.2713789  13.3535332  49.5534677  51.9628877  14.2378664
  50.3609561  52.9975428  13.4833262  57.7581190  62.7977736  16.4887273
  58.4884578  62.5363025  17.0494977  57.1488135  62.0606458  16.5289341
  55.8396487  60.9385599  17.0861724  55.1129651  60.8041564  16.4778216
  55.4243774  61.2462428  17.8918442  43.6626664  64.6575529  24.8509097
  44.5829673  64.8354128  25.0449144  43.6276247  63.7131574  24.6988797
  41.9630888  58.5307759   3.3263326  41.0562344  58.2340872   3.4026039
  42.2406869  58.2337577   2.4597612  32.8808829  59.8514122  13.7762372
  32.5611613  58.9979431  13.4836746  32.3342257  60.0662701  14.5320339
  36.6588736  62.5676563  17.4931879  36.8774746  63.4993671  17.5119912
  37.0714510  62.2084538  18.2786682  43.5792954  53.0744649   9.4807567
  42.7693682  52.7291734   9.8562813  44.2677371  52.7652192  10.0695179
  45.5083502  52.1522696  11.1031864  46.0614541  52.5718149  11.7621887
  45.7453589  51.2258444  11.1454820  41.5316601  58.1409769  26.8834628
  41.4313328  59.0904126  26.8146719  41.3138143  57.8128008  26.0110698
  40.7329673  55.3894694   3.4675305  41.5948837  55.7149593   3.7271122
  40.9180017  54.6026190   2.9548371  32.7497089  63.4717034  15.7455494
  32.0560560  63.0570987  15.2325448  33.4970080  63.5137570  15.1488913
  48.8862309  54.2623221  10.6110528  48.3060978  54.9208025  10.2288580
  48.6198242  53.4400565  10.1997945  47.3365876  53.6628278  12.8131848
  47.8365654  53.7744813  12.0046167  47.9801484  53.3589331  13.4532657
  41.3947871  61.5706908  25.6999689  40.9114953  62.3707268  25.9063578
  41.4808810  61.5814853  24.7467133  34.6633831  63.4035288  13.6221509
  34.6404519  63.5022975  12.6703392  34.9734468  64.2500438  13.9438675
  37.3221209  65.4611443  17.7368123  38.2764462  65.4295385  17.6698055
  37.1233733  65.0002066  18.5518349  37.9120591  64.0312559  20.3038921
  38.7313480  64.5256637  20.3273758  38.1857399  63.1144527  20.2756488
  47.6687187  56.4223311   9.6666876  46.7813042  56.7072962   9.4487071
  48.0841176  56.2617074   8.8194153  51.0201723  56.4469832  13.3821215
  51.7962114  56.9366284  13.6545832  50.2949858  56.8727886  13.8393085
  53.4574282  57.1597451  14.4395156  54.0518773  56.9193187  13.7288464
  53.5300866  56.4404582  15.0668692  35.6771438  71.0031062  14.7538321
  35.5425906  70.2431463  14.1876319  35.2603500  71.7271962  14.2867110
  46.8130401  66.1867986   3.7614896  47.5166251  66.3917988   4.3772552
  46.0893049  66.7544748   4.0263980  47.6428211  61.9377847   9.8817166
  47.5863412  62.3946398   9.0424799  48.1956553  61.1768532   9.7040009
  51.4533017  57.7267579  10.7067286  51.1969951  57.3264215  11.5375494
  50.8285885  58.4411373  10.5817425  55.7645355  60.4663652  13.2138577
  55.2044913  60.5356841  13.9870139  55.1588858  60.2904637  12.4938073
  38.8340564  71.9000379  14.9656764  38.7172948  72.8445812  14.8635454
  38.0133010  71.5973941  15.3542563  48.7217098  66.6250515   5.8113356
  49.5562702  66.1931713   5.6290831  48.5601441  66.4532529   6.7390251
  48.3762990  63.1282628   7.1769696  48.3211794  62.9626900   6.2358140
  47.7509046  63.8358661   7.3331885  33.1655505  58.3650693  21.0031118
  33.8114369  57.8549647  21.4918343  32.9572656  59.1019374  21.5774543
  45.6908897  65.4331540  26.5023258  46.5600057  65.6072192  26.1409893
  45.2115649  66.2525957  26.3798988  41.6859116  52.6290737   6.7555014
  41.6737786  53.5732577   6.9123285  42.5782538  52.4460883   6.4614475
  39.8595078  72.5528641  18.1812692  40.7622324  72.5852251  18.4979187
  39.6332448  71.6229092  18.1959028  41.6148680  71.3059628  14.8422771
  40.6644311  71.3061489  14.7287143  41.9181166  70.5592362  14.3258805
  45.5011235  49.2233514  11.0100951  44.7343631  48.6692001  11.1557633
  45.9121940  49.2955383  11.8715102  37.5052996  55.5118310  25.1006132
  38.3684458  55.1555115  25.3109457  36.9318407  55.1732204  25.7881536
  57.3501373  77.1420166  15.9068533  57.9879783  77.0226913  15.2031873
  57.2322216  78.0901010  15.9656485  54.1591080  77.0947594  15.8430058
  53.8209591  76.9788659  14.9550593  55.0280848  76.6938759  15.8231064
  50.0177895  78.9483071  11.8326949  49.4542760  78.8573007  11.0643236
  49.9030290  78.1282975  12.3129441  54.6410863  78.2482446  21.8016263
  54.6299503  77.8535244  20.9296767  54.8031502  77.5148518  22.3950035
  47.5642327  80.4434262  14.6711169  48.3563619  80.1025087  14.2557468
  47.8038977  80.5529237  15.5913322  55.5977454  82.6154038   7.1441414
  54.9465434  83.2008119   6.7575427  56.3921817  83.1460233   7.2036451
  49.5233081  79.7043175   7.5428548  50.2963957  79.1572162   7.4041424
  49.8758480  80.5687425   7.7543009  51.3618124  81.0319558  20.7495447
  51.0707990  81.9365189  20.6342113  51.9975108  81.0736085  21.4639517
  52.2874330  78.4096406  17.3396807  52.8837903  78.1852429  16.6253770
  52.3449302  77.6681152  17.9422255  51.8599359  75.8635842   5.1746998
  52.1124880  75.3417363   4.4130461  50.9223918  75.7001987   5.2773681
  56.9042642  74.8671620  12.9821741  57.6905731  74.4491043  12.6312158
  57.1681346  75.7717712  13.1503389  57.0752719  80.3044470   7.6810398
  56.4398552  80.3779097   8.3931302  56.7450125  80.8938069   7.0029477
  62.3051069  74.8046853  13.8854720  63.0376241  74.2346070  14.1192549
  61.5490425  74.4168454  14.3261225  51.5795648  77.7663947   7.3771373
  51.4631906  77.0908851   8.0452457  51.6897908  77.2796321   6.5603526
  53.9227189  77.2274095  11.0818062  53.5585396  76.7004716  11.7930983
  54.7794304  76.8372564  10.9084547  59.8276489  68.5168427  18.3449328
  59.4959814  69.3863838  18.1210543  59.2322103  68.2004711  19.0243359
  53.5632676  72.2563994   6.0779410  53.7307078  73.1244231   6.4449882
  53.3729845  72.4191276   5.1540700  56.3208009  80.7180973  17.7445241
  56.0208732  81.6206012  17.6361048  55.9759068  80.4513156  18.5966394
  49.7720490  77.1694770  13.7781945  48.8470987  77.0370984  13.9859637
  50.0204903  77.9488989  14.2751888  59.7205153  73.2363513  15.4242678
  58.8122030  73.1678922  15.1301439  59.6692748  73.7135458  16.2524504
  53.5421896  74.7121652   7.0626077  53.4221522  75.1578703   7.9011558
  52.8474485  75.0606969   6.5039615  47.1329301  76.8128044  14.6125734
  47.2621682  77.0662522  15.5265146  46.4526753  77.4055752  14.2930389
  51.3028789  87.4825294  10.7116209  51.2252818  88.4333119  10.7904689
  50.6990432  87.1371166  11.3691135  53.7946018  74.6553159  23.3677575
  53.0179352  75.2147079  23.3580440  54.4336581  75.1409942  23.8892446
  61.5866799  71.4379952  17.2020552  60.9441179  71.7312485  16.5560347
  61.0821727  71.3232872  18.0073749  59.2406963  75.1843125   7.8906411
  60.1524819  75.4170512   7.7154109  58.7316610  75.7680169   7.3281490
  52.0492391  77.4638612  22.9295542  52.7907075  78.0023656  22.6530366
  51.3429376  78.0904901  23.0867094  57.5247730  79.6067753  21.5267704
  57.9331086  79.1650163  20.7822336  56.8024992  79.0320380  21.7801897
  53.8778800  74.5440360  18.9001261  54.7239995  74.9679773  19.0435910
  53.8177438  73.8873984  19.5939824  57.8476545  80.1668943  15.2819993
  57.2185407  80.3314658  14.5796061  57.4602207  80.5810553  16.0530957
  61.7265777  81.1023381  12.6364357  61.0416815  81.4822283  12.0861390
  61.8109626  81.7118708  13.3696304  57.0278246  72.2044728  20.5582435
  56.7839177  72.9586788  20.0216710  57.3038176  72.5830076  21.3929682
  58.9816708  78.7483340  19.2359700  59.1933604  79.3915100  18.5594081
  58.9346457  77.9145657  18.7681630  56.5842937  71.3601161  16.1396272
  55.7227416  71.6582414  16.4313010  56.6105372  71.5771560  15.2077305
  53.4004507  79.9043351  12.5470078  53.8642852  80.1831054  11.7574700
  53.1361305  79.0026796  12.3643169  50.2928588  79.4514833  15.4849841
  50.8629945  79.8802101  14.8467326  50.8836700  79.1697418  16.1834027
  52.3373393  76.0266504   9.3559643  53.0397436  76.4787548   9.8233569
  52.0054021  75.3850323   9.9839536  50.7853754  74.6178260  23.7310852
  50.1552415  75.2994541  23.9646249  50.6789842  74.5061342  22.7863991
  46.0798727  74.2850057  14.6576777  45.2897781  74.5407585  14.1816887
  46.5709974  75.0998394  14.7628817  60.0962536  81.6255296  17.4082057
  60.9179980  81.2235483  17.1264739  60.0924939  81.5223530  18.3598173
  48.0313472  74.6494636  11.6160253  47.2344635  74.7613330  12.1343749
  47.8039064  74.9881288  10.7501144  53.8619140  81.1739339  19.5642768
  53.9263572  81.6359746  20.4000940  53.1530064  80.5436704  19.6925078
  44.3636430  74.5380547  17.0891767  44.6144468  75.4227557  17.3549343
  44.8995978  74.3585148  16.3166859  68.1868529  77.9694044  13.7567029
  67.4332238  77.4001442  13.6011033  68.3216071  77.9356709  14.7037664
  53.5767157  82.8407446   9.4321748  53.4412832  83.6858982   9.8606596
  54.1176970  83.0426724   8.6687682  50.0634497  68.9199026  26.0936104
  49.6701443  68.3665225  26.7683748  50.8800637  69.2309605  26.4842621
  47.0296555  80.3582885  10.0049673  47.5421075  81.1526135  10.1555238
  47.6819268  79.6609175   9.9383275  48.8391440  83.4748641  12.0872427
  49.0158068  84.3966605  11.8993410  49.6348273  83.1607060  12.5166806
  52.9802458  70.3356905  23.6856360  53.7212171  70.9364059  23.6060823
  53.2120381  69.5934543  23.1274403  48.1243796  75.5213273  21.9634590
  48.0097311  74.6198530  22.2641689  47.2688314  75.7676969  21.6119406
  55.2035634  83.4631013  23.5622090  54.7599488  82.6767392  23.2442995
  55.8652847  83.6510163  22.8965981  49.9622755  84.9926815  18.0882769
  50.5130180  84.8643878  17.3159763  49.1234231  85.2921704  17.7377662
  57.3016872  83.7433813  21.5903492  57.2835347  84.5642694  21.0983761
  58.2236792  83.6187888  21.8153633  53.7589926  81.2577942  22.4327000
  54.2918263  80.4966231  22.2026308  53.2304007  80.9651594  23.1751154
  56.9259621  66.3638008  17.9620642  56.5823890  67.2539650  17.8859752
  57.2938584  66.1739666  17.0990227  44.9945472  78.6871539  10.7809244
  45.8320694  79.0968547  10.5642952  45.1723739  77.7470981  10.7509438
  56.8909904  76.3546619   6.4693077  56.3756527  77.1251224   6.7081464
  56.6187212  75.6811756   7.0926138  54.4757015  71.1996320  11.5278315
  53.6198611  70.8103171  11.3483954  54.8883967  71.2788281  10.6678101
  56.0056161  68.7342664  15.9269875  55.5020957  68.6972799  15.1137680
  56.2986768  69.6435406  15.9866532  52.2499047  68.8181393  14.9336057
  53.1152044  68.6224202  14.5741946  52.3176556  68.5891745  15.8605413
  61.8644178  79.1078974   8.4046250  61.0873621  78.7690134   7.9601412
  62.5435659  79.1131597   7.7301215  56.6796207  74.2273712   8.2952858
  56.3746342  74.5419861   9.1463001  57.6326649  74.3055131   8.3380191
  55.1242639  80.3863935   9.9445812  54.5964000  79.6516694   9.6319049
  54.6230141  81.1638611   9.6985780  60.1035485  78.5812955  15.0612858
  59.4459159  79.2712217  15.1492987  60.9075884  78.9709387  15.4046845
  49.8561366  71.0483601  12.3052424  50.4305118  70.8258783  11.5725616
  50.4432349  71.1172296  13.0581025  58.9140944  76.9357328  13.1116800
  59.4272825  77.5687320  13.6138510  59.5642167  76.3358524  12.7460160
  50.1830953  73.0788062   6.3248309  49.3468266  73.4162749   6.6457584
  50.0435723  72.9437042   5.3875446  52.1584034  67.9224850  11.0327493
  51.5048446  67.6073867  10.4084108  52.1164508  67.3000591  11.7587316
  53.2695239  78.2044145   2.9480785  52.3622301  77.9733399   3.1471934
  53.7666271  77.4081764   3.1354767  55.3921774  74.4106784  15.3575141
  54.4744336  74.6321731  15.1996829  55.8081918  74.4853094  14.4986848
  56.1756822  75.8098199  10.4877821  56.9228641  76.3219596  10.1784943
  56.4448412  75.4882252  11.3482214  54.4483472  78.3056740   7.4704775
  53.5394692  78.0215773   7.5677245  54.4778556  78.7255819   6.6108082
  59.6802740  81.9163330  11.2395943  59.2265067  81.0754239  11.2961133
  59.0496706  82.5524728  11.5770723  58.6235659  72.8455316  12.4696610
  57.8858416  72.3332702  12.8006853  58.8762433  72.4055697  11.6579887
  58.1235679  83.7539826  12.1745761  58.4158653  84.3144883  11.4558126
  58.6334300  84.0468387  12.9298920  58.7247287  65.6231568  13.0638379
  59.0306163  64.7628931  12.7764295  59.4499891  66.2149188  12.8637373
  45.0171643  76.0262254  11.4519977  44.8196043  75.4331615  10.7271044
  44.4618307  75.7214464  12.1695916  52.9968366  75.9185361  13.5714570
  53.0516976  74.9659197  13.4957047  52.1859568  76.0744800  14.0555869
  54.1459560  79.8465484   4.8092854  53.7078990  79.1301343   4.3498491
  54.8870001  80.0741598   4.2477945  50.9360726  74.5362420  11.3304949
  50.1228592  74.8356591  11.7370142  51.4319721  74.1418109  12.0479432
  53.0869304  84.5320177  13.2639214  53.0445483  84.7581024  12.3347746
  54.0032003  84.2983552  13.4125015  56.5334938  75.0004245  20.1619843
  56.8884326  75.2275718  21.0214309  57.1807069  75.3322622  19.5397099
  62.2632675  78.1222681  10.8669172  62.1250574  78.3124277   9.9390362
  61.9068894  78.8842064  11.3237223  50.4274801  72.1080776  16.9466184
  51.0674180  71.9669535  16.2489148  49.5952332  71.8215289  16.5704786
  62.2902055  80.1899208  15.8780444  62.7238561  80.0974497  16.7263498
  63.0033635  80.1656708  15.2400460  51.2035105  81.4083206  13.0601177
  51.9975703  80.9133526  12.8583752  50.4926797  80.8801069  12.6968882
  56.0229949  83.7901302  17.4113544  56.0766972  84.3592238  18.1791260
  55.1544731  83.9603187  17.0467582  47.5117868  75.5526288   9.1360929
  46.5815457  75.4910744   9.3530892  47.6075340  75.0302241   8.3397571
  47.4303417  72.0781101  11.7239171  47.6910235  72.9926434  11.6148332
  48.2520590  71.6105543  11.8735784  48.9028343  73.4918858  18.8937996
  49.5751396  73.2836220  18.2450645  48.0758129  73.2940944  18.4543228
  63.1517604  80.2322908  18.4113329  63.3453494  81.1368719  18.6572604
  63.0518222  79.7730327  19.2451914  54.8053915  70.1180799  20.9103657
  54.1581830  70.8170749  20.8168133  55.5754930  70.5516943  21.2779905
  58.2132713  80.3829651  23.9854210  58.0618219  80.1540203  23.0684293
  58.2037392  81.3400253  23.9985555  54.9818049  77.9561564  18.9700476
  55.9110109  78.1072723  18.7969444  54.5609079  78.0445585  18.1149123
  53.7806381  81.9812228  16.7399014  53.6417467  81.6131013  17.6124952
  52.9920977  82.4959868  16.5682972  54.3754533  87.0821325   8.0824550
  54.5506289  86.6109368   8.8970173  53.6887321  87.7087091   8.3105811
  55.3311596  81.3593831  14.1287852  54.9961429  81.3194601  15.0245502
  54.8315542  80.6938547  13.6558262  49.3055840  76.7661461  19.6540433
  49.1675638  76.0341700  20.2551972  50.2160764  76.6770361  19.3724621
  51.9338141  76.4781420  19.1424112  52.6437759  75.8374613  19.1010731
  51.8907449  76.7294315  20.0650293  59.9224919  83.4148774  22.0630692
  59.8637466  82.7307994  21.3961275  60.3244438  84.1567764  21.6111318
  50.6467075  73.4646638  20.9619752  50.1104432  73.0137377  21.6141348
  50.0583783  73.5992547  20.2190216  48.9415618  90.2310688  14.8564411
  49.1812216  90.8629212  15.5343429  48.0984815  89.8798728  15.1429770
  50.0569334  72.9235290   3.5246216  49.1798800  72.8024090   3.1608462
  50.5327087  72.1321368   3.2725104  59.9242327  81.3788358  20.2944671
  59.0369105  81.0414279  20.4171070  60.4940878  80.6471389  20.5313437
  41.5771474  77.7112449  13.6187723  42.2642514  77.3974179  13.0308738
  41.4219603  78.6153814  13.3454974  46.3806196  72.6002646  18.0472746
  46.2964385  71.9928315  17.3123156  45.5588902  73.0911664  18.0482243
  53.4543480  86.0389810  17.2605915  53.3813652  86.8444781  17.7725219
  53.0120873  86.2381776  16.4353936  53.2433260  85.2761580  10.7708736
  52.4600782  85.8183260  10.8646961  53.9426005  85.7935560  11.1702977
  56.5529910  71.0856209  13.4142941  57.0498609  70.3326172  13.0944012
  55.7816891  71.1220526  12.8486151  64.4059667  76.7896575  15.0561233
  64.3949543  77.6721290  14.6855166  63.5377047  76.4368126  14.8615770
  55.9142164  85.9376644  19.4164073  56.6270136  86.5724109  19.3439975
  55.4232192  86.0340510  18.6004075  57.6359691  79.8427897  10.9881365
  56.7015969  79.9629359  10.8186069  57.8136359  78.9400363  10.7241375
  53.1364879  73.2273592  13.1414626  52.7662666  72.6744633  13.8295532
  53.6323971  72.6231726  12.5889626  61.0232242  75.6845216  11.5231399
  61.4892694  76.5173208  11.4491702  61.4739742  75.2190198  12.2276658
  50.9654077  83.6871087  20.2369644  51.6663537  84.3207570  20.3899038
  50.4949192  84.0285819  19.4765283  59.0908473  82.0289037   8.5217551
  59.3668317  81.9145632   9.4311425  58.2212972  81.6306522   8.4829724
  58.9948905  68.0525803  15.5622300  58.0811984  68.2830030  15.7304507
  59.4242006  68.1364247  16.4136333  58.7655363  76.2415695  18.0622194
  58.1126813  76.4891602  17.4074647  59.1435743  75.4279833  17.7284672
  55.7262537  86.2775388  12.1650365  55.9084932  85.4597044  12.6278117
  56.5495523  86.4943080  11.7275255  56.0604702  85.2043573   9.4265413
  56.5892469  84.6936028   8.8135575  56.3232922  84.8886103  10.2910946
  54.8142936  76.9835506  24.5488231  54.1383573  76.8829635  25.2190607
  55.6370570  76.8274720  25.0124229  46.5621795  83.2207442  17.1700747
  47.1475232  82.4751130  17.3028651  46.3646634  83.5311399  18.0537411
  49.4160450  86.2558690  12.1863189  48.7470826  86.7404818  11.7027229
  49.2773320  86.5027910  13.1006568  41.1539450  75.7913043  15.8905190
  41.1923549  75.2576633  16.6842308  40.6479743  75.2648248  15.2716167
  53.5565719  88.2902433  18.7845847  54.1084027  88.4534055  19.5494933
  53.8971912  88.8806871  18.1125872  48.5330212  70.6377583  19.3867732
  48.5971539  71.4992414  18.9745130  48.4697332  70.0251585  18.6540091
  48.0082485  72.7100716  23.0340766  48.6354524  72.3277793  23.6478291
  47.1510404  72.4914918  23.3996459  58.4076593  83.1163691  24.6394502
  58.9516497  83.7293649  24.1449457  57.8263438  83.6743269  25.1561515
  44.7848028  74.5177145   8.9659121  45.0801469  73.6087823   8.9126175
  43.8836063  74.4964884   8.6440124  56.6934106  86.2384409  15.7709530
  56.5685246  85.4374149  15.2620475  57.3513197  86.7330602  15.2823500
  48.3142275  72.5933141  14.9486670  47.5928860  73.2069109  14.8094143
  49.1035530  73.1290906  14.8703316  58.7569015  84.0393429  17.3989080
  57.8099350  83.9198780  17.3267406  59.1051788  83.1515927  17.4815341
  51.1168588  69.9287568  21.2227322  51.6402990  70.1749864  21.9853631
  50.8980921  70.7607603  20.8030459  46.5135869  72.1991243   9.0898446
  46.1848575  71.3188621   8.9073552  46.8675240  72.1438911   9.9774836
  55.7615448  83.8346145  13.5993432  55.6140410  82.9062853  13.7801002
  56.5868941  83.8566236  13.1150507  49.6277692  72.4864212   9.4573924
  49.9673765  73.0150134   8.7352532  50.0749813  72.8244618  10.2332491
  59.3649570  84.6574704  14.6858305  60.2896117  84.4517565  14.5482756
  59.1964873  84.4091105  15.5947646  52.3221133  70.8701263  18.9076992
  51.9817953  70.0709076  19.3097672  51.6160139  71.1702974  18.3353825
  52.9737605  67.9550575  17.3604315  53.7963674  67.4811054  17.2383205
  53.2175668  68.7341059  17.8603001  51.6145839  70.9838834   7.6567217
  52.3354202  71.3620087   7.1530934  50.9911144  71.7027711   7.7602195
  55.7576962  71.6883983   8.5925549  55.9740577  72.5708621   8.2914377
  55.2771029  71.2970196   7.8631191  50.4976184  74.6469696  15.1696294
  50.3520764  74.9609999  16.0620575  50.0201387  75.2654596  14.6167192
  52.3572567  71.6372244  15.2177183  52.3434135  70.7413337  14.8809481
  53.0744995  71.6442908  15.8515469  54.2098697  72.0709584  17.2630311
  53.9516475  72.9926655  17.2614641  53.6783738  71.6740019  17.9530775
  59.1544886  85.1760371  10.0420396  59.3281764  84.6106794   9.2894249
  59.6473777  85.9761266   9.8599886  44.9721846  77.1875040  18.1083955
  44.4275314  77.9634848  18.2404229  45.8501196  77.5345845  17.9503076
  51.7609462  70.5186624  10.4864753  51.8825374  69.5903271  10.6855641
  51.4711505  70.5325310   9.5743069  54.6300653  68.2041535  13.6231473
  54.6522350  68.2680868  12.6683453  55.0468712  67.3646043  13.8171979
  65.0084277  77.9396794  11.6610696  65.4515423  77.1904120  11.2629819
  64.1310787  77.9306931  11.2784428  45.7587868  76.3144937  21.0014112
  45.0169604  76.4627572  21.5878742  45.4380612  76.5753202  20.1380861
  62.0411482  81.9426841   8.6704625  62.5662806  82.2814114   7.9453945
  61.9533834  81.0073857   8.4867760  53.7031530  85.8560915  20.7994502
  54.0118657  85.6110062  21.6717201  54.5007012  86.0607553  20.3113372
  53.7252142  88.0098825  13.0299878  53.2857133  87.5175203  13.7232735
  54.4760259  87.4671792  12.7891954  46.2044481  84.2010365  13.0324506
  47.0302501  83.9014137  12.6523150  45.8538533  83.4317988  13.4814295
  51.1726015  83.5536834  15.1022180  50.5506024  82.8907539  14.8024408
  51.8430881  83.5797966  14.4195828  44.4053086  82.1196692  13.9913440
  43.5684995  81.6918866  13.8097441  44.3776732  82.3129135  14.9284231
  51.2450542  72.0318622  24.6954686  51.2938698  72.9080745  24.3132456
  51.7873056  71.4896015  24.1226329  61.7305388  82.5759745  23.9755823
  60.9400931  82.5583884  23.4360323  61.4938742  83.1148039  24.7304860
  61.8503263  79.4252211  21.2888552  61.9001268  79.2602219  22.2304074
  61.7417186  78.5579470  20.8986432  50.7339521  82.1040757   8.5780641
  50.8827642  82.7876221   7.9247313  51.5405965  82.0845847   9.0930096
  59.1407025  75.4083139  22.6047858  60.0416888  75.2689604  22.3131856
  59.2155000  75.5737594  23.5446036  53.4749830  72.7849994  21.4501045
  52.6053140  73.0783560  21.1783633  53.7109311  73.3690439  22.1708308
  63.3521460  81.8449153  21.5330573  63.0606268  82.2079133  22.3694034
  62.7393591  81.1316161  21.3543905  64.5517142  79.4102033  14.0533143
  65.3864033  79.8491837  14.2170704  64.6876271  78.9340686  13.2341389
  61.6008648  76.9681768  20.0010631  62.0762769  77.1609414  19.1929483
  60.6774213  77.0240953  19.7554015  48.4892154  78.1305935   9.5841709
  48.2438196  77.2268265   9.7821920  48.6588069  78.1323085   8.6421187
  56.1788864  69.0029611  18.9666465  56.6970808  69.7390638  18.6412954
  55.8243997  69.3093604  19.8013224  47.7587802  73.8634292   7.0827871
  47.0657047  73.9378647   6.4267907  47.5139554  73.0994636   7.6049388
  56.4301458  65.4229894  14.4867362  56.7103212  64.7553083  15.1127788
  57.2152065  65.6158989  13.9742026  60.3010317  73.8447528  18.2338937
  61.2527740  73.9445625  18.2551161  60.1313767  73.0525796  18.7437021
  58.3224696  70.9303111  18.4198338  57.7274628  71.2108124  17.7244826
  58.0374393  71.4197012  19.1915079  62.7798395  77.0653647  17.3481236
  62.7474715  76.1269648  17.5340920  63.3899018  77.1437684  16.6147061
  54.6181725  75.9349700   3.3908440  55.5640830  75.8055908   3.4596859
  54.2395970  75.1964362   3.8677869  62.9292883  73.8564691  17.3939520
  62.4131932  73.0723147  17.2069449  63.8132832  73.5283407  17.5586039
  60.5903610  67.6005706  13.3535332  60.3928431  67.2920794  14.2378664
  61.2003316  68.3267345  13.4833262  68.5974944  78.1269654  16.4887273
  69.3278333  77.8654942  17.0494977  67.9881890  77.3898376  16.5289341
  66.6790242  76.2677517  17.0861724  65.9523405  76.1333482  16.4778216
  66.2637528  76.5754345  17.8918442  54.5020418  79.9867446  24.8509097
  55.4223427  80.1646045  25.0449144  54.4670001  79.0423492  24.6988797
  52.8024643  73.8599677   3.3263326  51.8956098  73.5632789   3.4026039
  53.0800624  73.5629495   2.4597612  43.7202583  75.1806040  13.7762372
  43.4005367  74.3271348  13.4836746  43.1736011  75.3954618  14.5320339
  47.4982491  77.8968481  17.4931879  47.7168500  78.8285589  17.5119912
  47.9108264  77.5376455  18.2786682  54.4186708  68.4036566   9.4807567
  53.6087437  68.0583651   9.8562813  55.1071125  68.0944110  10.0695179
  56.3477257  67.4814613  11.1031864  56.9008295  67.9010067  11.7621887
  56.5847343  66.5550361  11.1454820  52.3710356  73.4701687  26.8834628
  52.2707083  74.4196044  26.8146719  52.1531898  73.1419926  26.0110698
  51.5723427  70.7186612   3.4675305  52.4342591  71.0441510   3.7271122
  51.7573771  69.9318108   2.9548371  43.5890843  78.8008952  15.7455494
  42.8954314  78.3862904  15.2325448  44.3363834  78.8429488  15.1488913
  59.7256064  69.5915138  10.6110528  59.1454733  70.2499942  10.2288580
  59.4591996  68.7692483  10.1997945  58.1759630  68.9920196  12.8131848
  58.6759408  69.1036731  12.0046167  58.8195238  68.6881249  13.4532657
  52.2341626  76.8998826  25.6999689  51.7508708  77.6999186  25.9063578
  52.3202565  76.9106771  24.7467133  45.5027586  78.7327205  13.6221509
  45.4798274  78.8314893  12.6703392  45.8128222  79.5792356  13.9438675
  48.1614963  80.7903360  17.7368123  49.1158217  80.7587303  17.6698055
  47.9627487  80.3293984  18.5518349  48.7514346  79.3604476  20.3038921
  49.5707235  79.8548555  20.3273758  49.0251153  78.4436445  20.2756488
  58.5080942  71.7515229   9.6666876  57.6206797  72.0364879   9.4487071
  58.9234931  71.5908992   8.8194153  61.8595478  71.7761750  13.3821215
  62.6355868  72.2658202  13.6545832  61.1343612  72.2019804  13.8393085
  64.2968037  72.4889369  14.4395156  64.8912527  72.2485105  13.7288464
  64.3694620  71.7696499  15.0668692  46.5165192  86.3322980  14.7538321
  46.3819660  85.5723381  14.1876319  46.0997254  87.0563880  14.2867110
  58.4821965  77.2669765   9.8817166  58.4257167  77.7238316   9.0424799
  59.0350308  76.5060449   9.7040009  62.2926771  73.0559497  10.7067286
  62.0363706  72.6556132  11.5375494  61.6679639  73.7703290  10.5817425
  66.6039109  75.7955570  13.2138577  66.0438667  75.8648759  13.9870139
  65.9982613  75.6196554  12.4938073  49.6734318  87.2292297  14.9656764
  49.5566702  88.1737729  14.8635454  48.8526764  86.9265858  15.3542563
  59.2156745  78.4574546   7.1769696  59.1605549  78.2918817   6.2358140
  58.5902800  79.1650579   7.3331885  44.0049260  73.6942610  21.0031118
  44.6508123  73.1841564  21.4918343  43.7966411  74.4311292  21.5774543
  56.5302652  80.7623458  26.5023258  57.3993812  80.9364110  26.1409893
  56.0509403  81.5817875  26.3798988  52.5252870  67.9582655   6.7555014
  52.5131540  68.9024495   6.9123285  53.4176292  67.7752800   6.4614475
  50.6988832  87.8820559  18.1812692  51.6016079  87.9144169  18.4979187
  50.4726202  86.9521010  18.1959028  52.4542434  86.6351545  14.8422771
  51.5038065  86.6353407  14.7287143  52.7574920  85.8884280  14.3258805
  56.3404990  64.5525432  11.0100951  55.5737386  63.9983918  11.1557633
  56.7515695  64.6247300  11.8715102  48.3446751  70.8410227  25.1006132
  49.2078212  70.4847032  25.3109457  47.7712161  70.5024122  25.7881536
  64.9984834  92.4239512  15.8430058  64.6603346  92.3080576  14.9550593
  65.8674602  92.0230677  15.8231064  65.4804617  93.5774364  21.8016263
  65.4693258  93.1827162  20.9296767  65.6425256  92.8440436  22.3950035
  58.4036082  95.7726180  14.6711169  59.1957374  95.4317004  14.2557468
  58.6432732  95.8821155  15.5913322  62.2011878  96.3611475  20.7495447
  61.9101744  97.2657106  20.6342113  62.8368862  96.4028003  21.4639517
  63.1268085  93.7388324  17.3396807  63.7231657  93.5144346  16.6253770
  63.1843057  92.9973069  17.9422255  70.6670244  83.8460345  18.3449328
  70.3353568  84.7155756  18.1210543  70.0715857  83.5296629  19.0243359
  60.6114245  92.4986688  13.7781945  59.6864741  92.3662902  13.9859637
  60.8598658  93.2780907  14.2751888  70.5598907  88.5655431  15.4242678
  69.6515784  88.4970839  15.1301439  70.5086503  89.0427376  16.2524504
  57.9723056  92.1419961  14.6125734  58.1015437  92.3954440  15.5265146
  57.2920507  92.7347669  14.2930389  64.6339773  89.9845077  23.3677575
  63.8573107  90.5438997  23.3580440  65.2730336  90.4701860  23.8892446
  72.4260553  86.7671869  17.2020552  71.7834934  87.0604403  16.5560347
  71.9215482  86.6524790  18.0073749  62.8886145  92.7930530  22.9295542
  63.6300829  93.3315574  22.6530366  62.1823131  93.4196819  23.0867094
  68.3641485  94.9359670  21.5267704  68.7724841  94.4942081  20.7822336
  67.6418746  94.3612298  21.7801897  64.7172555  89.8732277  18.9001261
  65.5633750  90.2971691  19.0435910  64.6571192  89.2165902  19.5939824
  67.8672000  87.5336646  20.5582435  67.6232932  88.2878706  20.0216710
  68.1431931  87.9121993  21.3929682  69.8210463  94.0775258  19.2359700
  70.0327358  94.7207018  18.5594081  69.7740211  93.2437574  18.7681630
  67.4236692  86.6893079  16.1396272  66.5621171  86.9874332  16.4313010
  67.4499126  86.9063477  15.2077305  61.6247509  89.9470178  23.7310852
  60.9946169  90.6286459  23.9646249  61.5183597  89.8353260  22.7863991
  56.9192481  89.6141974  14.6576777  56.1291535  89.8699503  14.1816887
  57.4103729  90.4290312  14.7628817  64.7012894  96.5031257  19.5642768
  64.7657327  96.9651664  20.4000940  63.9923818  95.8728622  19.6925078
  55.2030184  89.8672465  17.0891767  55.4538223  90.7519475  17.3549343
  55.7389733  89.6877066  16.3166859  60.9028252  84.2490944  26.0936104
  60.5095197  83.6957143  26.7683748  61.7194392  84.5601522  26.4842621
  63.8196213  85.6648823  23.6856360  64.5605926  86.2655976  23.6060823
  64.0514135  84.9226461  23.1274403  58.9637551  90.8505190  21.9634590
  58.8491066  89.9490448  22.2641689  58.1082068  91.0968887  21.6119406
  66.0429388  98.7922931  23.5622090  65.5993242  98.0059309  23.2442995
  66.7046602  98.9802081  22.8965981  68.1410626  99.0725731  21.5903492
  68.1229102  99.8934612  21.0983761  69.0630546  98.9479806  21.8153633
  64.5983681  96.5869860  22.4327000  65.1312017  95.8258148  22.2026308
  64.0697762  96.2943512  23.1751154  67.7653376  81.6929926  17.9620642
  67.4217645  82.5831568  17.8859752  68.1332338  81.5031584  17.0990227
  66.8449916  84.0634581  15.9269875  66.3414711  84.0264716  15.1137680
  67.1380523  84.9727324  15.9866532  63.0892802  84.1473311  14.9336057
  63.9545799  83.9516120  14.5741946  63.1570311  83.9183663  15.8605413
  60.6955121  86.3775519  12.3052424  61.2698873  86.1550700  11.5725616
  61.2826103  86.4464213  13.0581025  62.9977789  83.2516768  11.0327493
  62.3442201  82.9365785  10.4084108  62.9558263  82.6292508  11.7587316
  66.2315529  89.7398701  15.3575141  65.3138090  89.9613648  15.1996829
  66.6475673  89.8145012  14.4986848  69.5641041  80.9523485  13.0638379
  69.8699918  80.0920849  12.7764295  70.2893646  81.5441105  12.8637373
  55.8565397  91.3554172  11.4519977  55.6589797  90.7623533  10.7271044
  55.3012061  91.0506382  12.1695916  63.8362121  91.2477278  13.5714570
  63.8910731  90.2951115  13.4957047  63.0253323  91.4036717  14.0555869
  67.3728693  90.3296163  20.1619843  67.7278080  90.5567636  21.0214309
  68.0200824  90.6614539  19.5397099  61.2668556  87.4372694  16.9466184
  61.9067935  87.2961453  16.2489148  60.4346086  87.1507207  16.5704786
  58.2697172  87.4073019  11.7239171  58.5303989  88.3218352  11.6148332
  59.0914344  86.9397461  11.8735784  59.7422097  88.8210776  18.8937996
  60.4145151  88.6128138  18.2450645  58.9151884  88.6232862  18.4543228
  65.6447669  85.4472717  20.9103657  64.9975584  86.1462666  20.8168133
  66.4148685  85.8808861  21.2779905  69.0526467  95.7121569  23.9854210
  68.9011974  95.4832120  23.0684293  69.0431147  96.6692170  23.9985555
  65.8211804  93.2853482  18.9700476  66.7503864  93.4364641  18.7969444
  65.4002834  93.3737502  18.1149123  60.1449595  92.0953379  19.6540433
  60.0069393  91.3633618  20.2551972  61.0554518  92.0062279  19.3724621
  62.7731895  91.8073338  19.1424112  63.4831514  91.1666530  19.1010731
  62.7301203  92.0586233  20.0650293  70.7618674  98.7440691  22.0630692
  70.7031220  98.0599911  21.3961275  71.1638192  99.4859681  21.6111318
  61.4860829  88.7938556  20.9619752  60.9498186  88.3429294  21.6141348
  60.8977538  88.9284465  20.2190216  70.7636081  96.7080275  20.2944671
  69.8762860  96.3706197  20.4171070  71.3334632  95.9763307  20.5313437
  52.4165228  93.0404367  13.6187723  53.1036268  92.7266097  13.0308738
  52.2613357  93.9445732  13.3454974  57.2199950  87.9294564  18.0472746
  57.1358139  87.3220233  17.3123156  56.3982657  88.4203582  18.0482243
  67.3923664  86.4148127  13.4142941  67.8892364  85.6618089  13.0944012
  66.6210646  86.4512444  12.8486151  63.9758633  88.5565510  13.1414626
  63.6056421  88.0036550  13.8295532  64.4717726  87.9523644  12.5889626
  61.8047832  99.0163005  20.2369644  62.5057291  99.6499488  20.3899038
  61.3342947  99.3577737  19.4765283  69.8342659  83.3817721  15.5622300
  68.9205739  83.6121947  15.7304507  70.2635761  83.4656165  16.4136333
  69.6049118  91.5707613  18.0622194  68.9520568  91.8183520  17.4074647
  69.9829498  90.7571751  17.7284672  65.6536691  92.3127424  24.5488231
  64.9777328  92.2121553  25.2190607  66.4764325  92.1566637  25.0124229
  57.4015550  98.5499360  17.1700747  57.9868987  97.8043048  17.3028651
  57.2040388  98.8603317  18.0537411  51.9933204  91.1204960  15.8905190
  52.0317304  90.5868551  16.6842308  51.4873497  90.5940166  15.2716167
  59.3723967  85.9669501  19.3867732  59.4365293  86.8284332  18.9745130
  59.3091087  85.3543503  18.6540091  58.8476239  88.0392633  23.0340766
  59.4748278  87.6569711  23.6478291  57.9904158  87.8206835  23.3996459
  69.2470348  98.4455609  24.6394502  69.7910252  99.0585567  24.1449457
  68.6657193  99.0035187  25.1561515  59.1536029  87.9225059  14.9486670
  58.4322615  88.5361027  14.8094143  59.9429285  88.4582824  14.8703316
  61.9562343  85.2579486  21.2227322  62.4796744  85.5041782  21.9853631
  61.7374676  86.0899520  20.8030459  57.3529624  87.5283160   9.0898446
  57.0242330  86.6480539   8.9073552  57.7068994  87.4730829   9.9774836
  63.1614888  86.1993181  18.9076992  62.8211708  85.4000994  19.3097672
  62.4553894  86.4994892  18.3353825  63.8131359  83.2842493  17.3604315
  64.6357429  82.8102971  17.2383205  64.0569423  84.0632977  17.8603001
  61.3369938  89.9761614  15.1696294  61.1914519  90.2901917  16.0620575
  60.8595142  90.5946514  14.6167192  63.1966321  86.9664162  15.2177183
  63.1827890  86.0705255  14.8809481  63.9138749  86.9734826  15.8515469
  65.0492452  87.4001502  17.2630311  64.7910230  88.3218573  17.2614641
  64.5177492  87.0031937  17.9530775  55.8115600  92.5166958  18.1083955
  55.2669068  93.2926766  18.2404229  56.6894950  92.8637763  17.9503076
  65.4694407  83.5333452  13.6231473  65.4916104  83.5972786  12.6683453
  65.8862466  82.6937961  13.8171979  56.5981622  91.6436854  21.0014112
  55.8563358  91.7919490  21.5878742  56.2774366  91.9045120  20.1380861
  64.5425285 101.1852833  20.7994502  64.8512411 100.9401979  21.6717201
  65.3400767 101.3899471  20.3113372  55.2446841  97.4488610  13.9913440
  54.4078749  97.0210784  13.8097441  55.2170486  97.6421053  14.9284231
  62.0844297  87.3610539  24.6954686  62.1332452  88.2372662  24.3132456
  62.6266811  86.8187932  24.1226329  72.5699142  97.9051663  23.9755823
  71.7794686  97.8875802  23.4360323  72.3332497  98.4439956  24.7304860
  72.6897017  94.7544129  21.2888552  72.7395022  94.5894136  22.2304074
  72.5810941  93.8871388  20.8986432  69.9800780  90.7375057  22.6047858
  70.8810642  90.5981522  22.3131856  70.0548754  90.9029512  23.5446036
  64.3143585  88.1141912  21.4501045  63.4446894  88.4075478  21.1783633
  64.5503065  88.6982357  22.1708308  74.1915214  97.1741071  21.5330573
  73.9000022  97.5371051  22.3694034  73.5787345  96.4608079  21.3543905
  72.4402402  92.2973685  20.0010631  72.9156524  92.4901331  19.1929483
  71.5167968  92.3532871  19.7554015  67.0182619  84.3321529  18.9666465
  67.5364563  85.0682556  18.6412954  66.6637752  84.6385522  19.8013224
  67.2695213  80.7521811  14.4867362  67.5496967  80.0845000  15.1127788
  68.0545820  80.9450907  13.9742026  71.1404071  89.1739445  18.2338937
  72.0921494  89.2737543  18.2551161  70.9707522  88.3817714  18.7437021
  69.1618451  86.2595028  18.4198338  68.5668383  86.5400041  17.7244826
  68.8768147  86.7488929  19.1915079  73.7686638  89.1856608  17.3939520
  73.2525686  88.4015065  17.2069449  74.6526586  88.8575325  17.5586039
  71.4297365  82.9297624  13.3535332  71.2322186  82.6212712  14.2378664
  72.0397070  83.6559263  13.4833262  65.3414173  95.3159364  24.8509097
  66.2617182  95.4937963  25.0449144  65.3063756  94.3715409  24.6988797
  54.5596338  90.5097958  13.7762372  54.2399122  89.6563266  13.4836746
  54.0129766  90.7246536  14.5320339  58.3376245  93.2260399  17.4931879
  58.5562255  94.1577507  17.5119912  58.7502019  92.8668373  18.2786682
  67.1871011  82.8106531  11.1031864  67.7402050  83.2301984  11.7621887
  67.4241097  81.8842279  11.1454820  63.2104110  88.7993604  26.8834628
  63.1100837  89.7487961  26.8146719  62.9925652  88.4711843  26.0110698
  54.4284598  94.1300869  15.7455494  53.7348069  93.7154822  15.2325448
  55.1757589  94.1721406  15.1488913  69.0153385  84.3212114  12.8131848
  69.5153163  84.4328648  12.0046167  69.6588993  84.0173167  13.4532657
  63.0735380  92.2290743  25.6999689  62.5902462  93.0291103  25.9063578
  63.1596319  92.2398688  24.7467133  56.3421340  94.0619123  13.6221509
  56.3192028  94.1606810  12.6703392  56.6521977  94.9084274  13.9438675
  59.0008718  96.1195278  17.7368123  59.9551971  96.0879220  17.6698055
  58.8021241  95.6585902  18.5518349  59.5908100  94.6896394  20.3038921
  60.4100989  95.1840473  20.3273758  59.8644908  93.7728362  20.2756488
  54.8443014  89.0234528  21.0031118  55.4901878  88.5133482  21.4918343
  54.6360165  89.7603210  21.5774543  67.3696406  96.0915375  26.5023258
  68.2387566  96.2656028  26.1409893  66.8903158  96.9109792  26.3798988
  67.1798744  79.8817349  11.0100951  66.4131140  79.3275836  11.1557633
  67.5909449  79.9539218  11.8715102  59.1840505  86.1702145  25.1006132
  60.0471967  85.8138950  25.3109457  58.6105916  85.8316040  25.7881536
  71.7422006  99.5782862  26.0936104  71.3488952  99.0249060  26.7683748
  72.5588146  99.8893440  26.4842621  69.6869994 103.3684551  23.0340766
  70.3142033 102.9861628  23.6478291  68.8297913 103.1498753  23.3996459
  74.0497865 104.1285522  26.8834628  73.9494592 105.0779879  26.8146719
  73.8319407 103.8003761  26.0110698  70.0234260 101.4994063  25.1006132
  70.8865721 101.1430868  25.3109457  69.4499670 101.1607958  25.7881536
  36.7289086  29.4641978  11.3639809  37.2728990  30.0771936  10.8694763
  36.1475930  30.0221557  11.8806822  40.0517880  28.9238032  10.7001130
  39.2613424  28.9062171  10.1605629  39.8151235  29.4626326  11.4550166
  34.8515144  27.1101745  13.2268565  35.7206304  27.2842397  12.8655200
  34.3721896  27.9296162  13.1044294  46.5107620  38.8190371   2.6313840
  47.1486030  38.6997118   1.9277180  46.3928463  39.7671215   2.6901792
  43.8017109  39.9252651   8.5261570  43.7905750  39.5305449   7.6542073
  43.9637749  39.1918723   9.1195341  40.5224370  42.7089763   7.4740754
  40.2314236  43.6135393   7.3587420  41.1581355  42.7506290   8.1884823
  41.4480577  40.0866611   4.0642113  42.0444150  39.8622633   3.3499076
  41.5055549  39.3451357   4.6667561  51.4657316  36.4817058   0.6100026
  52.1982488  35.9116275   0.8437856  50.7096671  36.0938658   1.0506532
  48.9882736  30.1938632   5.0694635  48.6566061  31.0634043   4.8455850
  48.3928349  29.8774916   5.7488665  45.4814255  42.3951178   4.4690547
  45.1814979  43.2976217   4.3606355  45.1365315  42.1283361   5.3211700
  40.4635035  49.1595498  -2.5638485  40.3859065  50.1103324  -2.4850004
  39.8596679  48.8141371  -1.9063559  42.9552265  36.3323364  10.0922882
  42.1785599  36.8917284  10.0825747  43.5942828  36.8180147  10.6137752
  50.7473046  33.1150157   3.9265859  50.1047426  33.4082690   3.2805653
  50.2427974  33.0003077   4.7319055  41.2098637  39.1408817   9.6540849
  41.9513322  39.6793861   9.3775673  40.5035623  39.7675106   9.8112401
  46.6853977  41.2837958   8.2513011  47.0937333  40.8420368   7.5067643
  45.9631239  40.7090585   8.5047203  43.0385047  36.2210564   5.6246568
  43.8846242  36.6449978   5.7681217  42.9783685  35.5644189   6.3185131
  47.0082792  41.8439148   2.0065299  46.3791654  42.0084862   1.3041367
  46.6208454  42.2580758   2.7776263  50.8872024  42.7793586  -0.6390337
  50.2023062  43.1592488  -1.1893303  50.9715873  43.3888913   0.0941611
  46.1884492  33.8814933   7.2827741  45.9445424  34.6356993   6.7462017
  46.4644423  34.2600280   8.1174988  48.1422955  40.4253545   5.9605007
  48.3539850  41.0685305   5.2839388  48.0952703  39.5915862   5.4926937
  39.4534835  41.1285038   2.2095148  40.0236192  41.5572306   1.5712632
  40.0442946  40.8467623   2.9079333  39.9460001  36.2948465  10.4556159
  39.3158662  36.9764746  10.6891556  39.8396089  36.1831547   9.5109297
  49.2568783  43.3025501   4.1327364  50.0786227  42.9005688   3.8510046
  49.2531186  43.1993735   5.0843480  43.0225387  42.8509544   6.2888075
  43.0869819  43.3129951   7.1246246  42.3136310  42.2206909   6.4170384
  57.3474776  39.6464249   0.4812336  56.5938485  39.0771647   0.3256340
  57.4822317  39.6126914   1.4282970  39.2240744  30.5969231  12.8181410
  38.8307689  30.0435430  13.4929054  40.0406884  30.9079810  13.2087928
  42.1408705  32.0127110  10.4101667  42.8818418  32.6134263  10.3306129
  42.3726628  31.2704748   9.8519709  37.2850043  37.1983478   8.6879896
  37.1703558  36.2968735   8.9886995  36.4294561  37.4447174   8.3364713
  44.3641881  45.1401218  10.2867397  43.9205735  44.3537596   9.9688301
  45.0259094  45.3280368   9.6211288  39.1229002  46.6697019   4.8128076
  39.6736427  46.5414083   4.0405069  38.2840478  46.9691909   4.4622968
  46.4623119  45.4204018   8.3148798  46.4441594  46.2412899   7.8229067
  47.3843039  45.2958093   8.5398939  42.9196173  42.9348147   9.1572307
  43.4524510  42.1736435   8.9271615  42.3910254  42.6421799   9.8996461
  49.2641732  40.2583160   1.7858165  48.6065406  40.9482422   1.8738294
  50.0682131  40.6479592   2.1292151  48.8408987  43.5933534  -2.0358751
  48.3871314  42.7524444  -1.9793560  48.2102953  44.2294933  -1.6983971
  47.2841926  45.4310031  -1.1008933  47.5764900  45.9915088  -1.8196567
  47.7940546  45.7238592  -0.3455773  42.2475551  46.2090382  -0.0115479
  42.2051730  46.4351229  -0.9406947  43.1638250  45.9753757   0.1370322
  45.6941185  36.6774450   6.8865150  46.0490572  36.9045923   7.7459616
  46.3413316  37.0092827   6.2642405  51.4508301  41.8669413   2.6025750
  51.8844808  41.7744702   3.4508804  52.1639882  41.8426913   1.9645766
  45.1836196  45.4671507   4.1358851  45.2373219  46.0362443   4.9036567
  44.3150978  45.6373392   3.7712888  52.3123851  41.9093113   5.1358636
  52.5059741  42.8138924   5.3817911  52.2124469  41.4500532   5.9697221
  43.9660162  31.7951004   7.6348963  43.3188077  32.4940954   7.5413440
  44.7361177  32.2287148   8.0025211  47.3738960  42.0599856  10.7099516
  47.2224466  41.8310408   9.7929600  47.3643639  43.0170457  10.7230861
  44.1424296  39.6331769   5.6945783  45.0716356  39.7842928   5.5214750
  43.7215326  39.7215790   4.8394429  42.9412628  43.6582433   3.4644321
  42.8023713  43.2901218   4.3370259  42.1527224  44.1730073   3.2928278
  44.4917843  43.0364036   0.8533158  44.1567676  42.9964806   1.7490808
  43.9921789  42.3708752   0.3803569  38.4662087  38.4431666   6.3785739
  38.3281885  37.7111905   6.9797278  39.3767010  38.3540566   6.0969927
  41.0944388  38.1551625   5.8669419  41.8044006  37.5144817   5.8256038
  41.0513696  38.4064520   6.7895600  49.0831166  45.0918979   8.7875998
  49.0243712  44.4078199   8.1206581  49.4850685  45.8337969   8.3356624
  39.8073322  35.1416843   7.6865059  39.2710679  34.6907582   8.3386655
  39.2190030  35.2762752   6.9435523  38.1021865  51.9080892   1.5809717
  38.3418463  52.5399417   2.2588736  37.2591061  51.5568932   1.8675076
  49.0848573  43.0558563   7.0189978  48.1975352  42.7184484   7.1416377
  49.6547125  42.3241594   7.2558743  42.6149727  47.7160015   3.9851221
  42.5419898  48.5214986   4.4970526  42.1727120  47.9151981   3.1599243
  42.4039506  46.9531785  -2.5045957  41.6207028  47.4953465  -2.4107733
  43.1032252  47.4705765  -2.1051716  53.5665914  38.4666780   1.7806540
  53.5555790  39.3491495   1.4100473  52.6983293  38.1138331   1.5861077
  45.0748410  47.6146849   6.1409380  45.7876383  48.2494314   6.0685281
  44.5838439  47.7110715   5.3249382  40.1260324  45.3641292   6.9614951
  40.8269783  45.9977775   7.1144345  39.6555439  45.7056024   6.2010590
  47.9261610  37.9185900   4.7867501  47.2733060  38.1661807   4.1319954
  48.3041990  37.1050038   4.4529978  44.8868784  47.9545593  -1.1104329
  45.0691178  47.1367249  -0.6476576  45.7101770  48.1713285  -1.5479439
  43.9749183  38.6605711  11.2733538  43.2989820  38.5599840  11.9435913
  44.7976817  38.5044925  11.7369535  35.7228042  44.8977647   3.8946053
  36.3081479  44.1521335   4.0273958  35.5252880  45.2081604   4.7782717
  38.5766697  47.9328895  -1.0891504  37.9077072  48.4175022  -1.5727464
  38.4379567  48.1798115  -0.1748126  42.7171966  49.9672638   5.5091154
  43.2690274  50.1304260   6.2740239  43.0578159  50.5577076   4.8371179
  37.1688732  34.3870921   9.7586073  37.7960770  34.0047998  10.3723597
  36.3116650  34.1685123  10.1241766  47.5682840  44.7933896  11.3639809
  48.1122744  45.4063854  10.8694763  46.9869685  45.3513474  11.8806822
  45.8540353  47.9154614   2.4954836  45.7291493  47.1144354   1.9865782
  46.5119444  48.4100807   2.0068806  47.9175261  45.7163634   4.1234386
  46.9705597  45.5968985   4.0512713  48.2658035  44.8286132   4.2060648
  40.2774835  31.6057773   7.9472628  40.8009237  31.8520069   8.7098938
  40.0587168  32.4377808   7.5275766  44.9221695  45.5116350   0.3238739
  44.7746657  44.5833058   0.5046309  45.7475188  45.5336441  -0.1604186
  48.5255817  46.3344909   1.4103611  49.4502364  46.1287770   1.2728062
  48.3571120  46.0861310   2.3192953  48.3151133  46.8530576  -3.2334297
  48.4888010  46.2876999  -3.9860445  48.8080024  47.6531471  -3.4154807
  54.1690524  39.6166999  -1.6143997  54.6121670  38.8674324  -2.0124874
  53.2917034  39.6077136  -1.9970265  34.9194114  37.9915142   7.7259418
  34.1775851  38.1397777   8.3124049  34.5986859  38.2523407   6.8626168
  42.8637777  47.5331120   7.5239808  43.1724904  47.2880267   8.3962508
  43.6613259  47.7377758   7.0358679  42.8858389  49.6869030  -0.2454815
  42.4463379  49.1945408   0.4478042  43.6366506  49.1441997  -0.4862740
  40.3332261  45.2307039   1.8267487  39.7112271  44.5677744   1.5269715
  41.0037128  45.2568171   1.1441134  40.4056789  33.7088827  11.4199993
  40.4544944  34.5850949  11.0377762  40.9479303  33.1666220  10.8471636
  50.8911634  44.2529950  10.7001130  50.1007178  44.2354089  10.1605629
  50.6544989  44.7918244  11.4550166  51.0109510  41.1022416   8.0133858
  51.0607514  40.9372424   8.9549381  50.9023433  40.2349675   7.6231739
  48.3013272  37.0853344   9.3293165  49.2023135  36.9459809   9.0377163
  48.3761246  37.2507799  10.2691342  42.6356077  34.4620199   8.1746351
  41.7659387  34.7553765   7.9028940  42.8715558  35.0460644   8.8953615
  52.5127706  43.5219358   8.2575880  52.2212515  43.8849338   9.0939341
  51.8999838  42.8086366   8.0789212  53.7123389  41.0872238   0.7778450
  54.5470280  41.5262042   0.9416010  53.8482517  40.6110891  -0.0413304
  50.7614895  38.6451972   6.7255938  51.2369016  38.8379619   5.9174789
  49.8380460  38.7011158   6.4799322  45.3395111  30.6799816   5.6911772
  45.8577055  31.4160843   5.3658260  44.9850244  30.9863809   6.5258531
  49.4616564  35.5217733   4.9584243  50.4133986  35.6215830   4.9796467
  49.2920014  34.7296001   5.4682328  47.4830943  32.6073316   5.1443644
  46.8880875  32.8878328   4.4490133  47.1980640  33.0967217   5.9160385
  51.9404641  38.7423852   4.0726543  51.9080961  37.8039853   4.2586227
  52.5505265  38.8207889   3.3392368  52.0899130  35.5334896   4.1184826
  51.5738179  34.7493352   3.9314755  52.9739078  35.2053612   4.2831346
  57.7581191  39.8039859   3.2132580  58.4884580  39.5425147   3.7740283
  57.1488137  39.0668581   3.2534648  55.8396488  37.9447722   3.8107031
  55.1129652  37.8103687   3.2023523  55.4243775  38.2524550   4.6163749
  43.6626665  41.6637651  11.5754404  44.5829674  41.8416250  11.7694451
  43.6276248  40.7193697  11.4234103  36.6588737  39.5738686   4.2177185
  36.8774747  40.5055794   4.2365219  37.0714511  39.2146660   5.0031989
  41.5316603  35.1471892  13.6079934  41.4313330  36.0966249  13.5392025
  41.3138145  34.8190131  12.7356004  41.3947873  38.5769031  12.4244996
  40.9114954  39.3769391  12.6308885  41.4808812  38.5876975  11.4712440
  37.3221210  42.4673565   4.4613430  38.2764464  42.4357508   4.3943361
  37.1233734  42.0064189   5.2763656  37.9120592  41.0374681   7.0284227
  38.7313481  41.5318760   7.0519065  38.1857400  40.1206649   7.0001795
  53.4574283  34.1659574   1.1640463  54.0518774  33.9255310   0.4533771
  53.5300867  33.4466704   1.7913999  35.6771439  48.0093185   1.4783628
  35.5425907  47.2493586   0.9121626  35.2603501  48.7334085   1.0112416
  55.7645356  37.4725775  -0.0616116  55.2044914  37.5418964   0.7115446
  55.1588859  37.2966759  -0.7816620  38.8340565  48.9062502   1.6902070
  38.7172949  49.8507934   1.5880760  38.0133011  48.6036063   2.0787869
  45.6908899  42.4393663  13.2268565  46.5600058  42.6134315  12.8655200
  45.2115650  43.2588080  13.1044294  39.8595079  49.5590764   4.9057999
  40.7622326  49.5914374   5.2224494  39.6332449  48.6291215   4.9204334
  41.6148681  48.3121750   1.5668077  40.6644312  48.3123612   1.4532449
  41.9181167  47.5654485   1.0504112  37.5052998  32.5180432  11.8251439
  38.3684459  32.1617237  12.0354763  36.9318408  32.1794327  12.5126843
  57.3501374  54.1482289   2.6313840  57.9879784  54.0289036   1.9277180
  57.2322217  55.0963133   2.6901792  54.1591081  54.1009717   2.5675364
  53.8209592  53.9850781   1.6795899  55.0280849  53.7000882   2.5476370
  50.0177896  55.9545193  -1.4427745  49.4542762  55.8635130  -2.2111457
  49.9030292  55.1345098  -0.9625252  54.6410864  55.2544568   8.5261570
  54.6299505  54.8597367   7.6542073  54.8031503  54.5210641   9.1195341
  47.5642328  57.4496385   1.3956476  48.3563620  57.1087209   0.9802775
  47.8038979  57.5591360   2.3158629  55.5977455  59.6216161  -6.1313280
  54.9465435  60.2070241  -6.5179266  56.3921818  60.1522356  -6.0718242
  49.5233082  56.7105298  -5.7326145  50.2963958  56.1634285  -5.8713270
  49.8758481  57.5749547  -5.5211684  51.3618125  58.0381680   7.4740754
  51.0707991  58.9427311   7.3587420  51.9975109  58.0798208   8.1884823
  52.2874332  55.4158529   4.0642113  52.8837904  55.1914551   3.3499076
  52.3449303  54.6743274   4.6667561  51.8599360  52.8697964  -8.1007696
  52.1124881  52.3479485  -8.8624233  50.9223919  52.7064110  -7.9981012
  56.9042643  51.8733742  -0.2932952  57.6905732  51.4553166  -0.6442535
  57.1681347  52.7779835  -0.1251304  57.0752720  57.3106593  -5.5944296
  56.4398553  57.3841219  -4.8823391  56.7450127  57.9000192  -6.2725216
  62.3051070  51.8108976   0.6100026  63.0376242  51.2408192   0.8437856
  61.5490426  51.4230576   1.0506532  51.5795649  54.7726070  -5.8983321
  51.4631907  54.0970973  -5.2302236  51.6897909  54.2858444  -6.7151168
  53.9227190  54.2336217  -2.1936631  53.5585397  53.7066838  -1.4823710
  54.7794306  53.8434686  -2.3670146  59.8276490  45.5230550   5.0694635
  59.4959815  46.3925961   4.8455850  59.2322104  45.2066834   5.7488665
  53.5632677  49.2626117  -7.1975283  53.7307079  50.1306353  -6.8304812
  53.3729846  49.4253399  -8.1213994  56.3208010  57.7243096   4.4690547
  56.0208733  58.6268135   4.3606355  55.9759069  57.4575279   5.3211700
  49.7720491  54.1756893   0.5027252  48.8470988  54.0433107   0.7104944
  50.0204905  54.9551112   0.9997194  59.7205154  50.2425636   2.1487985
  58.8122031  50.1741044   1.8546746  59.6692750  50.7197581   2.9769810
  53.5421898  51.7183774  -6.2128616  53.4221523  52.1640825  -5.3743136
  52.8474486  52.0669092  -6.7715078  47.1329302  53.8190166   1.3371041
  47.2621684  54.0724645   2.2510453  46.4526754  54.4117874   1.0175696
  51.3028790  64.4887416  -2.5638485  51.2252819  65.4395241  -2.4850004
  50.6990433  64.1433289  -1.9063559  53.7946020  51.6615282  10.0922882
  53.0179354  52.2209202  10.0825747  54.4336583  52.1472065  10.6137752
  61.5866800  48.4442074   3.9265859  60.9441180  48.7374608   3.2805653
  61.0821729  48.3294995   4.7319055  59.2406964  52.1905248  -5.3848282
  60.1524820  52.4232634  -5.5600584  58.7316611  52.7742292  -5.9473203
  52.0492392  54.4700735   9.6540849  52.7907076  55.0085779   9.3775673
  51.3429377  55.0967024   9.8112401  57.5247731  56.6129875   8.2513011
  57.9331088  56.1712286   7.5067643  56.8024993  56.0382503   8.5047203
  53.8778802  51.5502482   5.6246568  54.7239997  51.9741896   5.7681217
  53.8177439  50.8936106   6.3185131  57.8476546  57.1731066   2.0065299
  57.2185409  57.3376780   1.3041367  57.4602208  57.5872676   2.7776263
  61.7265778  58.1085504  -0.6390337  61.0416816  58.4884405  -1.1893303
  61.8109627  58.7180830   0.0941611  57.0278247  49.2106850   7.2827741
  56.7839179  49.9648911   6.7462017  57.3038177  49.5892198   8.1174988
  58.9816710  55.7545463   5.9605007  59.1933605  56.3977223   5.2839388
  58.9346458  54.9207779   5.4926937  56.5842939  48.3663284   2.8641579
  55.7227418  48.6644537   3.1558316  56.6105373  48.5833682   1.9322612
  53.4004508  56.9105474  -0.7284615  53.8642854  57.1893177  -1.5179993
  53.1361306  56.0088919  -0.9111525  50.2928589  56.4576956   2.2095148
  50.8629946  56.8864224   1.5712632  50.8836701  56.1759540   2.9079333
  52.3373394  53.0328626  -3.9195050  53.0397437  53.4849670  -3.4521124
  52.0054023  52.3912445  -3.2915157  50.7853756  51.6240383  10.4556159
  50.1552416  52.3056664  10.6891556  50.6789843  51.5123465   9.5109297
  46.0798728  51.2912179   1.3822083  45.2897782  51.5469708   0.9062194
  46.5709975  52.1060517   1.4874124  60.0962538  58.6317418   4.1327364
  60.9179981  58.2297606   3.8510046  60.0924940  58.5285652   5.0843480
  48.0313473  51.6556758  -1.6594440  47.2344637  51.7675453  -1.1410944
  47.8039066  51.9943411  -2.5253550  53.8619141  58.1801462   6.2888075
  53.9263574  58.6421869   7.1246246  53.1530065  57.5498826   6.4170384
  44.3636431  51.5442670   3.8137074  44.6144469  52.4289679   4.0794650
  44.8995979  51.3647271   3.0412166  68.1868531  54.9756167   0.4812336
  67.4332239  54.4063565   0.3256340  68.3216072  54.9418831   1.4282970
  53.5767159  59.8469569  -3.8432945  53.4412833  60.6921105  -3.4148097
  54.1176971  60.0488847  -4.6067011  50.0634498  45.9261149  12.8181410
  49.6701444  45.3727347  13.4929054  50.8800639  46.2371727  13.2087928
  47.0296556  57.3645007  -3.2705020  47.5421077  58.1588257  -3.1199455
  47.6819269  56.6671298  -3.3371419  48.8391441  60.4810763  -1.1882267
  49.0158069  61.4028728  -1.3761283  49.6348274  60.1669183  -0.7587887
  52.9802459  47.3419028  10.4101667  53.7212173  47.9426181  10.3306129
  53.2120382  46.5996666   9.8519709  48.1243797  52.5275395   8.6879896
  48.0097312  51.6260653   8.9886995  47.2688315  52.7739092   8.3364713
  55.2035635  60.4693136  10.2867397  54.7599489  59.6829514   9.9688301
  55.8652849  60.6572286   9.6211288  49.9622756  61.9988937   4.8128076
  50.5130181  61.8706001   4.0405069  49.1234232  62.2983826   4.4622968
  57.3016873  60.7495936   8.3148798  57.2835348  61.5704817   7.8229067
  58.2236793  60.6250011   8.5398939  53.7589927  58.2640065   9.1572307
  54.2918264  57.5028353   8.9271615  53.2304008  57.9713717   9.8996461
  56.9259622  43.3700131   4.6865948  56.5823892  44.2601773   4.6105059
  57.2938585  43.1801789   3.8235533  44.9945473  55.6933661  -2.4945449
  45.8320695  56.1030670  -2.7111742  45.1723741  54.7533104  -2.5245256
  56.8909905  53.3608742  -6.8061616  56.3756528  54.1313347  -6.5673229
  56.6187213  52.6873878  -6.1828555  54.4757016  48.2058443  -1.7476378
  53.6198612  47.8165293  -1.9270739  54.8883968  48.2850404  -2.6076593
  56.0056163  45.7404786   2.6515182  55.5020958  45.7034921   1.8382987
  56.2986770  46.6497529   2.7111838  52.2499049  45.8243516   1.6581363
  53.1152045  45.6286325   1.2987253  52.3176557  45.5953868   2.5850720
  61.8644179  56.1141097  -4.8708443  61.0873622  55.7752256  -5.3153281
  62.5435660  56.1193720  -5.5453478  56.6796208  51.2335834  -4.9801835
  56.3746344  51.5481983  -4.1291692  57.6326650  51.3117254  -4.9374502
  55.1242640  57.3926057  -3.3308881  54.5964002  56.6578817  -3.6435644
  54.6230143  58.1700734  -3.5768913  60.1035486  55.5875078   1.7858165
  59.4459160  56.2774339   1.8738294  60.9075885  55.9771510   2.1292151
  49.8561368  48.0545724  -0.9702270  50.4305120  47.8320905  -1.7029077
  50.4432350  48.1234418  -0.2173669  58.9140945  53.9419451  -0.1637893
  59.4272827  54.5749442   0.3383816  59.5642169  53.3420646  -0.5294533
  52.1584035  44.9286973  -2.2427200  51.5048448  44.6135990  -2.8670586
  52.1164509  44.3062713  -1.5167377  53.2695240  55.2106268 -10.3273908
  52.3622302  54.9795521 -10.1282759  53.7666272  54.4143887 -10.1399927
  55.3921776  51.4168906   2.0820447  54.4744337  51.6383853   1.9242135
  55.8081919  51.4915217   1.2232155  56.1756823  52.8160322  -2.7876873
  56.9228642  53.3281719  -3.0969750  56.4448413  52.4944375  -1.9272479
  54.4483474  55.3118863  -5.8049918  53.5394693  55.0277895  -5.7077448
  54.4778557  55.7317941  -6.6646611  59.6802741  58.9225452  -2.0358751
  59.2265068  58.0816362  -1.9793560  59.0496708  59.5586850  -1.6983971
  58.6235661  49.8517438  -0.8058083  57.8858417  49.3394824  -0.4747841
  58.8762434  49.4117820  -1.6174806  58.1235680  60.7601949  -1.1008933
  58.4158655  61.3207006  -1.8196567  58.6334301  61.0530510  -0.3455773
  58.7247288  42.6293690  -0.2116314  59.0306165  41.7691054  -0.4990399
  59.4499893  43.2211310  -0.4117320  45.0171644  53.0324377  -1.8234716
  44.8196044  52.4393737  -2.5483649  44.4618308  52.7276587  -1.1058777
  52.9968368  52.9247483   0.2959877  53.0516977  51.9721320   0.2202354
  52.1859570  53.0806922   0.7801176  54.1459561  56.8527606  -8.4661840
  53.7078991  56.1363465  -8.9256202  54.8870002  57.0803721  -9.0276748
  50.9360728  51.5424543  -1.9449744  50.1228593  51.8418714  -1.5384552
  51.4319722  51.1480232  -1.2275262  53.0869305  61.5382300  -0.0115479
  53.0445484  61.7643146  -0.9406947  54.0032004  61.3045674   0.1370322
  56.5334939  52.0066367   6.8865150  56.8884327  52.2337841   7.7459616
  57.1807070  52.3384744   6.2642405  62.2632676  55.1284803  -2.4085521
  62.1250575  55.3186399  -3.3364332  61.9068895  55.8904186  -1.9517470
  50.4274802  49.1142898   3.6711491  51.0674182  48.9731658   2.9734454
  49.5952333  48.8277412   3.2950093  62.2902056  57.1961330   2.6025750
  62.7238562  57.1036619   3.4508804  63.0033637  57.1718831   1.9645766
  51.2035106  58.4145329  -0.2153517  51.9975705  57.9195649  -0.4170942
  50.4926799  57.8863192  -0.5785811  56.0229951  60.7963424   4.1358851
  56.0766973  61.3654361   4.9036567  55.1544732  60.9665309   3.7712888
  47.5117870  52.5588411  -4.1393764  46.5815458  52.4972866  -3.9223802
  47.6075342  52.0364363  -4.9357123  47.4303419  49.0843223  -1.5515522
  47.6910236  49.9988557  -1.6606362  48.2520591  48.6167666  -1.4018909
  48.9028344  50.4980981   5.6183302  49.5751398  50.2898343   4.9695951
  48.0758131  50.3003067   5.1788535  63.1517605  57.2385031   5.1358636
  63.3453495  58.1430841   5.3817911  63.0518224  56.7792450   5.9697221
  54.8053916  47.1242922   7.6348963  54.1581831  47.8232871   7.5413440
  55.5754932  47.5579065   8.0025211  58.2132714  57.3891774  10.7099516
  58.0618220  57.1602325   9.7929600  58.2037394  58.3462375  10.7230861
  54.9818050  54.9623686   5.6945783  55.9110110  55.1134846   5.5214750
  54.5609080  55.0507707   4.8394429  53.7806382  58.9874351   3.4644321
  53.6417468  58.6193135   4.3370259  52.9920978  59.5021990   3.2928278
  54.3754534  64.0883447  -5.1930143  54.5506290  63.6171491  -4.3784520
  53.6887322  64.7149214  -4.9648882  55.3311597  58.3655954   0.8533158
  54.9961430  58.3256724   1.7490808  54.8315543  57.7000669   0.3803569
  49.3055841  53.7723584   6.3785739  49.1675639  53.0403822   6.9797278
  50.2160765  53.6832484   6.0969927  51.9338142  53.4843543   5.8669419
  52.6437761  52.8436735   5.8256038  51.8907450  53.7356438   6.7895600
  59.9224921  60.4210896   8.7875998  59.8637467  59.7370116   8.1206581
  60.3244439  61.1629886   8.3356624  50.6467076  50.4708761   7.6865059
  50.1104433  50.0199499   8.3386655  50.0583784  50.6054670   6.9435523
  48.9415619  67.2372810   1.5809717  49.1812218  67.8691334   2.2588736
  48.0984816  66.8860850   1.8675076  59.9242328  58.3850480   7.0189978
  59.0369107  58.0476402   7.1416377  60.4940879  57.6533511   7.2558743
  41.5771475  54.7174572   0.3433029  42.2642515  54.4036302  -0.2445955
  41.4219604  55.6215937   0.0700281  46.3806197  49.6064769   4.7718053
  46.2964386  48.9990438   4.0368463  45.5588904  50.0973787   4.7727549
  53.4543481  63.0451933   3.9851221  53.3813653  63.8506904   4.4970526
  53.0120874  63.2443898   3.1599243  53.2433261  62.2823703  -2.5045957
  52.4600783  62.8245383  -2.4107733  53.9426006  62.7997682  -2.1051716
  56.5529911  48.0918332   0.1388248  57.0498611  47.3388294  -0.1810682
  55.7816893  48.1282649  -0.4268543  64.4059668  53.7958698   1.7806540
  64.3949545  54.6783413   1.4100473  63.5377048  53.4430248   1.5861077
  55.9142165  62.9438767   6.1409380  56.6270137  63.5786231   6.0685281
  55.4232194  63.0402633   5.3249382  57.6359692  56.8490019  -2.2873328
  56.7015971  56.9691482  -2.4568624  57.8136360  55.9462486  -2.5513319
  53.1364880  50.2335715  -0.1340067  52.7662667  49.6806755   0.5540838
  53.6323972  49.6293849  -0.6865067  61.0232243  52.6907339  -1.7523294
  61.4892695  53.5235330  -1.8262992  61.4739744  52.2252320  -1.0478036
  50.9654078  60.6933210   6.9614951  51.6663538  61.3269693   7.1144345
  50.4949193  61.0347942   6.2010590  59.0908474  59.0351160  -4.7537142
  59.3668318  58.9207754  -3.8443268  58.2212973  58.6368645  -4.7924969
  58.9948906  45.0587926   2.2867607  58.0811986  45.2892152   2.4549814
  59.4242007  45.1426370   3.1381639  58.7655364  53.2477818   4.7867501
  58.1126815  53.4953725   4.1319954  59.1435744  52.4341956   4.4529978
  55.7262538  63.2837511  -1.1104329  55.9084933  62.4659167  -0.6476576
  56.5495524  63.5005203  -1.5479439  56.0604704  62.2105696  -3.8489280
  56.5892470  61.6998150  -4.4619118  56.3232923  61.8948226  -2.9843747
  54.8142937  53.9897629  11.2733538  54.1383574  53.8891758  11.9435913
  55.6370571  53.8336842  11.7369535  46.5621796  60.2269565   3.8946053
  47.1475233  59.4813253   4.0273958  46.3646635  60.5373522   4.7782717
  49.4160452  63.2620812  -1.0891504  48.7470827  63.7466940  -1.5727464
  49.2773321  63.5090033  -0.1748126  41.1539451  52.7975165   2.6150497
  41.1923551  52.2638756   3.4087615  40.6479744  52.2710371   1.9961474
  53.5565720  65.2964556   5.5091154  54.1084028  65.4596178   6.2740239
  53.8971914  65.8868994   4.8371179  48.5330214  47.6439706   6.1113039
  48.5971540  48.5054537   5.6990436  48.4697334  47.0313707   5.3785397
  48.0082486  49.7162838   9.7586073  48.6354525  49.3339916  10.3723597
  47.1510405  49.4977040  10.1241766  58.4076595  60.1225814  11.3639809
  58.9516499  60.7355772  10.8694763  57.8263439  60.6805392  11.8806822
  44.7848029  51.5239267  -4.3095572  45.0801470  50.6149946  -4.3628518
  43.8836065  51.5027007  -4.6314570  56.6934108  63.2446532   2.4954836
  56.5685247  62.4436271   1.9865782  57.3513199  63.7392725   2.0068806
  48.3142276  49.5995264   1.6731976  47.5928862  50.2131232   1.5339450
  49.1035532  50.1353029   1.5948622  58.7569016  61.0455552   4.1234386
  57.8099351  60.9260903   4.0512713  59.1051789  60.1578050   4.2060648
  51.1168589  46.9349691   7.9472628  51.6402991  47.1811987   8.7098938
  50.8980923  47.7669725   7.5275766  46.5135870  49.2053365  -4.1856247
  46.1848577  48.3250744  -4.3681141  46.8675241  49.1501034  -3.2979858
  55.7615449  60.8408268   0.3238739  55.6140412  59.9124975   0.5046309
  56.5868943  60.8628359  -0.1604186  49.6277694  49.4926335  -3.8180769
  49.9673766  50.0212256  -4.5402161  50.0749814  49.8306741  -3.0422203
  59.3649571  61.6636827   1.4103611  60.2896119  61.4579688   1.2728062
  59.1964874  61.4153228   2.3192953  52.3221134  47.8763386   5.6322299
  51.9817955  47.0771199   6.0342979  51.6160141  48.1765096   5.0599132
  52.9737606  44.9612698   4.0849622  53.7963675  44.4873176   3.9628512
  53.2175670  45.7403182   4.5848308  51.6145841  47.9900957  -5.6187477
  52.3354203  48.3682209  -6.1223760  50.9911145  48.7089833  -5.5152499
  55.7576964  48.6946105  -4.6829144  55.9740578  49.5770743  -4.9840316
  55.2771031  48.3032319  -5.4123502  50.4976185  51.6531819   1.8941600
  50.3520766  51.9672122   2.7865882  50.0201389  52.2716719   1.3412499
  52.3572568  48.6434367   1.9422490  52.3434137  47.7475460   1.6054788
  53.0744996  48.6505030   2.5760776  54.2098699  49.0771707   3.9875617
  53.9516476  49.9988778   3.9859948  53.6783739  48.6802141   4.6776082
  59.1544887  62.1822494  -3.2334297  59.3281765  61.6168916  -3.9860445
  59.6473779  62.9823389  -3.4154807  44.9721847  54.1937163   4.8329262
  44.4275315  54.9696971   4.9649536  45.8501197  54.5407968   4.6748383
  51.7609464  47.5248747  -2.7889940  51.8825375  46.5965393  -2.5899052
  51.4711506  47.5387433  -3.7011624  54.6300654  45.2103657   0.3476780
  54.6522351  45.2742990  -0.6071241  55.0468713  44.3708166   0.5417286
  65.0084278  54.9458917  -1.6143997  65.4515424  54.1966242  -2.0124874
  64.1310789  54.9369053  -1.9970265  45.7587869  53.3207059   7.7259418
  45.0169605  53.4689695   8.3124049  45.4380613  53.5815325   6.8626168
  62.0411483  58.9488964  -4.6050068  62.5662807  59.2876237  -5.3300748
  61.9533835  58.0135979  -4.7886934  53.7031532  62.8623038   7.5239808
  54.0118658  62.6172184   8.3962508  54.5007014  63.0669676   7.0358679
  53.7252144  65.0160947  -0.2454815  53.2857134  64.5237326   0.4478042
  54.4760261  64.4733915  -0.4862740  46.2044483  61.2072488  -0.2430187
  47.0302503  60.9076260  -0.6231543  45.8538535  60.4380111   0.2059602
  51.1726016  60.5598956   1.8267487  50.5506025  59.8969661   1.5269715
  51.8430883  60.5860088   1.1441134  44.4053088  59.1258815   0.7158747
  43.5684996  58.6980989   0.5342748  44.3776733  59.3191258   1.6529538
  51.2450543  49.0380744  11.4199993  51.2938699  49.9142867  11.0377762
  51.7873057  48.4958137  10.8471636  61.7305389  59.5821868  10.7001130
  60.9400933  59.5646006  10.1605629  61.4938744  60.1210161  11.4550166
  61.8503264  56.4314334   8.0133858  61.9001269  56.2664341   8.9549381
  61.7417187  55.5641593   7.6231739  50.7339523  59.1102880  -4.6974053
  50.8827643  59.7938344  -5.3507380  51.5405966  59.0907970  -4.1824597
  59.1407026  52.4145262   9.3293165  60.0416889  52.2751727   9.0377163
  59.2155001  52.5799717  10.2691342  53.4749832  49.7912117   8.1746351
  52.6053141  50.0845683   7.9028940  53.7109312  50.3752562   8.8953615
  63.3521461  58.8511275   8.2575880  63.0606269  59.2141256   9.0939341
  62.7393592  58.1378284   8.0789212  64.5517143  56.4164155   0.7778450
  65.3864035  56.8553959   0.9416010  64.6876272  55.9402808  -0.0413304
  61.6008649  53.9743890   6.7255938  62.0762771  54.1671536   5.9174789
  60.6774214  54.0303076   6.4799322  48.4892156  55.1368057  -3.6912984
  48.2438198  54.2330387  -3.4932774  48.6588070  55.1385208  -4.6333506
  56.1788866  46.0091734   5.6911772  56.6970809  46.7452761   5.3658260
  55.8243998  46.3155727   6.5258531  56.4301460  42.4292016   1.2112668
  56.7103214  41.7615205   1.8373095  57.2152067  42.6221112   0.6987332
  60.3010318  50.8509650   4.9584243  61.2527741  50.9507748   4.9796467
  60.1313769  50.0587919   5.4682328  58.3224698  47.9365233   5.1443644
  57.7274630  48.2170246   4.4490133  58.0374394  48.4259134   5.9160385
  62.7798396  54.0715770   4.0726543  62.7474716  53.1331771   4.2586227
  63.3899020  54.1499807   3.3392368  54.6181727  52.9411823  -9.8846253
  55.5640831  52.8118031  -9.8157835  54.2395972  52.2026485  -9.4076825
  62.9292884  50.8626813   4.1184826  62.4131933  50.0785270   3.9314755
  63.8132833  50.5345530   4.2831346  60.5903611  44.6067829   0.0780639
  60.3928432  44.2982917   0.9623971  61.2003317  45.3329468   0.2078569
  68.5974946  55.1331777   3.2132580  69.3278334  54.8717065   3.7740283
  67.9881891  54.3960499   3.2534648  66.6790243  53.2739639   3.8107031
  65.9523406  53.1395604   3.2023523  66.2637530  53.5816468   4.6163749
  54.5020419  56.9929569  11.5754404  55.4223429  57.1708168  11.7694451
  54.4670002  56.0485614  11.4234103  43.7202584  52.1868163   0.5007679
  43.4005369  51.3333471   0.2082053  43.1736012  52.4016741   1.2565646
  47.4982492  54.9030604   4.2177185  47.7168502  55.8347711   4.2365219
  47.9108266  54.5438578   5.0031989  54.4186710  45.4098689  -3.7947126
  53.6087438  45.0645774  -3.4191880  55.1071127  45.1006233  -3.2059515
  56.3477258  44.4876736  -2.1722830  56.9008297  44.9072189  -1.5132807
  56.5847344  43.5612484  -2.1299874  52.3710357  50.4763809  13.6079934
  52.2707084  51.4258166  13.5392025  52.1531899  50.1482048  12.7356004
  43.5890844  55.8071074   2.4700800  42.8954316  55.3925027   1.9570755
  44.3363835  55.8491611   1.8734219  59.7256065  46.5977261  -2.6644165
  59.1454734  47.2562065  -3.0466113  59.4591998  45.7754606  -3.0756748
  58.1759631  45.9982319  -0.4622845  58.6759410  46.1098853  -1.2708526
  58.8195239  45.6943371   0.1777963  52.2341627  53.9060948  12.4244996
  51.7508709  54.7061308  12.6308885  52.3202566  53.9168893  11.4712440
  45.5027587  55.7389328   0.3466815  45.4798275  55.8377015  -0.6051302
  45.8128223  56.5854479   0.6683981  48.1614965  57.7965483   4.4613430
  49.1158218  57.7649425   4.3943361  47.9627488  57.3356107   5.2763656
  48.7514347  56.3666599   7.0284227  49.5707236  56.8610678   7.0519065
  49.0251155  55.4498567   7.0001795  58.5080943  48.7577351  -3.6087817
  57.6206798  49.0427002  -3.8267622  58.9234932  48.5971115  -4.4560540
  61.8595479  48.7823872   0.1066522  62.6355869  49.2720325   0.3791139
  61.1343613  49.2081926   0.5638392  64.2968038  49.4951492   1.1640463
  64.8912529  49.2547227   0.4533771  64.3694621  48.7758622   1.7913999
  46.5165193  63.3385102   1.4783628  46.3819661  62.5785503   0.9121626
  46.0997256  64.0626002   1.0112416  58.4821967  54.2731887  -3.3937527
  58.4257168  54.7300439  -4.2329895  59.0350309  53.5122572  -3.5714684
  62.2926773  50.0621619  -2.5687408  62.0363707  49.6618255  -1.7379200
  61.6679641  50.7765413  -2.6937268  66.6039111  52.8017692  -0.0616116
  66.0438668  52.8710882   0.7115446  65.9982614  52.6258677  -0.7816620
  49.6734319  64.2354419   1.6902070  49.5566703  65.1799852   1.5880760
  48.8526766  63.9327981   2.0787869  59.2156746  55.4636668  -6.0984998
  59.1605550  55.2980940  -7.0396554  58.5902801  56.1712701  -5.9422808
  44.0049261  50.7004733   7.7276424  44.6508125  50.1903687   8.2163650
  43.7966412  51.4373415   8.3019850  56.5302653  57.7685580  13.2268565
  57.3993813  57.9426233  12.8655200  56.0509405  58.5879997  13.1044294
  50.6988833  64.8882681   4.9057999  51.6016080  64.9206292   5.2224494
  50.4726204  63.9583132   4.9204334  52.4542435  63.6413668   1.5668077
  51.5038066  63.6415530   1.4532449  52.7574922  62.8946402   1.0504112
  56.3404991  41.5587554  -2.2653743  55.5737387  41.0046041  -2.1197060
  56.7515696  41.6309423  -1.4039591  48.3446752  47.8472350  11.8251439
  49.2078214  47.4909155  12.0354763  47.7712163  47.5086245  12.5126843
  64.9984835  69.4301634   2.5675364  64.6603347  69.3142699   1.6795899
  65.8674603  69.0292799   2.5476370  65.4804618  70.5836486   8.5261570
  65.4693259  70.1889284   7.6542073  65.6425258  69.8502559   9.1195341
  58.4036083  72.7788302   1.3956476  59.1957375  72.4379127   0.9802775
  58.6432733  72.8883277   2.3158629  62.2011879  73.3673598   7.4740754
  61.9101745  74.2719229   7.3587420  62.8368864  73.4090126   8.1884823
  63.1268086  70.7450446   4.0642113  63.7231658  70.5206469   3.3499076
  63.1843058  70.0035192   4.6667561  70.6670245  60.8522467   5.0694635
  70.3353570  61.7217878   4.8455850  70.0715858  60.5358751   5.7488665
  60.6114246  69.5048810   0.5027252  59.6864742  69.3725024   0.7104944
  60.8598659  70.2843030   0.9997194  70.5598908  65.5717554   2.1487985
  69.6515786  65.5032962   1.8546746  70.5086504  66.0489499   2.9769810
  57.9723057  69.1482084   1.3371041  58.1015438  69.4016563   2.2510453
  57.2920508  69.7409792   1.0175696  64.6339774  66.9907199  10.0922882
  63.8573108  67.5501119  10.0825747  65.2730337  67.4763982  10.6137752
  72.4260555  63.7733992   3.9265859  71.7834935  64.0666525   3.2805653
  71.9215483  63.6586912   4.7319055  62.8886146  69.7992653   9.6540849
  63.6300831  70.3377697   9.3775673  62.1823132  70.4258941   9.8112401
  68.3641486  71.9421793   8.2513011  68.7724842  71.5004204   7.5067643
  67.6418747  71.3674421   8.5047203  64.7172556  66.8794400   5.6246568
  65.5633751  67.3033813   5.7681217  64.6571194  66.2228024   6.3185131
  67.8672001  64.5398768   7.2827741  67.6232933  65.2940829   6.7462017
  68.1431932  64.9184116   8.1174988  69.8210464  71.0837381   5.9605007
  70.0327359  71.7269140   5.2839388  69.7740212  70.2499697   5.4926937
  67.4236693  63.6955201   2.8641579  66.5621172  63.9936455   3.1558316
  67.4499128  63.9125600   1.9322612  61.6247510  66.9532301  10.4556159
  60.9946171  67.6348582  10.6891556  61.5183598  66.8415382   9.5109297
  56.9192483  66.6204097   1.3822083  56.1291537  66.8761625   0.9062194
  57.4103730  67.4352435   1.4874124  64.7012896  73.5093379   6.2888075
  64.7657328  73.9713786   7.1246246  63.9923819  72.8790744   6.4170384
  55.2030186  66.8734587   3.8137074  55.4538224  67.7581597   4.0794650
  55.7389734  66.6939189   3.0412166  60.9028253  61.2553067  12.8181410
  60.5095198  60.7019265  13.4929054  61.7194393  61.5663645  13.2087928
  63.8196214  62.6710946  10.4101667  64.5605927  63.2718099  10.3306129
  64.0514137  61.9288583   9.8519709  58.9637552  67.8567313   8.6879896
  58.8491067  66.9552570   8.9886995  58.1082070  68.1031010   8.3364713
  66.0429390  75.7985053  10.2867397  65.5993244  75.0121432   9.9688301
  66.7046603  75.9864204   9.6211288  68.1410628  76.0787853   8.3148798
  68.1229103  76.8996734   7.8229067  69.0630548  75.9541928   8.5398939
  64.5983682  73.5931983   9.1572307  65.1312019  72.8320271   8.9271615
  64.0697763  73.3005634   9.8996461  67.7653377  58.6992049   4.6865948
  67.4217646  59.5893690   4.6105059  68.1332339  58.5093706   3.8235533
  66.8449917  61.0696704   2.6515182  66.3414713  61.0326839   1.8382987
  67.1380524  61.9789447   2.7111838  63.0892803  61.1535434   1.6581363
  63.9545800  60.9578242   1.2987253  63.1570312  60.9245785   2.5850720
  60.6955122  63.3837641  -0.9702270  61.2698874  63.1612823  -1.7029077
  61.2826105  63.4526336  -0.2173669  62.9977790  60.2578890  -2.2427200
  62.3442202  59.9427908  -2.8670586  62.9558264  59.6354631  -1.5167377
  66.2315530  66.7460824   2.0820447  65.3138092  66.9675771   1.9242135
  66.6475674  66.8207134   1.2232155  69.5641042  57.9585608  -0.2116314
  69.8699919  57.0982971  -0.4990399  70.2893647  58.5503228  -0.4117320
  55.8565398  68.3616294  -1.8234716  55.6589798  67.7685655  -2.5483649
  55.3012062  68.0568505  -1.1058777  63.8362122  68.2539401   0.2959877
  63.8910732  67.3013237   0.2202354  63.0253324  68.4098840   0.7801176
  67.3728694  67.3358285   6.8865150  67.7278081  67.5629758   7.7459616
  68.0200825  67.6676662   6.2642405  61.2668557  64.4434816   3.6711491
  61.9067936  64.3023575   2.9734454  60.4346087  64.1569330   3.2950093
  58.2697173  64.4135141  -1.5515522  58.5303991  65.3280474  -1.6606362
  59.0914346  63.9459584  -1.4018909  59.7422099  65.8272898   5.6183302
  60.4145152  65.6190260   4.9695951  58.9151885  65.6294984   5.1788535
  65.6447671  62.4534839   7.6348963  64.9975586  63.1524789   7.5413440
  66.4148686  62.8870983   8.0025211  69.0526469  72.7183691  10.7099516
  68.9011975  72.4894243   9.7929600  69.0431148  73.6754293  10.7230861
  65.8211805  70.2915604   5.6945783  66.7503865  70.4426764   5.5214750
  65.4002835  70.3799625   4.8394429  60.1449596  69.1015501   6.3785739
  60.0069394  68.3695740   6.9797278  61.0554519  69.0124401   6.0969927
  62.7731897  68.8135461   5.8669419  63.4831515  68.1728653   5.8256038
  62.7301205  69.0648355   6.7895600  70.7618675  75.7502814   8.7875998
  70.7031221  75.0662034   8.1206581  71.1638194  76.4921804   8.3356624
  61.4860830  65.8000678   7.6865059  60.9498187  65.3491417   8.3386655
  60.8977539  65.9346587   6.9435523  70.7636082  73.7142398   7.0189978
  69.8762861  73.3768320   7.1416377  71.3334634  72.9825429   7.2558743
  52.4165230  70.0466490   0.3433029  53.1036269  69.7328220  -0.2445955
  52.2613358  70.9507854   0.0700281  57.2199952  64.9356686   4.7718053
  57.1358140  64.3282356   4.0368463  56.3982658  65.4265704   4.7727549
  67.3923666  63.4210250   0.1388248  67.8892365  62.6680212  -0.1810682
  66.6210647  63.4574566  -0.4268543  63.9758634  65.5627633  -0.1340067
  63.6056422  65.0098673   0.5540838  64.4717727  64.9585766  -0.6865067
  61.8047833  76.0225128   6.9614951  62.5057292  76.6561611   7.1144345
  61.3342948  76.3639859   6.2010590  69.8342660  60.3879843   2.2867607
  68.9205740  60.6184070   2.4549814  70.2635762  60.4718287   3.1381639
  69.6049119  68.5769735   4.7867501  68.9520569  68.8245643   4.1319954
  69.9829499  67.7633873   4.4529978  65.6536692  69.3189546  11.2733538
  64.9777329  69.2183676  11.9435913  66.4764326  69.1628760  11.7369535
  57.4015551  75.5561483   3.8946053  57.9868988  74.8105171   4.0273958
  57.2040389  75.8665439   4.7782717  51.9933206  68.1267083   2.6150497
  52.0317305  67.5930674   3.4087615  51.4873499  67.6002288   1.9961474
  59.3723968  62.9731623   6.1113039  59.4365294  63.8346454   5.6990436
  59.3091088  62.3605625   5.3785397  58.8476241  65.0454756   9.7586073
  59.4748279  64.6631833  10.3723597  57.9904159  64.8268958  10.1241766
  69.2470349  75.4517731  11.3639809  69.7910253  76.0647689  10.8694763
  68.6657194  76.0097310  11.8806822  59.1536030  64.9287182   1.6731976
  58.4322616  65.5423149   1.5339450  59.9429286  65.4644947   1.5948622
  61.9562344  62.2641608   7.9472628  62.4796746  62.5103905   8.7098938
  61.7374677  63.0961643   7.5275766  57.3529625  64.5345283  -4.1856247
  57.0242331  63.6542662  -4.3681141  57.7068996  64.4792951  -3.2979858
  63.1614889  63.2055303   5.6322299  62.8211709  62.4063116   6.0342979
  62.4553895  63.5057014   5.0599132  63.8131361  60.2904616   4.0849622
  64.6357430  59.8165094   3.9628512  64.0569424  61.0695100   4.5848308
  61.3369939  66.9823736   1.8941600  61.1914520  67.2964039   2.7865882
  60.8595143  67.6008637   1.3412499  63.1966322  63.9726284   1.9422490
  63.1827891  63.0767378   1.6054788  63.9138750  63.9796948   2.5760776
  65.0492453  64.4063625   3.9875617  64.7910231  65.3280695   3.9859948
  64.5177493  64.0094059   4.6776082  55.8115602  69.5229081   4.8329262
  55.2669070  70.2988889   4.9649536  56.6894951  69.8699885   4.6748383
  65.4694409  60.5395575   0.3476780  65.4916105  60.6034908  -0.6071241
  65.8862468  59.7000084   0.5417286  56.5981623  68.6498977   7.7259418
  55.8563359  68.7981612   8.3124049  56.2774368  68.9107243   6.8626168
  64.5425286  78.1914955   7.5239808  64.8512413  77.9464102   8.3962508
  65.3400768  78.3961594   7.0358679  55.2446842  74.4550732   0.7158747
  54.4078750  74.0272907   0.5342748  55.2170488  74.6483176   1.6529538
  62.0844298  64.3672662  11.4199993  62.1332453  65.2434785  11.0377762
  62.6266812  63.8250055  10.8471636  72.5699143  74.9113785  10.7001130
  71.7794687  74.8937924  10.1605629  72.3332498  75.4502079  11.4550166
  72.6897019  71.7606252   8.0133858  72.7395023  71.5956259   8.9549381
  72.5810942  70.8933511   7.6231739  69.9800781  67.7437180   9.3293165
  70.8810644  67.6043645   9.0377163  70.0548755  67.9091635  10.2691342
  64.3143586  65.1204034   8.1746351  63.4446896  65.4137600   7.9028940
  64.5503067  65.7044479   8.8953615  74.1915215  74.1803193   8.2575880
  73.9000024  74.5433174   9.0939341  73.5787347  73.4670201   8.0789212
  72.4402404  69.3035808   6.7255938  72.9156525  69.4963454   5.9174789
  71.5167969  69.3594994   6.4799322  67.0182620  61.3383651   5.6911772
  67.5364564  62.0744678   5.3658260  66.6637753  61.6447645   6.5258531
  67.2695214  57.7583934   1.2112668  67.5496968  57.0907123   1.8373095
  68.0545821  57.9513029   0.6987332  71.1404073  66.1801568   4.9584243
  72.0921495  66.2799666   4.9796467  70.9707523  65.3879836   5.4682328
  69.1618452  63.2657151   5.1443644  68.5668384  63.5462164   4.4490133
  68.8768149  63.7551052   5.9160385  73.7686639  66.1918731   4.1184826
  73.2525687  65.4077188   3.9314755  74.6526587  65.8637448   4.2831346
  71.4297366  59.9359747   0.0780639  71.2322187  59.6274835   0.9623971
  72.0397071  60.6621385   0.2078569  65.3414174  72.3221487  11.5754404
  66.2617183  72.5000086  11.7694451  65.3063757  71.3777532  11.4234103
  54.5596339  67.5160080   0.5007679  54.2399123  66.6625389   0.2082053
  54.0129767  67.7308658   1.2565646  58.3376246  70.2322521   4.2177185
  58.5562256  71.1639629   4.2365219  58.7502020  69.8730496   5.0031989
  67.1871012  59.8168653  -2.1722830  67.7402051  60.2364107  -1.5132807
  67.4241099  58.8904402  -2.1299874  63.2104112  65.8055727  13.6079934
  63.1100839  66.7550084  13.5392025  62.9925654  65.4773966  12.7356004
  54.4284599  71.1362992   2.4700800  53.7348070  70.7216945   1.9570755
  55.1757590  71.1783528   1.8734219  69.0153386  61.3274236  -0.4622845
  69.5153164  61.4390771  -1.2708526  69.6588994  61.0235289   0.1777963
  63.0735382  69.2352866  12.4244996  62.5902463  70.0353226  12.6308885
  63.1596321  69.2460811  11.4712440  56.3421341  71.0681246   0.3466815
  56.3192029  71.1668933  -0.6051302  56.6521978  71.9146396   0.6683981
  59.0008719  73.1257401   4.4613430  59.9551973  73.0941343   4.3943361
  58.8021243  72.6648024   5.2763656  59.5908101  71.6958517   7.0284227
  60.4100990  72.1902595   7.0519065  59.8644909  70.7790485   7.0001795
  54.8443016  66.0296651   7.7276424  55.4901879  65.5195605   8.2163650
  54.6360167  66.7665332   8.3019850  67.3696408  73.0977498  13.2268565
  68.2387567  73.2718150  12.8655200  66.8903159  73.9171915  13.1044294
  67.1798745  56.8879472  -2.2653743  66.4131141  56.3337959  -2.1197060
  67.5909450  56.9601341  -1.4039591  59.1840507  63.1764268  11.8251439
  60.0471968  62.8201072  12.0354763  58.6105917  62.8378162  12.5126843
  71.7422007  76.5844984  12.8181410  71.3488953  76.0311183  13.4929054
  72.5588148  76.8955563  13.2087928  69.6869995  80.3746674   9.7586073
  70.3142034  79.9923751  10.3723597  68.8297914  80.1560876  10.1241766
  74.0497866  81.1347645  13.6079934  73.9494593  82.0842002  13.5392025
  73.8319408  80.8065884  12.7356004  70.0234261  78.5056185  11.8251439
  70.8865723  78.1492990  12.0354763  69.4499672  78.1670080  12.5126843
  58.4076596  37.1287936  -1.9114885  58.9516500  37.7417894  -2.4059930
  57.8263441  37.6867515  -1.3947872  61.7305390  36.5883990  -2.5753564
  60.9400934  36.5708129  -3.1149064  61.4938745  37.1272284  -1.8204527
  56.5302654  34.7747703  -0.0486128  57.3993814  34.9488355  -0.4099494
  56.0509406  35.5942120  -0.1710399  65.4804620  47.5898609  -4.7493124
  65.4693260  47.1951407  -5.6212620  65.6425259  46.8564681  -4.1559352
  62.2011881  50.3735721  -5.8013940  61.9101747  51.2781351  -5.9167273
  62.8368865  50.4152248  -5.0869870  63.1268088  47.7512569  -9.2112580
  63.7231660  47.5268591  -9.9255617  63.1843059  47.0097315  -8.6087132
  70.6670246  37.8584590  -8.2060059  70.3353571  38.7280001  -8.4298844
  70.0715860  37.5420874  -7.5266028  64.6339775  43.9969322  -3.1831811
  63.8573109  44.5563242  -3.1928947  65.2730338  44.4826105  -2.6616941
  72.4260556  40.7796115  -9.3488835  71.7834936  41.0728648  -9.9949040
  71.9215484  40.6649035  -8.5435638  62.8886148  46.8054775  -3.6213844
  63.6300832  47.3439819  -3.8979021  62.1823133  47.4321064  -3.4642292
  68.3641487  48.9483916  -5.0241683  68.7724843  48.5066326  -5.7687050
  67.6418749  48.3736543  -4.7707490  64.7172557  43.8856522  -7.6508126
  65.5633752  44.3095936  -7.5073477  64.6571195  43.2290147  -6.9569563
  67.8672003  41.5460891  -5.9926952  67.6232935  42.3002951  -6.5292677
  68.1431933  41.9246238  -5.1579705  69.8210465  48.0899503  -7.3149687
  70.0327361  48.7331263  -7.9915306  69.7740214  47.2561820  -7.7827757
  61.6247511  43.9594423  -2.8198534  60.9946172  44.6410704  -2.5863137
  61.5183599  43.8477505  -3.7645396  64.7012897  50.5155502  -6.9866619
  64.7657329  50.9775909  -6.1508447  63.9923821  49.8852867  -6.8584309
  60.9028254  38.2615189  -0.4573283  60.5095200  37.7081388   0.2174361
  61.7194394  38.5725768  -0.0666766  63.8196215  39.6773068  -2.8653027
  64.5605928  40.2780221  -2.9448564  64.0514138  38.9350706  -3.4234984
  58.9637553  44.8629436  -4.5874797  58.8491068  43.9614693  -4.2867698
  58.1082071  45.1093132  -4.9389980  66.0429391  52.8047176  -2.9887296
  65.5993245  52.0183554  -3.3066392  66.7046604  52.9926326  -3.6543406
  68.1410629  53.0849976  -4.9605895  68.1229104  53.9058857  -5.4525626
  69.0630549  52.9604051  -4.7355754  64.5983683  50.5994105  -4.1182387
  65.1312020  49.8382393  -4.3483079  64.0697764  50.3067757  -3.3758232
  67.3728695  44.3420408  -6.3889543  67.7278083  44.5691881  -5.5295078
  68.0200826  44.6738784  -7.0112288  65.6447672  39.4596962  -5.6405730
  64.9975587  40.1586911  -5.7341254  66.4148687  39.8933106  -5.2729482
  69.0526470  49.7245814  -2.5655177  68.9011976  49.4956366  -3.4825093
  69.0431149  50.6816415  -2.5523832  65.8211806  47.2977727  -7.5808910
  66.7503866  47.4488886  -7.7539943  65.4002836  47.3861748  -8.4360264
  60.1449597  46.1077624  -6.8968954  60.0069395  45.3757863  -6.2957415
  61.0554521  46.0186524  -7.1784766  62.7731898  45.8197583  -7.4085274
  63.4831516  45.1790775  -7.4498656  62.7301206  46.0710478  -6.4859093
  70.7618676  52.7564937  -4.4878695  70.7031223  52.0724157  -5.1548112
  71.1638195  53.4983927  -4.9398069  61.4860832  42.8062801  -5.5889635
  60.9498189  42.3553540  -4.9368038  60.8977540  42.9408710  -6.3319170
  70.7636084  50.7204520  -6.2564715  69.8762862  50.3830442  -6.1338317
  71.3334635  49.9887552  -6.0195950  61.8047834  53.0287250  -6.3139743
  62.5057294  53.6623733  -6.1610348  61.3342949  53.3701982  -7.0744103
  69.6049120  45.5831858  -8.4887192  68.9520570  45.8307765  -9.1434740
  69.9829500  44.7695996  -8.8224715  65.6536693  46.3251669  -2.0021155
  64.9777330  46.2245798  -1.3318780  66.4764327  46.1690883  -1.5385158
  57.4015552  52.5623605  -9.3808640  57.9868989  51.8167293  -9.2480736
  57.2040391  52.8727562  -8.4971976  58.8476242  42.0516879  -3.5168620
  59.4748281  41.6693956  -2.9031096  57.9904161  41.8331081  -3.1512928
  69.2470350  52.4579854  -1.9114885  69.7910254  53.0709812  -2.4059930
  68.6657195  53.0159432  -1.3947872  61.9562345  39.2703731  -5.3282065
  62.4796747  39.5166027  -4.5655756  61.7374678  40.1023766  -5.7478928
  56.5981625  45.6561100  -5.5495275  55.8563361  45.8043735  -4.9630644
  56.2774369  45.9169365  -6.4128526  64.5425287  55.1977078  -5.7514885
  64.8512414  54.9526225  -4.8792185  65.3400769  55.4023716  -6.2396015
  62.0844299  41.3734785  -1.8554701  62.1332455  42.2496907  -2.2376931
  62.6266813  40.8312178  -2.4283057  72.5699145  51.9175908  -2.5753564
  71.7794688  51.9000047  -3.1149064  72.3332499  52.4564202  -1.8204527
  72.6897020  48.7668374  -5.2620835  72.7395025  48.6018382  -4.3205312
  72.5810943  47.8995633  -5.6522954  69.9800782  44.7499302  -3.9461528
  70.8810645  44.6105767  -4.2377531  70.0548757  44.9153757  -3.0063351
  64.3143587  42.1266157  -5.1008342  63.4446897  42.4199723  -5.3725753
  64.5503068  42.7106602  -4.3801078  74.1915217  51.1865316  -5.0178814
  73.9000025  51.5495296  -4.1815353  73.5787348  50.4732324  -5.1965481
  72.4402405  46.3097930  -6.5498756  72.9156526  46.5025577  -7.3579904
  71.5167970  46.3657116  -6.7955372  67.0182621  38.3445774  -7.5842922
  67.5364565  39.0806801  -7.9096433  66.6637754  38.6509767  -6.7496163
  71.1404074  43.1863690  -8.3170450  72.0921497  43.2861788  -8.2958226
  70.9707524  42.3941959  -7.8072366  69.1618453  40.2719274  -8.1311049
  68.5668385  40.5524286  -8.8264560  68.8768150  40.7613175  -7.3594308
  73.7686640  43.1980854  -9.1569867  73.2525689  42.4139310  -9.3439938
  74.6526589  42.8699570  -8.9923348  65.3414175  49.3283609  -1.7000289
  66.2617184  49.5062208  -1.5060243  65.3063758  48.3839655  -1.8520590
  58.3376248  47.2384644  -9.0577508  58.5562257  48.1701752  -9.0389474
  58.7502021  46.8792618  -8.2722704  63.2104113  42.8117850   0.3325241
  63.1100840  43.7612207   0.2637332  62.9925655  42.4836089  -0.5398689
  63.0735383  46.2414989  -0.8509698  62.5902465  47.0415349  -0.6445808
  63.1596322  46.2522933  -1.8042254  59.0008720  50.1319523  -8.8141264
  59.9551974  50.1003466  -8.8811332  58.8021244  49.6710147  -7.9991038
  59.5908103  48.7020639  -6.2470466  60.4100992  49.1964718  -6.2235629
  59.8644910  47.7852607  -6.2752899  67.3696409  50.1039621  -0.0486128
  68.2387569  50.2780273  -0.4099494  66.8903160  50.9234037  -0.1710399
  59.1840508  40.1826390  -1.4503255  60.0471969  39.8263195  -1.2399930
  58.6105918  39.8440285  -0.7627850  71.7422009  53.5907107  -0.4573283
  71.3488954  53.0373305   0.2174361  72.5588149  53.9017685  -0.0666766
  69.6869996  57.3808796  -3.5168620  70.3142035  56.9985874  -2.9031096
  68.8297915  57.1622998  -3.1512928  74.0497867  58.1409767   0.3325241
  73.9494594  59.0904124   0.2637332  73.8319409  57.8128006  -0.5398689
  70.0234262  55.5118308  -1.4503255  70.8865724  55.1555113  -1.2399930
  69.4499673  55.1732203  -0.7627850   3.1506000  77.9694046  40.3076413
   2.3969708  77.4001444  40.1520417   3.2853541  77.9356710  41.2547047
   3.5612415  78.1269656  43.0396657   4.2915803  77.8654944  43.6004360
   2.9519360  77.3898378  43.0798725   1.6427712  76.2677518  43.6371108
   0.9160876  76.1333483  43.0287600   1.2274999  76.5754347  44.4427826
   1.5676580  75.7955572  39.7647961   1.0076138  75.8648761  40.5379523
   0.9620083  75.6196556  39.0447457   2.7073867  90.1963539  39.5331125
   3.4936956  89.7782962  39.1821542   2.9712571  91.1009632  39.7012773
   8.1082294  90.1338773  40.4364103   8.8407466  89.5637989  40.6701933
   7.3521650  89.7460373  40.8770609   5.6307714  83.8460347  44.8958712
   5.2991039  84.7155758  44.6719927   5.0353328  83.5296631  45.5752742
   5.5236378  88.5655433  41.9752062   4.6153255  88.4970841  41.6810823
   5.4723973  89.0427378  42.8033887   7.3898024  86.7671871  43.7529936
   6.7472404  87.0604404  43.1069730   6.8852952  86.6524792  44.5583132
   5.0438188  90.5135044  34.4415795   5.9556044  90.7462431  34.2663493
   4.5347835  91.0972089  33.8790874   2.8309471  87.5336647  47.1091818
   2.5870403  88.2878708  46.5726094   3.1069401  87.9121995  47.9439065
   2.3874162  86.6893080  42.6905656   1.5258641  86.9874334  42.9822393
   2.4136597  86.9063479  41.7586689  13.9899754  93.2985964  40.3076413
  13.2363463  92.7293362  40.1520417  14.1247296  93.2648628  41.2547047
   2.7290846  81.6929928  44.5130025   2.3855115  82.5831569  44.4369136
   3.0969809  81.5031585  43.6499610   2.6941129  91.6838539  33.0202461
   2.1787752  92.4543144  33.2590848   2.4218437  91.0103675  33.6435522
   1.8087386  84.0634583  42.4779259   1.3052182  84.0264718  41.6647064
   2.1017993  84.9727326  42.5375915   7.6675403  94.4370894  34.9555634
   6.8904846  94.0982053  34.5110796   8.3466884  94.4423517  34.2810599
   2.4827432  89.5565631  34.8462242   2.1777568  89.8711780  35.6972385
   3.4357874  89.6347051  34.8889575   4.7172169  92.2649248  39.6626184
   5.2304050  92.8979239  40.1647893   5.3673392  91.6650443  39.2969544
   1.9788047  91.1390119  37.0387205   2.7259866  91.6511516  36.7294327
   2.2479637  90.8174171  37.8991598   4.4266884  88.1747235  39.0205994
   3.6889641  87.6624621  39.3516236   4.6793658  87.7347617  38.2089271
   4.5278512  80.9523487  39.6147763   4.8337388  80.0920850  39.3273678
   5.2531117  81.5441107  39.4146757   2.3366163  90.3296164  46.7129227
   2.6915551  90.5567637  47.5723693   2.9838294  90.6614541  46.0906482
   8.0663900  93.4514600  37.4178556   7.9281799  93.6416196  36.4899745
   7.7100119  94.2133983  37.8746607   2.3561135  86.4148129  39.9652325
   2.8529834  85.6618091  39.6453395   1.5848116  86.4512446  39.3995534
  10.2090892  92.1188494  41.6070617  10.1980769  93.0013210  41.2364550
   9.3408272  91.7660045  41.4125154   6.8263467  91.0137135  38.0740783
   7.2923919  91.8465127  38.0001085   7.2770967  90.5482117  38.7786041
   4.7980130  83.3817722  42.1131684   3.8843209  83.6121949  42.2813891
   5.2273231  83.4656166  42.9645716   4.5686588  91.5707614  44.6131578
   3.9158038  91.8183522  43.9584031   4.9466968  90.7571753  44.2794055
   1.5608187  87.0175902  35.1434933   1.7771802  87.9000540  34.8423761
   1.0802254  86.6262116  34.4140575  10.8115502  93.2688714  38.2120080
  11.2546648  92.5196039  37.8139203   9.9342013  93.2598850  37.8293812
   7.6534488  94.7544131  47.8397935   7.7032493  94.5894138  48.7813458
   7.5448411  93.8871390  47.4495816   4.9438250  90.7375059  49.1557242
   5.8448113  90.5981524  48.8641240   5.0186225  90.9029514  50.0955419
  10.3548367  94.7393952  40.6042527  11.1895258  95.1783756  40.7680087
  10.4907496  94.2632605  39.7850773   7.4039873  92.2973687  46.5520015
   7.8793994  92.4901333  45.7438866   6.4805438  92.3532873  46.3063399
   1.9820089  84.3321531  45.5175849   2.5002033  85.0682557  45.1922337
   1.6275222  84.6385524  46.3522608   2.2332684  80.7521813  41.0376745
   2.5134437  80.0845002  41.6637172   3.0183290  80.9450909  40.5251409
   6.1041542  89.1739447  44.7848320   7.0558965  89.2737545  44.8060544
   5.9344992  88.3817716  45.2946405   4.1255921  86.2595030  44.9707721
   3.5305853  86.5400043  44.2754210   3.8405618  86.7488931  45.7424462
   8.5829620  92.3945567  43.8990620   8.5505940  91.4561567  44.0850304
   9.1930243  92.4729603  43.1656445   8.7324108  89.1856610  43.9448903
   8.2163157  88.4015067  43.7578832   9.6164057  88.8575327  44.1095423
   6.3934835  82.9297626  39.9044716   6.1959656  82.6212714  40.7888048
   7.0034541  83.6559265  40.0342646  14.4006169  93.4561574  43.0396657
  15.1309558  93.1946862  43.6004360  13.7913115  92.7190296  43.0798725
  12.4821467  91.5969436  43.6371108  11.7554630  91.4625401  43.0287600
  12.0668753  91.9046265  44.4427826   2.1508482  82.8106533  37.6541247
   2.7039520  83.2301986  38.3131270   2.3878568  81.8842281  37.6964203
   5.5287289  84.9207058  37.1619912   4.9485958  85.5791862  36.7797964
   5.2623221  84.0984402  36.7507329   3.9790855  84.3212115  39.3641232
   4.4790633  84.4328650  38.5555551   4.6226463  84.0173168  40.0042040
   4.3112167  87.0807148  36.2176260   3.4238022  87.3656799  35.9996455
   4.7266156  86.9200912  35.3703537   7.6626703  87.1053669  39.9330599
   8.4387093  87.5950122  40.2055216   6.9374837  87.5311723  40.3902469
  10.0999262  87.8181288  40.9904540  10.6943752  87.5777024  40.2797848
  10.1725845  87.0988419  41.6178076   4.2853191  92.5961684  36.4326550
   4.2288392  93.0530236  35.5934182   4.8381533  91.8352369  36.2549393
   8.0957996  88.3851416  37.2576669   7.8394931  87.9848052  38.0884877
   7.4710864  89.0995210  37.1326809  12.4070334  91.1247489  39.7647961
  11.8469892  91.1940679  40.5379523  11.8013838  90.9488474  39.0447457
   2.1436215  79.8817351  37.5610334   1.3768611  79.3275838  37.7067017
   2.5546920  79.9539220  38.4224486  15.3672266  96.2815405  39.6147763
  15.6731143  95.4212768  39.3273678  16.0924871  96.8733025  39.4146757
  13.0726438  96.0813731  41.0376745  13.3528192  95.4136920  41.6637172
  13.8577045  96.2742826  40.5251409  12.9829969  95.2109269  37.5610334
  12.2162365  94.6567755  37.7067017  13.3940674  95.2831137  38.4224486
   3.1506001  54.9756169  27.0321719   2.3969710  54.4063567  26.8765724
   3.2853542  54.9418833  27.9792354   3.5612416  55.1331779  29.7641964
   4.2915805  54.8717067  30.3249667   2.9519362  54.3960500  29.8044032
   1.6427713  53.2739641  30.3616415   0.9160877  53.1395606  29.7532906
   1.2275000  53.5816470  31.1673133   1.5676581  52.8017694  26.4893268
   1.0076139  52.8710883  27.2624830   0.9620084  52.6258679  25.7692764
   3.1532600  69.4774208  29.1823223   3.7911009  69.3580955  28.4786563
   3.0353442  70.4255052  29.2411175   2.7073868  67.2025662  26.2576431
   3.4936957  66.7845085  25.9066848   2.9712572  68.1071754  26.4258080
   2.8783945  72.6398512  20.9565088   2.2429778  72.7133139  21.6685993
   2.5481352  73.2292111  20.2784167   8.1082295  67.1400895  27.1609410
   8.8407467  66.5700112  27.3947239   7.3521651  66.7522496  27.6015915
   5.6307715  60.8522469  31.6204018   5.2991040  61.7217880  31.3965233
   5.0353329  60.5358753  32.2998049   2.1239235  73.0535015  31.0199931
   1.8239958  73.9560054  30.9115738   1.7790295  72.7867198  31.8721084
   5.5236379  65.5717555  28.6997368   4.6153256  65.5032964  28.4056129
   5.4723975  66.0489500  29.5279194   7.3898025  63.7733994  30.4775242
   6.7472405  64.0666527  29.8315037   6.8852954  63.6586914  31.2828439
   5.0438189  67.5197167  21.1661102   5.9556045  67.7524554  20.9908799
   4.5347836  68.1034211  20.6036180   3.3278957  71.9421795  34.8022394
   3.7362313  71.5004205  34.0577027   2.6056218  71.3674422  35.0556587
   3.6507771  72.5022985  28.5574683   3.0216634  72.6668700  27.8550751
   3.2633433  72.9164595  29.3285647   7.5297003  73.4377423  25.9119047
   6.8448041  73.8176325  25.3616080   7.6140852  74.0472750  26.6450995
   2.8309472  64.5398770  33.8337125   2.5870404  65.2940830  33.2971400
   3.1069402  64.9184118  34.6684372   4.7847935  71.0837382  32.5114390
   4.9964830  71.7269142  31.8348771   4.7377683  70.2499699  32.0436320
   2.3874164  63.6955203  29.4150963   1.5258643  63.9936457  29.7067700
   2.4136598  63.9125602  28.4831995   5.8993763  73.9609338  30.6836748
   6.7211206  73.5589525  30.4019429   5.8956165  73.8577572  31.6352864
  13.9899756  70.3048086  27.0321719  13.2363464  69.7355484  26.8765724
  14.1247297  70.2710751  27.9792354   1.0066860  75.7985055  36.8376781
   0.5630714  75.0121434  36.5197685   1.6684074  75.9864206  36.1720671
   3.1048098  76.0787855  34.8658182   3.0866574  76.8996736  34.3738451
   4.0268018  75.9541930  35.0908323   2.7290847  58.6992050  31.2375332
   2.3855117  59.5893692  31.1614443   3.0969810  58.5093708  30.3744917
   2.6941130  68.6900662  19.7447767   2.1787753  69.4605266  19.9836155
   2.4218438  68.0165798  20.3680829   1.8087388  61.0696706  29.2024565
   1.3052183  61.0326841  28.3892371   2.1017995  61.9789448  29.2621222
   7.6675404  71.4433016  21.6800941   6.8904847  71.1044176  21.2356103
   8.3466885  71.4485639  21.0055906   2.4827433  66.5627754  21.5707548
   2.1777569  66.8773903  22.4217692   3.4357875  66.6409174  21.6134881
   5.9066711  70.9166997  28.3367549   5.2490385  71.6066259  28.4247677
   6.7107110  71.3063429  28.6801535   4.7172170  69.2711370  26.3871490
   5.2304052  69.9041362  26.8893200   5.3673394  68.6712566  26.0214850
   1.9788048  68.1452241  23.7632511   2.7259867  68.6573639  23.4539633
   2.2479638  67.8236294  24.6236905   5.4833966  74.2517372  24.5150633
   5.0296293  73.4108281  24.5715823   4.8527933  74.8878770  24.8525413
   4.4266886  65.1809358  25.7451300   3.6889642  64.6686744  26.0761543
   4.6793659  64.7409739  24.9334577   3.9266905  76.0893868  25.4500451
   4.2189880  76.6498925  24.7312817   4.4365526  76.3822429  26.2053610
   4.5278513  57.9585610  26.3393070   4.8337390  57.0982973  26.0518985
   5.2531118  58.5503230  26.1392064   2.3366164  67.3358287  33.4374534
   2.6915552  67.5629760  34.2968999   2.9838296  67.6676664  32.8151789
   8.0663901  70.4576723  24.1423863   7.9281800  70.6478319  23.2145052
   7.7100120  71.2196106  24.5991914   8.0933281  72.5253250  29.1535134
   8.5269788  72.4328539  30.0018188   8.8064862  72.5010750  28.5155150
   1.8261176  76.1255344  30.6868235   1.8798198  76.6946280  31.4545951
   0.9575957  76.2957229  30.3222272   8.9548830  72.5676950  31.6868019
   9.1484720  73.4722761  31.9327294   8.8549449  72.1084370  32.5206605
   4.0163939  72.7183693  37.2608900   3.8649445  72.4894245  36.3438984
   4.0068619  73.6754295  37.2740245   1.1342822  73.6947873  27.4042542
   0.7992655  73.6548643  28.3000192   0.6346768  73.0292589  26.9312952
   5.7256146  75.7502816  35.3385382   5.6668692  75.0662036  34.6715965
   6.1275664  76.4921806  34.8866008   5.7273553  73.7142400  33.5699362
   4.8400332  73.3768321  33.6925760   6.2972104  72.9825431  33.8068127
   2.3561136  63.4210252  26.6897632   2.8529836  62.6680214  26.3698702
   1.5848118  63.4574568  26.1240841  10.2090894  69.1250617  28.3315923
  10.1980770  70.0075332  27.9609856   9.3408273  68.7722168  28.1370460
   1.7173390  78.2730686  32.6918763   2.4301362  78.9078151  32.6194665
   1.2263419  78.3694552  31.8758765   3.4390917  72.1781939  24.2636055
   2.5047196  72.2983401  24.0940759   3.6167585  71.2754405  23.9996065
   6.8263468  68.0199258  24.7986089   7.2923920  68.8527250  24.7246392
   7.2770969  67.5544240  25.5031348   4.8939699  74.3643079  21.7972241
   5.1699543  74.2499674  22.7066115   4.0244198  73.9660564  21.7584414
   4.7980131  60.3879845  28.8376991   3.8843211  60.6184072  29.0059198
   5.2273232  60.4718289  29.6891023   4.5686589  68.5769737  31.3376885
   3.9158040  68.8245644  30.6829337   4.9466969  67.7633875  31.0039362
   1.5293763  78.6129430  25.4405055   1.7116158  77.7951086  25.9032807
   2.3526749  78.8297122  25.0029945   1.8635929  77.5397615  22.7020103
   2.3923695  77.0290070  22.0890266   2.1264148  77.2240145  23.5665636
   4.2107820  75.4517733  37.9149192   4.7547724  76.0647691  37.4204147
   3.6294664  76.0097311  38.4316205   2.4965333  78.5738451  29.0464220
   2.3716472  77.7728191  28.5375165   3.1544424  79.0684644  28.5578190
   4.5600241  76.3747471  30.6743770   3.6130577  76.2552822  30.6022097
   4.9083014  75.4869969  30.7570031   1.5646674  76.1700187  26.8748122
   1.4171637  75.2416895  27.0555692   2.3900168  76.1920278  26.3905197
   5.1680796  76.9928746  27.9612995   6.0927344  76.7871607  27.8237446
   4.9996099  76.7445147  28.8702336   1.5608189  64.0238025  21.8680239
   1.7771803  64.9062663  21.5669068   1.0802256  63.6324238  21.1385881
   4.9576112  77.5114413  23.3175086   5.1312990  76.9460836  22.5648939
   5.4505004  78.3115308  23.1354576  10.8115503  70.2750836  24.9365386
  11.2546650  69.5258162  24.5384509   9.9342014  70.2660973  24.5539118
   5.9451285  76.8281178  20.4171985   6.6402189  77.4487871  20.6359299
   6.2874435  75.9776529  20.6924363   7.8442708  74.2780883  21.9459315
   8.3694032  74.6168156  21.2208635   7.7565060  73.3427899  21.7622450
   7.5336614  74.9113787  37.2510513   6.7432158  74.8937926  36.7115013
   7.2969969  75.4502081  38.0059550   7.6534489  71.7606253  34.5643242
   7.7032494  71.5956261  35.5058765   7.5448412  70.8933512  34.1741123
   4.9438251  67.7437181  35.8802549   5.8448114  67.6043646  35.5886546
   5.0186226  67.9091636  36.8200726   9.1552686  74.1803195  34.8085263
   8.8637494  74.5433175  35.6448724   8.5424817  73.4670203  34.6298596
  10.3548368  71.7456075  27.3287834  11.1895260  72.1845879  27.4925394
  10.4907497  71.2694728  26.5096079   7.4039874  69.3035810  33.2765321
   7.8793996  69.4963456  32.4684173   6.4805439  69.3594995  33.0308705
   1.9820091  61.3383653  32.2421155   2.5002034  62.0744680  31.9167644
   1.6275223  61.6447646  33.0767914   2.2332685  57.7583936  27.7622052
   2.5134439  57.0907125  28.3882479   3.0183292  57.9513031  27.2496716
   6.1041543  66.1801570  31.5093627   7.0558966  66.2799667  31.5305851
   5.9344994  65.3879838  32.0191711   4.1255923  63.2657153  31.6953028
   3.5305855  63.5462166  30.9999517   3.8405619  63.7551054  32.4669769
   8.5829621  69.4007689  30.6235927   8.5505941  68.4623690  30.8095611
   9.1930245  69.4791726  29.8901752   8.7324109  66.1918733  30.6694210
   8.2163158  65.4077189  30.4824139   9.6164058  65.8637449  30.8340729
   6.3934836  59.9359748  26.6290023   6.1959657  59.6274837  27.5133355
   7.0034542  60.6621387  26.7587952  14.4006171  70.4623696  29.7641964
  15.1309559  70.2008984  30.3249667  13.7913116  69.7252418  29.8044032
  12.4821468  68.6031559  30.3616415  11.7554631  68.4687524  29.7532906
  12.0668755  68.9108387  31.1673133   2.1508483  59.8168655  24.3786554
   2.7039522  60.2364109  25.0376577   2.3878569  58.8904403  24.4209510
   5.5287290  61.9269180  23.8865218   4.9485959  62.5853984  23.5043271
   5.2623223  61.1046525  23.4752636   3.9790856  61.3274238  26.0886539
   4.4790635  61.4390773  25.2800857   4.6226464  61.0235291  26.7287347
   4.3112168  64.0869271  22.9421566   3.4238023  64.3718921  22.7241761
   4.7266157  63.9263034  22.0948843   7.6626704  64.1115792  26.6575906
   8.4387094  64.6012244  26.9300523   6.9374838  64.5373846  27.1147775
  10.0999263  64.8243411  27.7149846  10.6943754  64.5839147  27.0043155
  10.1725847  64.1050542  28.3423383   4.2853192  69.6023807  23.1571857
   4.2288393  70.0592358  22.3179489   4.8381534  68.8414491  22.9794699
   8.0957998  65.3913539  23.9821976   7.8394932  64.9910174  24.8130184
   7.4710866  66.1057333  23.8572115  12.4070336  68.1309612  26.4893268
  11.8469894  68.2002801  27.2624830  11.8013839  67.9550596  25.7692764
   5.3642079  74.2896475  19.0868047   6.1987683  73.8577673  18.9045521
   5.2026422  74.1178488  20.0144941   5.0187971  70.7928588  20.4524386
   4.9636775  70.6272859  19.5112830   4.3934026  71.5004621  20.6086576
   2.3333878  73.0977500  39.7777949   3.2025038  73.2718152  39.4164583
   1.8540630  73.9171917  39.6553678   2.1436216  56.8879474  24.2855641
   1.3768612  56.3337960  24.4312323   2.5546921  56.9601342  25.1469793
  13.9926354  84.8066126  29.1823223  14.6304764  84.6872873  28.4786563
  13.8747197  85.7546970  29.2411175  10.8016060  84.7593554  29.1184748
  10.4634572  84.6434619  28.2305283  11.6705828  84.3584719  29.0985754
   6.6602876  86.6129030  25.1081639   6.0967741  86.5218967  24.3397927
   6.5455271  85.7928935  25.5884131  11.2835843  85.9128406  35.0770953
  11.2724484  85.5181204  34.2051457  11.4456483  85.1794478  35.6704725
   4.2067308  88.1080222  27.9465859   4.9988600  87.7671047  27.5312159
   4.4463958  88.2175197  28.8668013   8.0043104  88.6965517  34.0250137
   7.7132970  89.6011148  33.9096804   8.6400089  88.7382045  34.7394207
   8.9299311  86.0742366  30.6151497   9.5262884  85.8498388  29.9008460
   8.9874283  85.3327111  31.2176945  13.5467622  82.5317580  26.2576431
  14.3330712  82.1137003  25.9066848  13.8106327  83.4363672  26.4258080
  13.7177700  87.9690430  20.9565088  13.0823533  88.0425056  21.6685993
  13.3875106  88.5584029  20.2784167  18.9476050  82.4692813  27.1609410
  19.6801222  81.8992030  27.3947239  18.1915405  82.0814413  27.6015915
  10.5652169  84.8920054  24.3572752  10.2010377  84.3650675  25.0685674
  11.4219285  84.5018523  24.1839238  16.4701470  76.1814387  31.6204018
  16.1384795  77.0509798  31.3965233  15.8747083  75.8650671  32.2998049
  10.2057656  79.9209954  19.3534101  10.3732059  80.7890190  19.7204572
  10.0154825  80.0837236  18.4295390  12.9632989  88.3826933  31.0199931
  12.6633713  89.2851972  30.9115738  12.6184049  88.1159116  31.8721084
   6.4145471  84.8340730  27.0536636   5.4895967  84.7016944  27.2614327
   6.6629884  85.6134949  27.5506578  16.3630133  80.9009473  28.6997368
  15.4547011  80.8324882  28.4056129  16.3117729  81.3781418  29.5279194
  10.1846877  82.3767611  20.3380768  10.0646502  82.8224662  21.1766248
   9.4899466  82.7252929  19.7794306   3.7754282  84.4774003  27.8880425
   3.9046663  84.7308482  28.8019836   3.0951733  85.0701711  27.5685080
  10.4370999  82.3199119  36.6432266   9.6604333  82.8793039  36.6335130
  11.0761562  82.8055902  37.1647136  18.2291780  79.1025911  30.4775242
  17.5866160  79.3958445  29.8315037  17.7246708  78.9878832  31.2828439
  15.8831943  82.8489085  21.1661102  16.7949799  83.0816471  20.9908799
  15.3741590  83.4326129  20.6036180   8.6917371  85.1284572  36.2050233
   9.4332056  85.6669616  35.9285056   7.9854357  85.7550861  36.3621785
  14.1672711  87.2713712  34.8022394  14.5756067  86.8296123  34.0577027
  13.4449973  86.6966340  35.0556587  10.5203781  82.2086319  32.1755951
  11.3664976  82.6325733  32.3190600  10.4602419  81.5519944  32.8694514
  14.4901526  87.8314903  28.5574683  13.8610388  87.9960617  27.8550751
  14.1027188  88.2456513  29.3285647  18.3690758  88.7669341  25.9119047
  17.6841796  89.1468242  25.3616080  18.4534607  89.3764668  26.6450995
  13.6703226  79.8690688  33.8337125  13.4264158  80.6232748  33.2971400
  13.9463157  80.2476035  34.6684372  15.6241689  86.4129300  32.5114390
  15.8358584  87.0561060  31.8348771  15.5771437  85.5791617  32.0436320
  13.2267918  79.0247121  29.4150963  12.3652397  79.3228374  29.7067700
  13.2530353  79.2417520  28.4831995  10.0429488  87.5689311  25.8224768
  10.5067833  87.8477014  25.0329391   9.7786286  86.6672756  25.6397859
   6.9353569  87.1160793  28.7604531   7.5054926  87.5448061  28.1222016
   7.5261680  86.8343377  29.4588717   8.9798374  83.6912464  22.6314333
   9.6822417  84.1433507  23.0988260   8.6479002  83.0496282  23.2594226
   7.4278735  82.2824220  37.0065543   6.7977396  82.9640501  37.2400940
   7.3214823  82.1707302  36.0618681   2.7223708  81.9496016  27.9331467
   1.9322762  82.2053545  27.4571578   3.2134955  82.7644354  28.0383507
  16.7387517  89.2901255  30.6836748  17.5604961  88.8881443  30.4019429
  16.7349920  89.1869490  31.6352864   4.6738453  82.3140595  24.8914944
   3.8769616  82.4259290  25.4098439   4.4464045  82.6527248  24.0255834
  10.5044121  88.8385299  32.8397458  10.5688553  89.3005706  33.6755630
   9.7955044  88.2082664  32.9679768   1.0061411  82.2026507  30.3646458
   1.2569449  83.0873517  30.6304034   1.5420959  82.0231108  29.5921550
  24.8293510  85.6340004  27.0321719  24.0757219  85.0647402  26.8765724
  24.9641051  85.6002668  27.9792354   6.7059478  76.5844986  39.3690794
   6.3126423  76.0311185  40.0438438   7.5225618  76.8955565  39.7597311
   9.6227439  78.0002865  36.9611050  10.3637152  78.6010018  36.8815513
   9.8545362  77.2580503  36.4029093   4.7668777  83.1859232  35.2389280
   4.6522292  82.2844490  35.5396379   3.9113295  83.4322929  34.8874097
  11.8460615  91.1276973  36.8376781  11.4024469  90.3413351  36.5197685
  12.5077828  91.3156123  36.1720671   6.6047736  92.6572774  31.3637459
   7.1555161  92.5289838  30.5914453   5.7659212  92.9567663  31.0132352
  13.9441853  91.4079773  34.8658182  13.9260328  92.2288654  34.3738451
  14.8661773  91.2833848  35.0908323  10.4014907  88.9223902  35.7081690
  10.9343244  88.1612190  35.4780998   9.8728988  88.6297554  36.4505845
  13.5684602  74.0283968  31.2375332  13.2248871  74.9185610  31.1614443
  13.9363564  73.8385626  30.3744917  13.5334885  84.0192579  19.7447767
  13.0181508  84.7897184  19.9836155  13.2612193  83.3457715  20.3680829
  11.1181996  78.8642280  24.8033006  10.2623592  78.4749130  24.6238644
  11.5308947  78.9434241  23.9432791  12.6481142  76.3988623  29.2024565
  12.1445938  76.3618758  28.3892371  12.9411749  77.3081366  29.2621222
   8.8924028  76.4827353  28.2090747   9.7577025  76.2870162  27.8496636
   8.9601537  76.2537705  29.1360104  18.5069159  86.7724934  21.6800941
  17.7298601  86.4336093  21.2356103  19.1860640  86.7777557  21.0055906
  13.3221188  81.8919671  21.5707548  13.0171323  82.2065820  22.4217692
  14.2751630  81.9701091  21.6134881  11.7667620  88.0509895  23.2200502
  11.2388981  87.3162654  22.9073740  11.2655122  88.8284571  22.9740471
  16.7460466  86.2458915  28.3367549  16.0884140  86.9358176  28.4247677
  17.5500865  86.6355347  28.6801535   6.4986347  78.7129561  25.5807114
   7.0730099  78.4904742  24.8480307   7.0857330  78.7818255  26.3335715
  15.5565924  84.6003288  26.3871490  16.0697806  85.2333280  26.8893200
  16.2067148  84.0004483  26.0214850   8.8009015  75.5870810  24.3082183
   8.1473427  75.2719827  23.6838798   8.7589489  74.9646550  25.0342006
  12.0346755  82.0752743  28.6329831  11.1169317  82.2967690  28.4751519
  12.4506899  82.1499054  27.7741538  12.8181803  83.4744159  23.7632511
  13.5653622  83.9865556  23.4539633  13.0873393  83.1528212  24.6236905
  16.3227721  89.5809289  24.5150633  15.8690048  88.7400199  24.5715823
  15.6921687  90.2170688  24.8525413  15.2660640  80.5101275  25.7451300
  14.5283397  79.9978661  26.0761543  15.5187414  80.0701657  24.9334577
  14.7660660  91.4185786  25.4500451  15.0583634  91.9790843  24.7312817
  15.2759280  91.7114347  26.2053610  15.3672267  73.2877527  26.3393070
  15.6731144  72.4274891  26.0518985  16.0924872  73.8795147  26.1392064
   9.6393347  83.5831320  26.8469261   9.6941957  82.6305157  26.7711737
   8.8284549  83.7390759  27.3310559   7.5785707  82.2008380  24.6059640
   6.7653573  82.5002551  25.0124832   8.0744701  81.8064069  25.3234122
   9.7294285  92.1966137  26.5393904   9.6870464  92.4226983  25.6102436
  10.6456984  91.9629512  26.6879705  13.1759919  82.6650205  33.4374534
  13.5309307  82.8921678  34.2968999  13.8232050  82.9968581  32.8151789
  18.9057656  85.7868640  24.1423863  18.7675554  85.9770236  23.2145052
  18.5493875  86.5488023  24.5991914   7.0699782  79.7726736  30.2220875
   7.7099161  79.6315495  29.5243838   6.2377312  79.4861249  29.8459477
  18.9327035  87.8545167  29.1535134  19.3663542  87.7620457  30.0018188
  19.6458616  87.8302668  28.5155150   7.8460086  89.0729166  26.3355867
   8.6400684  88.5779486  26.1338442   7.1351778  88.5447029  25.9723573
  12.6654930  91.4547262  30.6868235  12.7191953  92.0238198  31.4545951
  11.7969712  91.6249147  30.3222272   4.0728398  79.7427061  24.9993861
   4.3335216  80.6572394  24.8903022   4.8945571  79.2751503  25.1490474
   5.5453324  81.1564818  32.1692686   6.2176377  80.9482180  31.5205335
   4.7183110  80.9586904  31.7297918  19.7942585  87.8968868  31.6868019
  19.9878475  88.8014679  31.9327294  19.6943203  87.4376287  32.5206605
  11.4478896  77.7826759  34.1858347  10.8006811  78.4816708  34.0922823
  12.2179911  78.2162903  34.5534595  14.8557694  88.0475611  37.2608900
  14.7043200  87.8186163  36.3438984  14.8462373  89.0046212  37.2740245
  11.6243030  85.6207524  32.2455167  12.5535090  85.7718683  32.0724134
  11.2034060  85.7091544  31.3903813  10.4231362  89.6458188  30.0153704
  10.2842447  89.2776972  30.8879642   9.6345958  90.1605827  29.8437662
  11.9736577  89.0239791  27.4042542  11.6386410  88.9840561  28.3000192
  11.4740523  88.3584507  26.9312952   5.9480821  84.4307421  32.9295123
   5.8100619  83.6987660  33.5306662   6.8585744  84.3416321  32.6479311
   8.5763122  84.1427380  32.4178803   9.2862740  83.5020572  32.3765421
   8.5332430  84.3940275  33.3404984  16.5649900  91.0794733  35.3385382
  16.5062446  90.3953954  34.6715965  16.9669419  91.8213723  34.8866008
   7.2892056  81.1292598  34.2374442   6.7529413  80.6783336  34.8896039
   6.7008764  81.2638507  33.4944907  16.5667307  89.0434317  33.5699362
  15.6794086  88.7060239  33.6925760  17.1365859  88.3117349  33.8068127
   3.0231177  80.2648606  31.3227437   2.9389365  79.6574275  30.5877847
   2.2013883  80.7557624  31.3236933  10.0968461  93.7035770  30.5360605
  10.0238632  94.5090741  31.0479909   9.6545854  93.9027736  29.7108626
  13.1954891  78.7502169  26.6897632  13.6923590  77.9972132  26.3698702
  12.4241872  78.7866486  26.1240841  21.0484648  84.4542535  28.3315923
  21.0374524  85.3367250  27.9609856  20.1802027  84.1014086  28.1370460
  12.5567144  93.6022604  32.6918763  13.2695117  94.2370069  32.6194665
  12.0657173  93.6986470  31.8758765  14.2784671  87.5073856  24.2636055
  13.3440950  87.6275319  24.0940759  14.4561340  86.6046323  23.9996065
   9.7789859  80.8919552  26.4169316   9.4087647  80.3390593  27.1050222
  10.2748952  80.2877686  25.8644316  17.6657223  83.3491176  24.7986089
  18.1317675  84.1819167  24.7246392  18.1164723  82.8836157  25.5031348
   7.6079058  91.3517047  33.5124334   8.3088517  91.9853530  33.6653729
   7.1374173  91.6931779  32.7519974  15.7333454  89.6934997  21.7972241
  16.0093298  89.5791592  22.7066115  14.8637953  89.2952482  21.7584414
  15.6373885  75.7171763  28.8376991  14.7236965  75.9475990  29.0059198
  16.0666987  75.8010207  29.6891023  15.4080344  83.9061655  31.3376885
  14.7551794  84.1537562  30.6829337  15.7860724  83.0925793  31.0039362
  12.3687518  93.9421348  25.4405055  12.5509912  93.1243004  25.9032807
  13.1920504  94.1589040  25.0029945  12.7029683  92.8689533  22.7020103
  13.2317450  92.3581988  22.0890266  12.9657903  92.5532063  23.5665636
  11.4567917  84.6481466  37.8242922  10.7808554  84.5475595  38.4945297
  12.2795551  84.4920679  38.2878919   3.2046776  90.8853402  30.4455437
   3.7900213  90.1397090  30.5783341   3.0071614  91.1957359  31.3292101
   5.1755193  78.3023543  32.6622422   5.2396520  79.1638374  32.2499820
   5.1122313  77.6897545  31.9294781   4.6507466  80.3746675  36.3095457
   5.2779504  79.9923753  36.9232981   3.7935384  80.1560877  36.6751149
  15.0501574  90.7809651  37.9149192  15.5941478  91.3939609  37.4204147
  14.4688419  91.3389229  38.4316205  13.3359087  93.9030369  29.0464220
  13.2110227  93.1020109  28.5375165  13.9938178  94.3976562  28.5578190
   4.9567255  80.2579101  28.2241360   4.2353841  80.8715069  28.0848833
   5.7460511  80.7936866  28.1458006  15.3993995  91.7039389  30.6743770
  14.4524331  91.5844740  30.6022097  15.7476769  90.8161887  30.7570031
   7.7593569  77.5933528  34.4982012   8.2827971  77.8395824  35.2608321
   7.5405902  78.4253562  34.0785149  12.4040429  91.4992105  26.8748122
  12.2565391  90.5708812  27.0555692  13.2293922  91.5212196  26.3905197
   6.2702673  80.1510172  22.7328614   6.6098746  80.6796093  22.0107223
   6.7174794  80.4890578  23.5087181  16.0074551  92.3220664  27.9612995
  16.9321098  92.1163525  27.8237446  15.8389854  92.0737065  28.8702336
   8.9646114  78.5347223  32.1831682   8.6242934  77.7355036  32.5852362
   8.2585120  78.8348934  31.6108516   9.6162586  75.6196535  30.6359005
  10.4388655  75.1457013  30.5137896   9.8600649  76.3987019  31.1357692
   8.2570820  78.6484794  20.9321907   8.9779183  79.0266046  20.4285624
   7.6336124  79.3673670  21.0356885  12.4001943  79.3529943  21.8680239
  12.6165557  80.2354580  21.5669068  11.9196010  78.9616156  21.1385881
   7.1401164  82.3115656  28.4450984   6.9945745  82.6255959  29.3375266
   6.6626368  82.9300556  27.8921883   8.9997547  79.3018204  28.4931874
   8.9859116  78.4059297  28.1564172   9.7169975  79.3088868  29.1270160
  10.8523678  79.7355544  30.5385001  10.5941456  80.6572615  30.5369331
  10.3208718  79.3385979  31.2285465  15.7969867  92.8406331  23.3175086
  15.9706744  92.2752754  22.5648939  16.2898758  93.6407226  23.1354576
   1.6146827  84.8521000  31.3838645   1.0700295  85.6280808  31.5158920
   2.4926176  85.1991805  31.2257767   8.4034443  78.1832584  23.7619444
   8.5250354  77.2549230  23.9610331   8.1136486  78.1971270  22.8497759
  11.2725634  75.8687495  26.8986164  11.2947330  75.9326828  25.9438143
  11.6893693  75.0292003  27.0926670  21.6509258  85.6042754  24.9365386
  22.0940404  84.8550079  24.5384509  20.7735768  85.5952890  24.5539118
  16.7845039  92.1573096  20.4171985  17.4795944  92.7779788  20.6359299
  17.1268189  91.3068447  20.6924363   2.4012848  83.9790897  34.2768802
   1.6594585  84.1273532  34.8633433   2.0805593  84.2399162  33.4135552
  18.6836462  89.6072801  21.9459315  19.2087787  89.9460074  21.2208635
  18.5958815  88.6719816  21.7622450  10.3456511  93.5206875  34.0749192
  10.6543638  93.2756021  34.9471892  11.1431993  93.7253513  33.5868062
  10.3677123  95.6744784  26.3054569   9.9282113  95.1821163  26.9987425
  11.1185240  95.1317752  26.0646644   7.8150995  91.2182793  28.3776870
   7.1931005  90.5553498  28.0779098   8.4855862  91.2443925  27.6950518
   7.8875523  79.6964581  37.9709376   7.9363678  80.5726704  37.5887146
   8.4298037  79.1541975  37.3981020  18.3730368  90.2405705  37.2510513
  17.5825912  90.2229844  36.7115013  18.1363723  90.7793998  38.0059550
  18.4928244  87.0898171  34.5643242  18.5426248  86.9248179  35.5058765
  18.3842167  86.2225430  34.1741123  15.7832006  83.0729099  35.8802549
  16.6841869  82.9335564  35.5886546  15.8579980  83.2383554  36.8200726
  10.1174811  80.4495954  34.7255735   9.2478121  80.7429520  34.4538324
  10.3534292  81.0336399  35.4462999  19.9946440  89.5095113  34.8085263
  19.7031249  89.8725093  35.6448724  19.3818572  88.7962121  34.6298596
  21.1942123  87.0747992  27.3287834  22.0289014  87.5137796  27.4925394
  21.3301251  86.5986646  26.5096079  18.2433629  84.6327727  33.2765321
  18.7187750  84.8255374  32.4684173  17.3199194  84.6886913  33.0308705
  12.8213845  76.6675571  32.2421155  13.3395789  77.4036598  31.9167644
  12.4668978  76.9739564  33.0767914  13.0726439  73.0875853  27.7622052
  13.3528193  72.4199042  28.3882479  13.8577046  73.2804949  27.2496716
  16.9435298  81.5093487  31.5093627  17.8952721  81.6091585  31.5305851
  16.7738748  80.7171756  32.0191711  14.9649677  78.5949071  31.6953028
  14.3699609  78.8754083  30.9999517  14.6799374  79.0842971  32.4669769
  19.4223375  84.7299607  30.6235927  19.3899696  83.7915608  30.8095611
  20.0323999  84.8083644  29.8901752  19.5717864  81.5210650  30.6694210
  19.0556913  80.7369107  30.4824139  20.4557812  81.1929367  30.8340729
  17.2328591  75.2651666  26.6290023  17.0353412  74.9566754  27.5133355
  17.8428296  75.9913305  26.7587952  25.2399925  85.7915614  29.7641964
  25.9703314  85.5300902  30.3249667  24.6306871  85.0544336  29.8044032
  23.3215222  83.9323476  30.3616415  22.5948386  83.7979441  29.7532906
  22.9062509  84.2400305  31.1673133  11.1445399  87.6513406  38.1263788
  12.0648408  87.8292005  38.3203834  11.1094982  86.7069451  37.9743487
   4.1407471  85.5614441  30.7686569   4.3593481  86.4931549  30.7874603
   4.5533245  85.2022415  31.5541373  11.0611689  76.0682526  22.7562257
  10.2512417  75.7229611  23.1317503  11.7496106  75.7590070  23.3449869
  12.9902237  75.1460573  24.3786554  13.5433276  75.5656026  25.0376577
  13.2272324  74.2196321  24.4209510   9.0135337  81.1347647  40.1589318
   8.9132064  82.0842004  40.0901409   8.7956879  80.8065885  39.2865388
  16.3681045  77.2561098  23.8865218  15.7879714  77.9145902  23.5043271
  16.1016977  76.4338443  23.4752636  14.8184611  76.6566156  26.0886539
  15.3184389  76.7682690  25.2800857  15.4620219  76.3527209  26.7287347
   8.8766607  84.5644785  38.9754379   8.3933688  85.3645145  39.1818269
   8.9627546  84.5752730  38.0221823   4.8039944  88.4549320  31.0122813
   5.7583198  88.4233262  30.9452745   4.6052468  87.9939944  31.8273039
   5.3939326  87.0250436  33.5793611   6.2132215  87.5194515  33.6028448
   5.6676134  86.1082404  33.5511178  15.1505923  79.4161188  22.9421566
  14.2631778  79.7010839  22.7241761  15.5659912  79.2554952  22.0948843
  18.5020459  79.4407709  26.6575906  19.2780849  79.9304162  26.9300523
  17.7768593  79.8665764  27.1147775  20.9393017  80.1535329  27.7149846
  21.5337508  79.9131065  27.0043155  21.0119601  79.4342459  28.3423383
  15.1246946  84.9315724  23.1571857  15.0682148  85.3884276  22.3179489
  15.6775289  84.1706409  22.9794699  18.9351752  80.7205456  23.9821976
  18.6788686  80.3202092  24.8130184  18.3104620  81.4349250  23.8572115
  23.2464090  83.4601529  26.4893268  22.6863648  83.5294719  27.2624830
  22.6407593  83.2842514  25.7692764  16.2035833  89.6188392  19.0868047
  17.0381437  89.1869591  18.9045521  16.0420176  89.4470406  20.0144941
  15.8581726  86.1220506  20.4524386  15.8030529  85.9564777  19.5112830
  15.2327781  86.8296539  20.6086576  13.1727633  88.4269417  39.7777949
  14.0418792  88.6010070  39.4164583  12.6934384  89.2463834  39.6553678
   9.1677851  75.6228615  20.0309704   9.1556521  76.5670455  20.1877975
  10.0601273  75.4398760  19.7369165   9.0967415  94.2997505  28.1177461
   8.1463046  94.2999367  28.0041833   9.3999901  93.5530240  27.6013495
  12.9829971  72.2171391  24.2855641  12.2162366  71.6629878  24.4312323
  13.3940675  72.2893260  25.1469793   4.9871732  78.5056187  38.3760822
   5.8503193  78.1492992  38.5864147   4.4137142  78.1670082  39.0636227
  24.3861377  97.8609497  26.2576431  25.1724466  97.4428920  25.9066848
  24.6500081  98.7655589  26.4258080  29.7869804  97.7984730  27.1609410
  30.5194976  97.2283947  27.3947239  29.0309160  97.4106331  27.6015915
  27.3095224  91.5106305  31.6204018  26.9778549  92.3801716  31.3965233
  26.7140838  91.1942589  32.2998049  21.0451411  95.2501872  19.3534101
  21.2125813  96.1182108  19.7204572  20.8548580  95.4129153  18.4295390
  27.2023888  96.2301391  28.6997368  26.2940765  96.1616799  28.4056129
  27.1511484  96.7073336  29.5279194  21.0240632  97.7059529  20.3380768
  20.9040257  98.1516580  21.1766248  20.3293220  98.0544847  19.7794306
  21.2764754  97.6491036  36.6432266  20.4998088  98.2084956  36.6335130
  21.9155317  98.1347819  37.1647136  29.0685534  94.4317829  30.4775242
  28.4259914  94.7250362  29.8315037  28.5640463  94.3170749  31.2828439
  26.7225698  98.1781002  21.1661102  27.6343554  98.4108389  20.9908799
  26.2135345  98.7618047  20.6036180  21.3597536  97.5378237  32.1755951
  22.2058731  97.9617650  32.3190600  21.2996173  96.8811861  32.8694514
  24.5096981  95.1982605  33.8337125  24.2657913  95.9524666  33.2971400
  24.7856911  95.5767953  34.6684372  24.0661673  94.3539038  29.4150963
  23.2046152  94.6520292  29.7067700  24.0924107  94.5709437  28.4831995
  19.8192128  99.0204381  22.6314333  20.5216171  99.4725425  23.0988260
  19.4872757  98.3788200  23.2594226  18.2672490  97.6116138  37.0065543
  17.6371150  98.2932419  37.2400940  18.1608577  97.4999219  36.0618681
  35.6687265 100.9631922  27.0321719  34.9150973 100.3939320  26.8765724
  35.8034806 100.9294586  27.9792354  17.5453232  91.9136904  39.3690794
  17.1520178  91.3603102  40.0438438  18.3619373  92.2247482  39.7597311
  20.4621193  93.3294783  36.9611050  21.2030907  93.9301936  36.8815513
  20.6939116  92.5872421  36.4029093  24.4078356  89.3575886  31.2375332
  24.0642626  90.2477527  31.1614443  24.7757319  89.1677543  30.3744917
  24.3728639  99.3484497  19.7447767  23.8575262 100.1189102  19.9836155
  24.1005947  98.6749633  20.3680829  21.9575750  94.1934198  24.8033006
  21.1017346  93.8041048  24.6238644  22.3702702  94.2726158  23.9432791
  23.4874897  91.7280541  29.2024565  22.9839692  91.6910676  28.3892371
  23.7805504  92.6373284  29.2621222  19.7317783  91.8119271  28.2090747
  20.5970779  91.6162079  27.8496636  19.7995291  91.5829622  29.1360104
  29.3462913 102.1016852  21.6800941  28.5692356 101.7628011  21.2356103
  30.0254394 102.1069475  21.0055906  24.1614942  97.2211589  21.5707548
  23.8565078  97.5357738  22.4217692  25.1145384  97.2993009  21.6134881
  17.3380102  94.0421479  25.5807114  17.9123854  93.8196660  24.8480307
  17.9251084  94.1110173  26.3335715  26.3959679  99.9295205  26.3871490
  26.9091561 100.5625197  26.8893200  27.0460903  99.3296401  26.0214850
  19.6402769  90.9162727  24.3082183  18.9867182  90.6011745  23.6838798
  19.5983243  90.2938468  25.0342006  22.8740510  97.4044661  28.6329831
  21.9563071  97.6259608  28.4751519  23.2900653  97.4790971  27.7741538
  23.6575557  98.8036077  23.7632511  24.4047376  99.3157474  23.4539633
  23.9267147  98.4820129  24.6236905  26.1054395  95.8393193  25.7451300
  25.3677151  95.3270579  26.0761543  26.3581168  95.3993575  24.9334577
  26.2066022  88.6169445  26.3393070  26.5124899  87.7566808  26.0518985
  26.9318627  89.2087065  26.1392064  20.4787102  98.9123238  26.8469261
  20.5335711  97.9597074  26.7711737  19.6678304  99.0682677  27.3310559
  18.4179462  97.5300298  24.6059640  17.6047327  97.8294468  25.0124832
  18.9138456  97.1355987  25.3234122  24.0153673  97.9942122  33.4374534
  24.3703061  98.2213595  34.2968999  24.6625805  98.3260499  32.8151789
  29.7451410 101.1160558  24.1423863  29.6069309 101.3062154  23.2145052
  29.3887629 101.8779941  24.5991914  17.9093536  95.1018653  30.2220875
  18.5492916  94.9607412  29.5243838  17.0771067  94.8153167  29.8459477
  14.9122153  95.0718978  24.9993861  15.1728970  95.9864312  24.8903022
  15.7339325  94.6043421  25.1490474  16.3847078  96.4856735  32.1692686
  17.0570132  96.2774098  31.5205335  15.5576865  96.2878821  31.7297918
  22.2872650  93.1118676  34.1858347  21.6400565  93.8108626  34.0922823
  23.0573666  93.5454820  34.5534595  18.1285810  96.4584516  34.2374442
  17.5923167  96.0075254  34.8896039  17.5402518  96.5930424  33.4944907
  13.8624931  95.5940523  31.3227437  13.7783120  94.9866193  30.5877847
  13.0407638  96.0849542  31.3236933  24.0348645  94.0794087  26.6897632
  24.5317345  93.3264049  26.3698702  23.2635627  94.1158404  26.1240841
  31.8878403  99.7834452  28.3315923  31.8768279 100.6659168  27.9609856
  31.0195782  99.4306003  28.1370460  20.6183614  96.2211470  26.4169316
  20.2481401  95.6682510  27.1050222  21.1142706  95.6169603  25.8644316
  28.5050977  98.6783093  24.7986089  28.9711429  99.5111085  24.7246392
  28.9558478  98.2128075  25.5031348  26.4767640  91.0463680  28.8376991
  25.5630720  91.2767907  29.0059198  26.9060741  91.1302124  29.6891023
  26.2474098  99.2353572  31.3376885  25.5945549  99.4829480  30.6829337
  26.6254478  98.4217710  31.0039362  22.2961671  99.9773383  37.8242922
  21.6202308  99.8767513  38.4945297  23.1189305  99.8212597  38.2878919
  16.0148948  93.6315461  32.6622422  16.0790274  94.4930292  32.2499820
  15.9516068  93.0189462  31.9294781  15.4901220  95.7038593  36.3095457
  16.1173259  95.3215670  36.9232981  14.6329139  95.4852795  36.6751149
  15.7961010  95.5871019  28.2241360  15.0747596  96.2006987  28.0848833
  16.5854266  96.1228784  28.1458006  18.5987323  92.9225445  34.4982012
  19.1221725  93.1687742  35.2608321  18.3799657  93.7545480  34.0785149
  17.1096428  95.4802090  22.7328614  17.4492500  96.0088011  22.0107223
  17.5568548  95.8182496  23.5087181  19.8039868  93.8639140  32.1831682
  19.4636689  93.0646954  32.5852362  19.0978875  94.1640851  31.6108516
  20.4556340  90.9488453  30.6359005  21.2782410  90.4748931  30.5137896
  20.6994404  91.7278937  31.1357692  19.0964575  93.9776711  20.9321907
  19.8172937  94.3557964  20.4285624  18.4729879  94.6965588  21.0356885
  23.2395698  94.6821860  21.8680239  23.4559312  95.5646498  21.5669068
  22.7589765  94.2908074  21.1385881  17.9794919  97.6407574  28.4450984
  17.8339500  97.9547877  29.3375266  17.5020123  98.2592474  27.8921883
  19.8391302  94.6310122  28.4931874  19.8252871  93.7351215  28.1564172
  20.5563730  94.6380785  29.1270160  21.6917433  95.0647462  30.5385001
  21.4335210  95.9864532  30.5369331  21.1602473  94.6677896  31.2285465
  19.2428198  93.5124502  23.7619444  19.3644109  92.5841148  23.9610331
  18.9530240  93.5263188  22.8497759  22.1119388  91.1979412  26.8986164
  22.1341085  91.2618745  25.9438143  22.5287447  90.3583921  27.0926670
  32.4903012 100.9334672  24.9365386  32.9334159 100.1841997  24.5384509
  31.6129523 100.9244808  24.5539118  18.7269277  95.0256499  37.9709376
  18.7757433  95.9018622  37.5887146  19.2691792  94.4833892  37.3981020
  29.3321998 102.4190089  34.5643242  29.3820003 102.2540096  35.5058765
  29.2235921 101.5517348  34.1741123  26.6225760  98.4021017  35.8802549
  27.5235623  98.2627482  35.5886546  26.6973735  98.5675472  36.8200726
  20.9568566  95.7787872  34.7255735  20.0871875  96.0721438  34.4538324
  21.1928046  96.3628317  35.4462999  32.0335877 102.4039910  27.3287834
  32.8682769 102.8429714  27.4925394  32.1695006 101.9278563  26.5096079
  29.0827383  99.9619645  33.2765321  29.5581505 100.1547291  32.4684173
  28.1592948 100.0178831  33.0308705  23.6607600  91.9967488  32.2421155
  24.1789543  92.7328515  31.9167644  23.3062732  92.3031482  33.0767914
  23.9120194  88.4167771  27.7622052  24.1921948  87.7490960  28.3882479
  24.6970801  88.6096867  27.2496716  27.7829052  96.8385405  31.5093627
  28.7346475  96.9383503  31.5305851  27.6132503  96.0463674  32.0191711
  25.8043432  93.9240988  31.6953028  25.2093364  94.2046001  30.9999517
  25.5193128  94.4134889  32.4669769  30.2617130 100.0591525  30.6235927
  30.2293450  99.1207525  30.8095611  30.8717754 100.1375561  29.8901752
  30.4111618  96.8502568  30.6694210  29.8950667  96.0661025  30.4824139
  31.2951567  96.5221285  30.8340729  28.0722345  90.5943584  26.6290023
  27.8747166  90.2858672  27.5133355  28.6822051  91.3205223  26.7587952
  36.0793680 101.1207532  29.7641964  36.8097068 100.8592820  30.3249667
  35.4700625 100.3836253  29.8044032  34.1608977  99.2615394  30.3616415
  33.4342140  99.1271359  29.7532906  33.7456264  99.5692223  31.1673133
  21.9005444  91.3974444  22.7562257  21.0906172  91.0521529  23.1317503
  22.5889861  91.0881988  23.3449869  23.8295992  90.4752491  24.3786554
  24.3827031  90.8947944  25.0376577  24.0666078  89.5488239  24.4209510
  19.8529091  96.4639564  40.1589318  19.7525818  97.4133921  40.0901409
  19.6350633  96.1357803  39.2865388  27.2074799  92.5853016  23.8865218
  26.6273468  93.2437820  23.5043271  26.9410732  91.7630360  23.4752636
  25.6578365  91.9858073  26.0886539  26.1578144  92.0974608  25.2800857
  26.3013973  91.6819126  26.7287347  25.9899677  94.7453106  22.9421566
  25.1025532  95.0302757  22.7241761  26.4053666  94.5846869  22.0948843
  29.3414213  94.7699627  26.6575906  30.1174603  95.2596080  26.9300523
  28.6162347  95.1957681  27.1147775  31.7786772  95.4827246  27.7149846
  32.3731263  95.2422982  27.0043155  31.8513355  94.7634377  28.3423383
  25.9640701 100.2607642  23.1571857  25.9075902 100.7176193  22.3179489
  26.5169043  99.4998327  22.9794699  29.7745507  96.0497374  23.9821976
  29.5182441  95.6494010  24.8130184  29.1498375  96.7641168  23.8572115
  34.0857845  98.7893447  26.4893268  33.5257403  98.8586636  27.2624830
  33.4801348  98.6134432  25.7692764  20.0071606  90.9520532  20.0309704
  19.9950275  91.8962372  20.1877975  20.8995027  90.7690678  19.7369165
  23.8223725  87.5463309  24.2855641  23.0556121  86.9921796  24.4312323
  24.2334430  87.6185178  25.1469793  15.8265486  93.8348105  38.3760822
  16.6896948  93.4784910  38.5864147  15.2530897  93.4962000  39.0636227
  37.0459776 103.9461363  26.3393070  37.3518653 103.0858726  26.0518985
  37.7712381 104.5378983  26.1392064  34.7513948 103.7459689  27.7622052
  35.0315702 103.0782878  28.3882479  35.5364555 103.9388784  27.2496716
  34.6617479 102.8755227  24.2855641  33.8949875 102.3213713  24.4312323
  35.0728184 102.9477095  25.1469793   3.1532601  46.4836331  15.9068530
   3.7911011  46.3643078  15.2031870   3.0353444  47.4317175  15.9656482
   8.1082296  44.1463018  13.8854716   8.8407468  43.5762235  14.1192546
   7.3521652  43.7584618  14.3261222   5.6307717  37.8584592  18.3449325
   5.2991042  38.7280003  18.1210540   5.0353330  37.5420876  19.0243355
   2.1239236  50.0597138  17.7445238   1.8239959  50.9622177  17.6361045
   1.7790296  49.7929321  18.5966391   7.3898026  40.7796116  17.2020549
   6.7472407  41.0728650  16.5560344   6.8852955  40.6649037  18.0073746
   3.3278958  48.9483917  21.5267701   3.7362314  48.5066328  20.7822333
   2.6056219  48.3736545  21.7801894   3.6507772  49.5085108  15.2819990
   3.0216635  49.6730822  14.5796058   3.2633435  49.9226718  16.0530954
   7.5297004  50.4439546  12.6364354   6.8448042  50.8238447  12.0861387
   7.6140854  51.0534873  13.3696301   2.8309473  41.5460893  20.5582431
   2.5870405  42.3002953  20.0216707   3.1069404  41.9246240  21.3929679
   4.7847936  48.0899505  19.2359697   4.9964831  48.7331265  18.5594078
   4.7377684  47.2561821  18.7681627   5.8993764  50.9671460  17.4082054
   6.7211208  50.5651648  17.1264736   5.8956167  50.8639695  18.3598170
  13.9899757  47.3110209  13.7567026  13.2363465  46.7417607  13.6011030
  14.1247298  47.2772873  14.7037661   1.0066861  52.8047178  23.5622087
   0.5630716  52.0183556  23.2442992   1.6684075  52.9926328  22.8965978
   3.1048099  53.0849978  21.5903489   3.0866575  53.9058859  21.0983758
   4.0268019  52.9604053  21.8153630   5.9066712  47.9229120  15.0612855
   5.2490387  48.6128381  15.1492984   6.7107112  48.3125552  15.4046842
   5.4833967  51.2579494  11.2395940   5.0296294  50.4170404  11.2961130
   4.8527934  51.8940893  11.5770720   3.9266907  53.0955991  12.1745758
   4.2189881  53.6561048  11.4558123   4.4365527  53.3884552  12.9298917
   2.3366166  44.3420409  20.1619840   2.6915553  44.5691883  21.0214306
   2.9838297  44.6738786  19.5397095   8.0933282  49.5315372  15.8780441
   8.5269789  49.4390661  16.7263495   8.8064863  49.5072873  15.2400457
   1.8261177  53.1317466  17.4113541   1.8798199  53.7008403  18.1791257
   0.9575958  53.3019352  17.0467578   8.9548832  49.5739073  18.4113326
   9.1484722  50.4784884  18.6572601   8.8549450  49.1146492  19.2451911
   4.0163940  49.7245816  23.9854207   3.8649447  49.4956367  23.0684290
   4.0068620  50.6816417  23.9985552   1.1342824  50.7009996  14.1287849
   0.7992656  50.6610766  15.0245498   0.6346769  50.0354712  13.6558259
   5.7256147  52.7564938  22.0630689   5.6668693  52.0724158  21.3961272
   6.1275665  53.4983928  21.6111315   5.7273554  50.7204522  20.2944668
   4.8400333  50.3830444  20.4171067   6.2972105  49.9887553  20.5313434
  10.2090895  46.1312740  15.0561230  10.1980771  47.0137455  14.6855163
   9.3408274  45.7784290  14.8615767   1.7173391  55.2792809  19.4164070
   2.4301363  55.9140273  19.3439972   1.2263420  55.3756675  18.6004072
   4.5686591  45.5831860  18.0622191   3.9158041  45.8307767  17.4074644
   4.9466971  44.7695998  17.7284669   1.5293765  55.6191553  12.1650362
   1.7116159  54.8013209  12.6278114   2.3526751  55.8359245  11.7275252
   4.2107821  52.4579856  24.6394499   4.7547725  53.0709814  24.1449454
   3.6294666  53.0159434  25.1561512   2.4965334  55.5800574  15.7709527
   2.3716473  54.7790313  15.2620472   3.1544425  56.0746767  15.2823497
   4.5600242  53.3809594  17.3989077   3.6130578  53.2614945  17.3267403
   4.9083015  52.4932092  17.4815338   1.5646676  53.1762310  13.5993429
   1.4171638  52.2479017  13.7800999   2.3900169  53.1982401  13.1150504
   5.1680797  53.9990869  14.6858302   6.0927345  53.7933730  14.5482753
   4.9996101  53.7507270  15.5947643   4.9576114  54.5176536  10.0420393
   5.1312991  53.9522959   9.2894246   5.4505005  55.3177431   9.8599883
  10.8115505  47.2812959  11.6610693  11.2546651  46.5320284  11.2629816
   9.9342015  47.2723095  11.2784425   7.5336615  51.9175910  23.9755820
   6.7432159  51.9000048  23.4360319   7.2969970  52.4564203  24.7304857
   7.6534490  48.7668376  21.2888549   7.7032495  48.6018383  22.2304071
   7.5448414  47.8995635  20.8986429   4.9438253  44.7499304  22.6047855
   5.8448115  44.6105769  22.3131853   5.0186227  44.9153759  23.5446033
   9.1552687  51.1865318  21.5330570   8.8637495  51.5495298  22.3694031
   8.5424818  50.4732326  21.3543902  10.3548369  48.7518197  14.0533140
  11.1895261  49.1908001  14.2170701  10.4907498  48.2756851  13.2341386
   7.4039875  46.3097932  20.0010628   7.8793997  46.5025578  19.1929480
   6.4805441  46.3657118  19.7554012   1.9820092  38.3445776  18.9666462
   2.5002036  39.0806803  18.6412951   1.6275225  38.6509769  19.8013221
   6.1041544  43.1863692  18.2338934   7.0558967  43.2861790  18.2551158
   5.9344995  42.3941961  18.7437018   4.1255924  40.2719275  18.4198335
   3.5305856  40.5524288  17.7244823   3.8405621  40.7613176  19.1915076
   8.5829622  46.4069812  17.3481233   8.5505942  45.4685813  17.5340917
   9.1930246  46.4853849  16.6147058   8.7324111  43.1980855  17.3939517
   8.2163159  42.4139312  17.2069445   9.6164059  42.8699572  17.5586036
  14.4006172  47.4685819  16.4887270  15.1309560  47.2071107  17.0494974
  13.7913117  46.7314541  16.5289338  12.4821469  45.6093681  17.0861721
  11.7554633  45.4749646  16.4778213  12.0668756  45.9170510  17.8918439
  10.0999264  41.8305534  14.4395153  10.6943755  41.5901270  13.7288461
  10.1725848  41.1112664  15.0668689  12.4070337  45.1371734  13.2138574
  11.8469895  45.2064924  13.9870136  11.8013840  44.9612719  12.4938070
   2.3333880  50.1039622  26.5023255   3.2025039  50.2780275  26.1409890
   1.8540631  50.9234039  26.3798985  13.9926355  61.8128248  15.9068530
  14.6304765  61.6934996  15.2031870  13.8747198  62.7609092  15.9656482
  10.8016062  61.7655676  15.8430055  10.4634573  61.6496741  14.9550589
  11.6705830  61.3646842  15.8231061   6.6602877  63.6191153  11.8326946
   6.0967742  63.5281090  11.0643233   6.5455272  62.7991057  12.3129438
  11.2835845  62.9190528  21.8016260  11.2724485  62.5243326  20.9296764
  11.4456484  62.1856601  22.3950032   4.2067309  65.1142344  14.6711166
   4.9988601  64.7733169  14.2557465   4.4463959  65.2237320  15.5913319
   8.0043106  65.7027640  20.7495444   7.7132972  66.6073271  20.6342110
   8.6400090  65.7444168  21.4639514   8.9299313  63.0804489  17.3396804
   9.5262885  62.8560511  16.6253767   8.9874284  62.3389234  17.9422252
  13.5467624  59.5379702  12.9821738  14.3330713  59.1199125  12.6312155
  13.8106328  60.4425794  13.1503386  13.7177701  64.9752553   7.6810395
  13.0823534  65.0487179   8.3931299  13.3875108  65.5646151   7.0029474
  18.9476051  59.4754935  13.8854716  19.6801223  58.9054152  14.1192546
  18.1915407  59.0876536  14.3261222  10.5652171  61.8982177  11.0818059
  10.2010378  61.3712798  11.7930980  11.4219287  61.5080646  10.9084544
  16.4701471  53.1876510  18.3449325  16.1384796  54.0571920  18.1210540
  15.8747085  52.8712794  19.0243355  10.2057658  56.9272077   6.0779407
  10.3732060  57.7952313   6.4449878  10.0154827  57.0899358   5.1540697
  12.9632991  65.3889055  17.7445238  12.6633714  66.2914094  17.6361045
  12.6184050  65.1221239  18.5966391   6.4145472  61.8402852  13.7781942
   5.4895969  61.7079066  13.9859634   6.6629885  62.6197072  14.2751885
  16.3630135  57.9071596  15.4242675  15.4547012  57.8387004  15.1301436
  16.3117730  58.3843541  16.2524501  10.1846878  59.3829734   7.0626074
  10.0646504  59.8286785   7.9011555   9.4899467  59.7315052   6.5039612
   3.7754283  61.4836126  14.6125731   3.9046664  61.7370605  15.5265143
   3.0951735  62.0763834  14.2930386  10.4371000  59.3261241  23.3677572
   9.6604334  59.8855161  23.3580437  11.0761563  59.8118024  23.8892442
  18.2291781  56.1088034  17.2020549  17.5866161  56.4020567  16.5560344
  17.7246709  55.9940954  18.0073746  15.8831945  59.8551207   7.8906408
  16.7949801  60.0878594   7.7154106  15.3741592  60.4388251   7.3281487
   8.6917373  62.1346695  22.9295539   9.4332057  62.6731739  22.6530363
   7.9854358  62.7612983  23.0867091  14.1672712  64.2775835  21.5267701
  14.5756068  63.8358246  20.7822333  13.4449974  63.7028463  21.7801894
  10.5203782  59.2148442  18.9001258  11.3664978  59.6387855  19.0435907
  10.4602420  58.5582066  19.5939821  14.4901527  64.8377026  15.2819990
  13.8610389  65.0022740  14.5796058  14.1027189  65.2518635  16.0530954
  18.3690759  65.7731464  12.6364354  17.6841797  66.1530365  12.0861387
  18.4534608  66.3826790  13.3696301  13.6703228  56.8752810  20.5582431
  13.4264160  57.6294871  20.0216707  13.9463158  57.2538158  21.3929679
  15.6241690  63.4191423  19.2359697  15.8358586  64.0623182  18.5594078
  15.5771439  62.5853739  18.7681627  13.2267919  56.0309243  16.1396269
  12.3652398  56.3290497  16.4313007  13.2530354  56.2479642  15.2077302
  10.0429489  64.5751434  12.5470075  10.5067834  64.8539137  11.7574697
   9.7786287  63.6734878  12.3643166   6.9353570  64.1222915  15.4849838
   7.5054927  64.5510184  14.8467323   7.5261682  63.8405500  16.1834024
   8.9798375  60.6974586   9.3559640   9.6822418  61.1495630   9.8233566
   8.6479003  60.0558405   9.9839533   7.4278736  59.2886343  23.7310849
   6.7977397  59.9702624  23.9646246   7.3214824  59.1769424  22.7863988
   2.7223709  58.9558139  14.6576774   1.9322763  59.2115667  14.1816884
   3.2134956  59.7706477  14.7628814  16.7387518  66.2963378  17.4082054
  17.5604962  65.8943565  17.1264736  16.7349921  66.1931612  18.3598170
   4.6738454  59.3202718  11.6160250   3.8769617  59.4321412  12.1343746
   4.4464046  59.6589370  10.7501141  10.5044122  65.8447421  19.5642765
  10.5688554  66.3067829  20.4000937   9.7955046  65.2144786  19.6925075
   1.0061412  59.2088629  17.0891764   1.2569450  60.0935639  17.3549340
   1.5420960  59.0293231  16.3166856  24.8293511  62.6402126  13.7567026
  24.0757220  62.0709525  13.6011030  24.9641053  62.6064791  14.7037661
   6.7059479  53.5907109  26.0936100   6.3126425  53.0373307  26.7683745
   7.5225619  53.9017687  26.4842618   9.6227440  55.0064988  23.6856357
  10.3637153  55.6072141  23.6060819   9.8545363  54.2642626  23.1274400
   4.7668778  60.1921355  21.9634587   4.6522293  59.2906612  22.2641686
   3.9113296  60.4385052  21.6119403  11.8460616  68.1339095  23.5622087
  11.4024470  67.3475474  23.2442992  12.5077829  68.3218246  22.8965978
   6.6047737  69.6634897  18.0882766   7.1555162  69.5351960  17.3159760
   5.7659213  69.9629786  17.7377659  13.9441854  68.4141895  21.5903489
  13.9260329  69.2350776  21.0983758  14.8661774  68.2895970  21.8153630
  10.4014908  65.9286025  22.4326997  10.9343245  65.1674313  22.2026305
   9.8728989  65.6359677  23.1751151  13.5684603  51.0346091  17.9620639
  13.2248872  51.9247732  17.8859749  13.9363566  50.8447748  17.0990224
  13.5334886  61.0254702   6.4693074  13.0181509  61.7959306   6.7081461
  13.2612194  60.3519838   7.0926135  11.1181997  55.8704403  11.5278312
  10.2623593  55.4811253  11.3483951  11.5308949  55.9496363  10.6678098
  12.6481143  53.4050746  15.9269872  12.1445939  53.3680881  15.1137677
  12.9411750  54.3143489  15.9866529   8.8924029  53.4889476  14.9336054
   9.7577026  53.2932284  14.5741943   8.9601538  53.2599827  15.8605410
  18.5069160  63.7787056   8.4046247  17.7298603  63.4398216   7.9601409
  19.1860641  63.7839680   7.7301212  13.3221189  58.8981794   8.2952855
  13.0171325  59.2127943   9.1462998  14.2751631  58.9763214   8.3380188
  11.7667621  65.0572017   9.9445809  11.2388982  64.3224777   9.6319046
  11.2655124  65.8346694   9.6985777  16.7460467  63.2521038  15.0612855
  16.0884141  63.9420299  15.1492984  17.5500866  63.6417470  15.4046842
   6.4986348  55.7191683  12.3052420   7.0730100  55.4966865  11.5725613
   7.0857331  55.7880378  13.0581022  15.5565926  61.6065410  13.1116797
  16.0697807  62.2395402  13.6138507  16.2067149  61.0066606  12.7460157
   8.8009016  52.5932932  11.0327490   8.1473428  52.2781950  10.4084105
   8.7589490  51.9708673  11.7587313  12.0346756  59.0814866  15.3575138
  11.1169318  59.3029813  15.1996826  12.4506900  59.1561176  14.4986845
  12.8181804  60.4806282  10.4877818  13.5653623  60.9927679  10.1784940
  13.0873394  60.1590334  11.3482211  16.3227722  66.5871412  11.2395940
  15.8690049  65.7462322  11.2961130  15.6921689  67.2232810  11.5770720
  15.2660641  57.5163398  12.4696607  14.5283398  57.0040784  12.8006850
  15.5187415  57.0763779  11.6579884  14.7660661  68.4247909  12.1745758
  15.0583635  68.9852966  11.4558123  15.2759282  68.7176470  12.9298917
  15.3672269  50.2939650  13.0638376  15.6731146  49.4337013  12.7764291
  16.0924874  50.8857270  12.8637370   9.6393348  60.5893443  13.5714567
   9.6941958  59.6367279  13.4957044   8.8284550  60.7452882  14.0555866
   7.5785708  59.2070503  11.3304946   6.7653574  59.5064673  11.7370138
   8.0744703  58.8126191  12.0479429   9.7294286  69.2028260  13.2639211
   9.6870465  69.4289106  12.3347743  10.6456985  68.9691634  13.4125012
  13.1759920  59.6712327  20.1619840  13.5309308  59.8983800  21.0214306
  13.8232051  60.0030704  19.5397095  18.9057657  62.7930763  10.8669169
  18.7675556  62.9832359   9.9390358  18.5493876  63.5550146  11.3237220
   7.0699783  56.7788858  16.9466181   7.7099162  56.6377617  16.2489145
   6.2377314  56.4923372  16.5704783  18.9327037  64.8607290  15.8780441
  19.3663543  64.7682579  16.7263495  19.6458617  64.8364791  15.2400457
   7.8460087  66.0791289  13.0601174   8.6400686  65.5841609  12.8583749
   7.1351779  65.5509152  12.6968879  12.6654931  68.4609384  17.4113541
  12.7191954  69.0300320  18.1791257  11.7969713  68.6311269  17.0467578
   4.0728400  56.7489183  11.7239168   4.3335217  57.6634516  11.6148329
   4.8945572  56.2813626  11.8735781   5.5453325  58.1626940  18.8937993
   6.2176378  57.9544302  18.2450641   4.7183111  57.9649026  18.4543225
  19.7942586  64.9030991  18.4113326  19.9878476  65.8076801  18.6572601
  19.6943204  64.4438410  19.2451911  11.4478897  54.7888881  20.9103653
  10.8006812  55.4878831  20.8168130  12.2179912  55.2225025  21.2779902
  14.8557695  65.0537733  23.9854207  14.7043201  64.8248285  23.0684290
  14.8462374  66.0108335  23.9985552  11.6243031  62.6269646  18.9700473
  12.5535091  62.7780806  18.7969440  11.2034061  62.7153667  18.1149120
  10.4231363  66.6520311  16.7399011  10.2842449  66.2839095  17.6124949
   9.6345959  67.1667950  16.5682969  11.9736578  66.0301913  14.1287849
  11.6386411  65.9902683  15.0245498  11.4740524  65.3646629  13.6558259
   5.9480822  61.4369543  19.6540430   5.8100620  60.7049782  20.2551969
   6.8585746  61.3478443  19.3724617   8.5763123  61.1489503  19.1424109
   9.2862741  60.5082695  19.1010728   8.5332431  61.4002398  20.0650290
  16.5649901  68.0856856  22.0630689  16.5062448  67.4016076  21.3961272
  16.9669420  68.8275846  21.6111315   7.2892057  58.1354721  20.9619749
   6.7529414  57.6845459  21.6141345   6.7008765  58.2700629  20.2190213
  16.5667309  66.0496440  20.2944668  15.6794088  65.7122362  20.4171067
  17.1365860  65.3179471  20.5313434   3.0231178  57.2710728  18.0472743
   2.9389367  56.6636398  17.3123153   2.2013884  57.7619747  18.0482240
  10.0968462  70.7097892  17.2605911  10.0238634  71.5152864  17.7725216
   9.6545855  70.9089858  16.4353933  13.1954892  55.7564292  13.4142938
  13.6923591  55.0034254  13.0944009  12.4241873  55.7928608  12.8486148
  21.0484649  61.4604657  15.0561230  21.0374526  62.3429373  14.6855163
  20.1802029  61.1076208  14.8615767  12.5567146  70.6084726  19.4164070
  13.2695118  71.2432191  19.3439972  12.0657174  70.7048592  18.6004072
  14.2784673  64.5135979  10.9881362  13.3440951  64.6337441  10.8186066
  14.4561341  63.6108446  10.7241372   9.7789861  57.8981675  13.1414623
   9.4087648  57.3452715  13.8295529  10.2748953  57.2939808  12.5889623
  17.6657224  60.3553298  11.5231396  18.1317676  61.1881290  11.4491699
  18.1164724  59.8898280  12.2276654   7.6079059  68.3579170  20.2369641
   8.3088519  68.9915653  20.3899035   7.1374174  68.6993901  19.4765280
  15.7333455  66.6997120   8.5217548  16.0093299  66.5853714   9.4311422
  14.8637954  66.3014604   8.4829721  15.6373887  52.7233885  15.5622297
  14.7236966  52.9538112  15.7304504  16.0666988  52.8072329  16.4136330
  15.4080345  60.9123777  18.0622191  14.7551795  61.1599685  17.4074644
  15.7860725  60.0987915  17.7284669  12.3687519  70.9483470  12.1650362
  12.5509914  70.1305126  12.6278114  13.1920505  71.1651163  11.7275252
  12.7029685  69.8751656   9.4265410  13.2317451  69.3644110   8.8135572
  12.9657904  69.5594186  10.2910943  11.4567918  61.6543588  24.5488228
  10.7808555  61.5537718  25.2190604  12.2795552  61.4982802  25.0124226
   3.2046777  67.8915525  17.1700744   3.7900214  67.1459213  17.3028648
   3.0071616  68.2019482  18.0537408  10.1990701  72.9610516  18.7845844
  10.7509009  73.1242137  19.5494930  10.5396895  73.5514954  18.1125869
   5.1755194  55.3085666  19.3867729   5.2396521  56.1700496  18.9745127
   5.1122315  54.6959667  18.6540088   4.6507467  57.3808798  23.0340763
   5.2779506  56.9985875  23.6478288   3.7935386  57.1623000  23.3996456
  15.0501575  67.7871773  24.6394499  15.5941479  68.4001732  24.1449454
  14.4688420  68.3451352  25.1561512  13.3359088  70.9092491  15.7709527
  13.2110228  70.1082231  15.2620472  13.9938179  71.4038685  15.2823497
   4.9567257  57.2641224  14.9486667   4.2353842  57.8777191  14.8094140
   5.7460512  57.7998989  14.8703313  15.3993997  68.7101511  17.3989077
  14.4524332  68.5906863  17.3267403  15.7476770  67.8224009  17.4815338
   7.7593570  54.5995650  21.2227319   8.2827972  54.8457947  21.9853628
   7.5405903  55.4315685  20.8030456  12.4040430  68.5054228  13.5993429
  12.2565392  67.5770935  13.7800999  13.2293924  68.5274318  13.1150504
   6.2702674  57.1572295   9.4573921   6.6098747  57.6858216   8.7352529
   6.7174795  57.4952701  10.2332488  16.0074552  69.3282786  14.6858302
  16.9321099  69.1225648  14.5482753  15.8389855  69.0799187  15.5947643
   8.9646115  55.5409345  18.9076989   8.6242935  54.7417158  19.3097669
   8.2585121  55.8411056  18.3353822   9.6162587  52.6258658  17.3604312
  10.4388656  52.1519136  17.2383202   9.8600650  53.4049142  17.8602998
   8.2570821  55.6546916   7.6567214   8.9779184  56.0328169   7.1530931
   7.6336126  56.3735793   7.7602192  12.4001944  56.3592065   8.5925546
  12.6165559  57.2416703   8.2914374  11.9196011  55.9678279   7.8631188
   7.1401166  59.3177778  15.1696291   6.9945746  59.6318082  16.0620572
   6.6626369  59.9362679  14.6167189   8.9997549  56.3080326  15.2177180
   8.9859117  55.4121420  14.8809478   9.7169977  56.3150990  15.8515466
  10.8523679  56.7417667  17.2630308  10.5941457  57.6634737  17.2614638
  10.3208720  56.3448101  17.9530772  15.7969868  69.8468454  10.0420393
  15.9706746  69.2814876   9.2894246  16.2898759  70.6469349   9.8599883
   1.6146828  61.8583123  18.1083952   1.0700296  62.6342931  18.2404226
   2.4926178  62.2053927  17.9503073   8.4034445  55.1894707  10.4864750
   8.5250356  54.2611353  10.6855638   8.1136487  55.2033393   9.5743066
  11.2725635  52.8749617  13.6231470  11.2947332  52.9388950  12.6683450
  11.6893694  52.0354126  13.8171976  21.6509259  62.6104877  11.6610693
  22.0940405  61.8612202  11.2629816  20.7735770  62.6015013  11.2784425
  16.7845041  69.1635218   7.1417291  17.4795945  69.7841911   7.3604606
  17.1268191  68.3130569   7.4169669   2.4012850  60.9853019  21.0014109
   1.6594586  61.1335654  21.5878739   2.0805594  61.2461285  20.1380858
  18.6836464  66.6134924   8.6704622  19.2087788  66.9522196   7.9453942
  18.5958816  65.6781939   8.4867757  10.3456512  70.5268997  20.7994499
  10.6543639  70.2818144  21.6717198  11.1431994  70.7315636  20.3113369
  10.3677124  72.6806907  13.0299875   9.9282115  72.1883286  13.7232732
  11.1185241  72.1379875  12.7891951   7.8150997  68.2244916  15.1022177
   7.1931006  67.5615621  14.8024405   8.4855863  68.2506048  14.4195825
   7.8875524  56.7026704  24.6954683   7.9363680  57.5788827  24.3132453
   8.4298038  56.1604097  24.1226326  18.3730370  67.2467827  23.9755820
  17.5825913  67.2291966  23.4360319  18.1363724  67.7856121  24.7304857
  18.4928245  64.0960294  21.2888549  18.5426250  63.9310301  22.2304071
  18.3842168  63.2287553  20.8986429  15.7832007  60.0791222  22.6047855
  16.6841870  59.9397687  22.3131853  15.8579982  60.2445677  23.5446033
  10.1174813  57.4558076  21.4501042   9.2478122  57.7491643  21.1783630
  10.3534293  58.0398521  22.1708305  19.9946442  66.5157235  21.5330570
  19.7031250  66.8787216  22.3694031  19.3818573  65.8024243  21.3543902
  21.1942124  64.0810115  14.0533140  22.0289015  64.5199919  14.2170701
  21.3301253  63.6048768  13.2341386  18.2433630  61.6389850  20.0010628
  18.7187751  61.8317496  19.1929480  17.3199195  61.6949036  19.7554012
  12.8213846  53.6737693  18.9666462  13.3395790  54.4098720  18.6412951
  12.4668979  53.9801687  19.8013221  13.0726441  50.0937976  14.4867359
  13.3528194  49.4261165  15.1127785  13.8577047  50.2867072  13.9742022
  16.9435299  58.5155610  18.2338934  17.8952722  58.6153708  18.2551158
  16.7738749  57.7233878  18.7437018  14.9649678  55.6011193  18.4198335
  14.3699610  55.8816206  17.7244823  14.6799375  56.0905094  19.1915076
  19.4223377  61.7361730  17.3481233  19.3899697  60.7977730  17.5340917
  20.0324000  61.8145766  16.6147058  19.5717865  58.5272773  17.3939517
  19.0556914  57.7431230  17.2069445  20.4557814  58.1991490  17.5586036
  17.2328592  52.2713789  13.3535329  17.0353413  51.9628877  14.2378661
  17.8428298  52.9975428  13.4833259  25.2399927  62.7977736  16.4887270
  25.9703315  62.5363025  17.0494974  24.6306872  62.0606458  16.5289338
  23.3215224  60.9385599  17.0861721  22.5948387  60.8041564  16.4778213
  22.9062511  61.2462428  17.8918439  11.1445400  64.6575529  24.8509094
  12.0648410  64.8354128  25.0449141  11.1094983  63.7131574  24.6988794
   4.1407473  62.5676563  17.4931876   4.3593482  63.4993671  17.5119909
   4.5533246  62.2084538  18.2786679  11.0611690  53.0744649   9.4807564
  10.2512419  52.7291734   9.8562810  11.7496107  52.7652192  10.0695176
  12.9902239  52.1522696  11.1031861  13.5433277  52.5718149  11.7621884
  13.2272325  51.2258444  11.1454817   9.0135338  58.1409769  26.8834625
   8.9132065  59.0904126  26.8146716   8.7956880  57.8128008  26.0110695
  16.3681046  54.2623221  10.6110525  15.7879715  54.9208025  10.2288577
  16.1016978  53.4400565  10.1997942  14.8184612  53.6628278  12.8131845
  15.3184390  53.7744813  12.0046164  15.4620220  53.3589331  13.4532654
   8.8766608  61.5706908  25.6999686   8.3933690  62.3707268  25.9063575
   8.9627547  61.5814853  24.7467130   4.8039945  65.4611443  17.7368120
   5.7583199  65.4295385  17.6698052   4.6052469  65.0002066  18.5518346
   5.3939328  64.0312559  20.3038918   6.2132217  64.5256637  20.3273755
   5.6676135  63.1144527  20.2756485  15.1505924  56.4223311   9.6666873
  14.2631779  56.7072962   9.4487068  15.5659913  56.2617074   8.8194150
  18.5020460  56.4469832  13.3821212  19.2780850  56.9366284  13.6545829
  17.7768594  56.8727886  13.8393082  20.9393019  57.1597451  14.4395153
  21.5337509  56.9193187  13.7288461  21.0119602  56.4404582  15.0668689
  15.1246948  61.9377847   9.8817163  15.0682149  62.3946398   9.0424796
  15.6775290  61.1768532   9.7040006  18.9351753  57.7267579  10.7067283
  18.6788688  57.3264215  11.5375490  18.3104621  58.4411373  10.5817422
  23.2464091  60.4663652  13.2138574  22.6863649  60.5356841  13.9870136
  22.6407595  60.2904637  12.4938070  16.2035835  66.6250515   5.8113353
  17.0381439  66.1931713   5.6290828  16.0420178  66.4532529   6.7390248
  15.8581727  63.1282628   7.1769692  15.8030531  62.9626900   6.2358137
  15.2327782  63.8358661   7.3331882  13.1727634  65.4331540  26.5023255
  14.0418794  65.6072192  26.1409890  12.6934385  66.2525957  26.3798985
   7.3413814  72.5528641  18.1812689   8.2441061  72.5852251  18.4979184
   7.1151184  71.6229092  18.1959025   9.0967416  71.3059628  14.8422768
   8.1463047  71.3061489  14.7287140   9.3999902  70.5592362  14.3258802
  12.9829972  49.2233514  11.0100948  12.2162368  48.6692001  11.1557630
  13.3940677  49.2955383  11.8715099   4.9871733  55.5118310  25.1006129
   5.8503194  55.1555115  25.3109453   4.4137143  55.1732204  25.7881533
  24.8320110  77.1420166  15.9068530  25.4698520  77.0226913  15.2031870
  24.7140953  78.0901010  15.9656482  21.6409816  77.0947594  15.8430055
  21.3028328  76.9788659  14.9550589  22.5099584  76.6938759  15.8231061
  17.4996632  78.9483071  11.8326946  16.9361497  78.8573007  11.0643233
  17.3849027  78.1282975  12.3129438  22.1229599  78.2482446  21.8016260
  22.1118240  77.8535244  20.9296764  22.2850239  77.5148518  22.3950032
  15.0461064  80.4434262  14.6711166  15.8382356  80.1025087  14.2557465
  15.2857714  80.5529237  15.5913319  18.8436860  81.0319558  20.7495444
  18.5526726  81.9365189  20.6342110  19.4793845  81.0736085  21.4639514
  19.7693067  78.4096406  17.3396804  20.3656639  78.1852429  16.6253767
  19.8268039  77.6681152  17.9422252  24.3861378  74.8671620  12.9821738
  25.1724467  74.4491043  12.6312155  24.6500083  75.7717712  13.1503386
  24.5571456  80.3044470   7.6810395  23.9217289  80.3779097   8.3931299
  24.2268862  80.8938069   7.0029474  29.7869805  74.8046853  13.8854716
  30.5194977  74.2346070  14.1192546  29.0309161  74.4168454  14.3261222
  21.4045925  77.2274095  11.0818059  21.0404132  76.7004716  11.7930980
  22.2613041  76.8372564  10.9084544  27.3095226  68.5168427  18.3449325
  26.9778551  69.3863838  18.1210540  26.7140839  68.2004711  19.0243355
  21.0451412  72.2563994   6.0779407  21.2125814  73.1244231   6.4449878
  20.8548581  72.4191276   5.1540697  23.8026745  80.7180973  17.7445238
  23.5027468  81.6206012  17.6361045  23.4577805  80.4513156  18.5966391
  17.2539227  77.1694770  13.7781942  16.3289723  77.0370984  13.9859634
  17.5023640  77.9488989  14.2751885  27.2023889  73.2363513  15.4242675
  26.2940766  73.1678922  15.1301436  27.1511485  73.7135458  16.2524501
  21.0240633  74.7121652   7.0626074  20.9040258  75.1578703   7.9011555
  20.3293221  75.0606969   6.5039612  14.6148038  76.8128044  14.6125731
  14.7440419  77.0662522  15.5265143  13.9345489  77.4055752  14.2930386
  21.2764755  74.6553159  23.3677572  20.4998089  75.2147079  23.3580437
  21.9155318  75.1409942  23.8892442  29.0685535  71.4379952  17.2020549
  28.4259916  71.7312485  16.5560344  28.5640464  71.3232872  18.0073746
  26.7225699  75.1843125   7.8906408  27.6343555  75.4170512   7.7154106
  26.2135346  75.7680169   7.3281487  19.5311127  77.4638612  22.9295539
  20.2725811  78.0023656  22.6530363  18.8248113  78.0904901  23.0867091
  25.0066467  79.6067753  21.5267701  25.4149823  79.1650163  20.7822333
  24.2843728  79.0320380  21.7801894  21.3597537  74.5440360  18.9001258
  22.2058732  74.9679773  19.0435907  21.2996174  73.8873984  19.5939821
  25.3295281  80.1668943  15.2819990  24.7004144  80.3314658  14.5796058
  24.9420943  80.5810553  16.0530954  29.2084513  81.1023381  12.6364354
  28.5235551  81.4822283  12.0861387  29.2928363  81.7118708  13.3696301
  24.5096982  72.2044728  20.5582431  24.2657914  72.9586788  20.0216707
  24.7856913  72.5830076  21.3929679  26.4635445  78.7483340  19.2359697
  26.6752340  79.3915100  18.5594078  26.4165193  77.9145657  18.7681627
  24.0661674  71.3601161  16.1396269  23.2046153  71.6582414  16.4313007
  24.0924109  71.5771560  15.2077302  20.8823243  79.9043351  12.5470075
  21.3461589  80.1831054  11.7574697  20.6180041  79.0026796  12.3643166
  17.7747324  79.4514833  15.4849838  18.3448681  79.8802101  14.8467323
  18.3655436  79.1697418  16.1834024  19.8192129  76.0266504   9.3559640
  20.5216173  76.4787548   9.8233566  19.4872758  75.3850323   9.9839533
  18.2672491  74.6178260  23.7310849  17.6371151  75.2994541  23.9646246
  18.1608579  74.5061342  22.7863988  13.5617463  74.2850057  14.6576774
  12.7716517  74.5407585  14.1816884  14.0528711  75.0998394  14.7628814
  27.5781273  81.6255296  17.4082054  28.3998717  81.2235483  17.1264736
  27.5743676  81.5223530  18.3598170  15.5132209  74.6494636  11.6160250
  14.7163372  74.7613330  12.1343746  15.2857801  74.9881288  10.7501141
  21.3437876  81.1739339  19.5642765  21.4082309  81.6359746  20.4000937
  20.6348800  80.5436704  19.6925075  11.8455166  74.5380547  17.0891764
  12.0963205  75.4227557  17.3549340  12.3814715  74.3585148  16.3166856
  35.6687266  77.9694044  13.7567026  34.9150974  77.4001442  13.6011030
  35.8034807  77.9356709  14.7037661  17.5453234  68.9199026  26.0936100
  17.1520179  68.3665225  26.7683745  18.3619374  69.2309605  26.4842618
  20.4621195  70.3356905  23.6856357  21.2030908  70.9364059  23.6060819
  20.6939117  69.5934543  23.1274400  15.6062533  75.5213273  21.9634587
  15.4916048  74.6198530  22.2641686  14.7507050  75.7676969  21.6119403
  22.6854370  83.4631013  23.5622087  22.2418225  82.6767392  23.2442992
  23.3471584  83.6510163  22.8965978  17.4441492  84.9926815  18.0882766
  17.9948917  84.8643878  17.3159760  16.6052967  85.2921704  17.7377659
  24.7835608  83.7433813  21.5903489  24.7654084  84.5642694  21.0983758
  25.7055528  83.6187888  21.8153630  21.2408663  81.2577942  22.4326997
  21.7736999  80.4966231  22.2026305  20.7122744  80.9651594  23.1751151
  24.4078358  66.3638008  17.9620639  24.0642627  67.2539650  17.8859749
  24.7757320  66.1739666  17.0990224  24.3728640  76.3546619   6.4693074
  23.8575264  77.1251224   6.7081461  24.1005949  75.6811756   7.0926135
  21.9575751  71.1996320  11.5278312  21.1017348  70.8103171  11.3483951
  22.3702703  71.2788281  10.6678098  23.4874898  68.7342664  15.9269872
  22.9839694  68.6972799  15.1137677  23.7805505  69.6435406  15.9866529
  19.7317784  68.8181393  14.9336054  20.5970781  68.6224202  14.5741943
  19.7995293  68.5891745  15.8605410  29.3462914  79.1078974   8.4046247
  28.5692357  78.7690134   7.9601409  30.0254395  79.1131597   7.7301212
  24.1614943  74.2273712   8.2952855  23.8565079  74.5419861   9.1462998
  25.1145386  74.3055131   8.3380188  22.6061375  80.3863935   9.9445809
  22.0782737  79.6516694   9.6319046  22.1048878  81.1638611   9.6985777
  27.5854221  78.5812955  15.0612855  26.9277896  79.2712217  15.1492984
  28.3894621  78.9709387  15.4046842  17.3380103  71.0483601  12.3052420
  17.9123855  70.8258783  11.5725613  17.9251085  71.1172296  13.0581022
  26.3959680  76.9357328  13.1116797  26.9091562  77.5687320  13.6138507
  27.0460904  76.3358524  12.7460157  19.6402771  67.9224850  11.0327490
  18.9867183  67.6073867  10.4084105  19.5983245  67.3000591  11.7587313
  22.8740511  74.4106784  15.3575138  21.9563072  74.6321731  15.1996826
  23.2900655  74.4853094  14.4986845  23.6575559  75.8098199  10.4877818
  24.4047378  76.3219596  10.1784940  23.9267148  75.4882252  11.3482211
  27.1621476  81.9163330  11.2395940  26.7083803  81.0754239  11.2961130
  26.5315443  82.5524728  11.5770720  26.1054396  72.8455316  12.4696607
  25.3677153  72.3332702  12.8006850  26.3581169  72.4055697  11.6579884
  25.6054416  83.7539826  12.1745758  25.8977390  84.3144883  11.4558123
  26.1153036  84.0468387  12.9298917  26.2066023  65.6231568  13.0638376
  26.5124900  64.7628931  12.7764291  26.9318628  66.2149188  12.8637370
  20.4787103  75.9185361  13.5714567  20.5335713  74.9659197  13.4957044
  19.6678305  76.0744800  14.0555866  18.4179463  74.5362420  11.3304946
  17.6047328  74.8356591  11.7370138  18.9138457  74.1418109  12.0479429
  20.5688041  84.5320177  13.2639211  20.5264220  84.7581024  12.3347743
  21.4850740  84.2983552  13.4125012  24.0153675  75.0004245  20.1619840
  24.3703062  75.2275718  21.0214306  24.6625806  75.3322622  19.5397095
  29.7451411  78.1222681  10.8669169  29.6069310  78.3124277   9.9390358
  29.3887630  78.8842064  11.3237220  17.9093538  72.1080776  16.9466181
  18.5492917  71.9669535  16.2489145  17.0771068  71.8215289  16.5704783
  29.7720791  80.1899208  15.8780441  30.2057298  80.0974497  16.7263495
  30.4852372  80.1656708  15.2400457  18.6853842  81.4083206  13.0601174
  19.4794440  80.9133526  12.8583749  17.9745534  80.8801069  12.6968879
  23.5048686  83.7901302  17.4113541  23.5585708  84.3592238  18.1791257
  22.6363467  83.9603187  17.0467578  14.9122154  72.0781101  11.7239168
  15.1728971  72.9926434  11.6148329  15.7339326  71.6105543  11.8735781
  16.3847079  73.4918858  18.8937993  17.0570133  73.2836220  18.2450641
  15.5576866  73.2940944  18.4543225  30.6336341  80.2322908  18.4113326
  30.8272231  81.1368719  18.6572601  30.5336959  79.7730327  19.2451911
  22.2872651  70.1180799  20.9103653  21.6400566  70.8170749  20.8168130
  23.0573667  70.5516943  21.2779902  25.6951449  80.3829651  23.9854207
  25.5436956  80.1540203  23.0684290  25.6856129  81.3400253  23.9985552
  22.4636786  77.9561564  18.9700473  23.3928846  78.1072723  18.7969440
  22.0427816  78.0445585  18.1149120  21.2625118  81.9812228  16.7399011
  21.1236203  81.6131013  17.6124949  20.4739714  82.4959868  16.5682969
  22.8130333  81.3593831  14.1287849  22.4780165  81.3194601  15.0245498
  22.3134278  80.6938547  13.6558259  16.7874577  76.7661461  19.6540430
  16.6494375  76.0341700  20.2551969  17.6979500  76.6770361  19.3724617
  19.4156877  76.4781420  19.1424109  20.1256496  75.8374613  19.1010728
  19.3726185  76.7294315  20.0650290  27.4043656  83.4148774  22.0630689
  27.3456202  82.7307994  21.3961272  27.8063174  84.1567764  21.6111315
  18.1285811  73.4646638  20.9619749  17.5923168  73.0137377  21.6141345
  17.5402520  73.5992547  20.2190213  27.4061063  81.3788358  20.2944668
  26.5187842  81.0414279  20.4171067  27.9759614  80.6471389  20.5313434
  13.8624932  72.6002646  18.0472743  13.7783121  71.9928315  17.3123153
  13.0407639  73.0911664  18.0482240  20.9362217  86.0389810  17.2605911
  20.8632388  86.8444781  17.7725216  20.4939610  86.2381776  16.4353933
  24.0348646  71.0856209  13.4142938  24.5317346  70.3326172  13.0944009
  23.2635628  71.1220526  12.8486148  31.8878404  76.7896575  15.0561230
  31.8768280  77.6721290  14.6855163  31.0195783  76.4368126  14.8615767
  23.3960900  85.9376644  19.4164070  24.1088872  86.5724109  19.3439972
  22.9050929  86.0340510  18.6004072  25.1178427  79.8427897  10.9881362
  24.1834706  79.9629359  10.8186066  25.2955096  78.9400363  10.7241372
  20.6183615  73.2273592  13.1414623  20.2481403  72.6744633  13.8295529
  21.1142708  72.6231726  12.5889623  28.5050978  75.6845216  11.5231396
  28.9711431  76.5173208  11.4491699  28.9558479  75.2190198  12.2276654
  18.4472814  83.6871087  20.2369641  19.1482273  84.3207570  20.3899035
  17.9767929  84.0285819  19.4765280  26.5727210  82.0289037   8.5217548
  26.8487053  81.9145632   9.4311422  25.7031708  81.6306522   8.4829721
  26.4767641  68.0525803  15.5622297  25.5630721  68.2830030  15.7304504
  26.9060743  68.1364247  16.4136330  26.2474100  76.2415695  18.0622191
  25.5945550  76.4891602  17.4074644  26.6254480  75.4279833  17.7284669
  23.2081274  86.2775388  12.1650362  23.3903668  85.4597044  12.6278114
  24.0314260  86.4943080  11.7275252  23.5423439  85.2043573   9.4265410
  24.0711205  84.6936028   8.8135572  23.8051659  84.8886103  10.2910943
  22.2961673  76.9835506  24.5488228  21.6202310  76.8829635  25.2190604
  23.1189307  76.8274720  25.0124226  14.0440532  83.2207442  17.1700744
  14.6293969  82.4751130  17.3028648  13.8465370  83.5311399  18.0537408
  21.0384456  88.2902433  18.7845844  21.5902764  88.4534055  19.5494930
  21.3790649  88.8806871  18.1125869  16.0148949  70.6377583  19.3867729
  16.0790275  71.4992414  18.9745127  15.9516069  70.0251585  18.6540088
  15.4901221  72.7100716  23.0340763  16.1173260  72.3277793  23.6478288
  14.6329140  72.4914918  23.3996456  25.8895330  83.1163691  24.6394499
  26.4335234  83.7293649  24.1449454  25.3082175  83.6743269  25.1561512
  24.1752843  86.2384409  15.7709527  24.0503982  85.4374149  15.2620472
  24.8331934  86.7330602  15.2823497  15.7961011  72.5933141  14.9486667
  15.0747597  73.2069109  14.8094140  16.5854267  73.1290906  14.8703313
  26.2387751  84.0393429  17.3989077  25.2918087  83.9198780  17.3267403
  26.5870524  83.1515927  17.4815338  18.5987325  69.9287568  21.2227319
  19.1221726  70.1749864  21.9853628  18.3799658  70.7607603  20.8030456
  23.2434185  83.8346145  13.5993429  23.0959147  82.9062853  13.7800999
  24.0687678  83.8566236  13.1150504  17.1096429  72.4864212   9.4573921
  17.4492501  73.0150134   8.7352529  17.5568549  72.8244618  10.2332488
  26.8468306  84.6574704  14.6858302  27.7714854  84.4517565  14.5482753
  26.6783610  84.4091105  15.5947643  19.8039870  70.8701263  18.9076989
  19.4636690  70.0709076  19.3097669  19.0978876  71.1702974  18.3353822
  20.4556341  67.9550575  17.3604312  21.2782411  67.4811054  17.2383202
  20.6994405  68.7341059  17.8602998  19.0964576  70.9838834   7.6567214
  19.8172938  71.3620087   7.1530931  18.4729880  71.7027711   7.7602192
  23.2395699  71.6883983   8.5925546  23.4559313  72.5708621   8.2914374
  22.7589766  71.2970196   7.8631188  17.9794920  74.6469696  15.1696291
  17.8339501  74.9609999  16.0620572  17.5020124  75.2654596  14.6167189
  19.8391303  71.6372244  15.2177180  19.8252872  70.7413337  14.8809478
  20.5563731  71.6442908  15.8515466  21.6917434  72.0709584  17.2630308
  21.4335212  72.9926655  17.2614638  21.1602474  71.6740019  17.9530772
  26.6363623  85.1760371  10.0420393  26.8100500  84.6106794   9.2894246
  27.1292514  85.9761266   9.8599883  12.4540582  77.1875040  18.1083952
  11.9094050  77.9634848  18.2404226  13.3319932  77.5345845  17.9503073
  19.2428199  70.5186624  10.4864750  19.3644110  69.5903271  10.6855638
  18.9530241  70.5325310   9.5743066  22.1119389  68.2041535  13.6231470
  22.1341086  68.2680868  12.6683450  22.5287448  67.3646043  13.8171976
  32.4903014  77.9396794  11.6610693  32.9334160  77.1904120  11.2629816
  31.6129524  77.9306931  11.2784425  27.6238795  84.4927136   7.1417291
  28.3189700  85.1133829   7.3604606  27.9661945  83.6422487   7.4169669
  13.2406604  76.3144937  21.0014109  12.4988340  76.4627572  21.5878739
  12.9199349  76.5753202  20.1380858  29.5230218  81.9426841   8.6704622
  30.0481542  82.2814114   7.9453942  29.4352571  81.0073857   8.4867757
  21.1850267  85.8560915  20.7994499  21.4937393  85.6110062  21.6717198
  21.9825749  86.0607553  20.3113369  21.2070879  88.0098825  13.0299875
  20.7675869  87.5175203  13.7232732  21.9578996  87.4671792  12.7891951
  18.6544751  83.5536834  15.1022177  18.0324760  82.8907539  14.8024405
  19.3249618  83.5797966  14.4195825  18.7269279  72.0318622  24.6954683
  18.7757434  72.9080745  24.3132453  19.2691793  71.4896015  24.1226326
  29.2124124  82.5759745  23.9755820  28.4219668  82.5583884  23.4360319
  28.9757479  83.1148039  24.7304857  29.3321999  79.4252211  21.2888549
  29.3820004  79.2602219  22.2304071  29.2235923  78.5579470  20.8986429
  26.6225762  75.4083139  22.6047855  27.5235624  75.2689604  22.3131853
  26.6973736  75.5737594  23.5446033  20.9568567  72.7849994  21.4501042
  20.0871876  73.0783560  21.1783630  21.1928047  73.3690439  22.1708305
  30.8340196  81.8449153  21.5330570  30.5425004  82.2079133  22.3694031
  30.2212327  81.1316161  21.3543902  32.0335878  79.4102033  14.0533140
  32.8682770  79.8491837  14.2170701  32.1695007  78.9340686  13.2341386
  29.0827384  76.9681768  20.0010628  29.5581506  77.1609414  19.1929480
  28.1592950  77.0240953  19.7554012  23.6607601  69.0029611  18.9666462
  24.1789545  69.7390638  18.6412951  23.3062734  69.3093604  19.8013221
  23.9120195  65.4229894  14.4867359  24.1921949  64.7553083  15.1127785
  24.6970802  65.6158989  13.9742022  27.7829053  73.8447528  18.2338934
  28.7346476  73.9445625  18.2551158  27.6132504  73.0525796  18.7437018
  25.8043433  70.9303111  18.4198335  25.2093365  71.2108124  17.7244823
  25.5193130  71.4197012  19.1915076  30.2617131  77.0653647  17.3481233
  30.2293451  76.1269648  17.5340917  30.8717755  77.1437684  16.6147058
  30.4111620  73.8564691  17.3939517  29.8950668  73.0723147  17.2069445
  31.2951568  73.5283407  17.5586036  28.0722347  67.6005706  13.3535329
  27.8747168  67.2920794  14.2378661  28.6822052  68.3267345  13.4833259
  36.0793681  78.1269654  16.4887270  36.8097069  77.8654942  17.0494974
  35.4700626  77.3898376  16.5289338  34.1608978  76.2677517  17.0861721
  33.4342142  76.1333482  16.4778213  33.7456265  76.5754345  17.8918439
  21.9839155  79.9867446  24.8509094  22.9042164  80.1646045  25.0449141
  21.9488738  79.0423492  24.6988794  11.2021320  75.1806040  13.7762369
  10.8824104  74.3271348  13.4836743  10.6554748  75.3954618  14.5320336
  14.9801227  77.8968481  17.4931876  15.1987237  78.8285589  17.5119909
  15.3927001  77.5376455  18.2786679  21.9005445  68.4036566   9.4807564
  21.0906173  68.0583651   9.8562810  22.5889862  68.0944110  10.0695176
  23.8295993  67.4814613  11.1031861  24.3827032  67.9010067  11.7621884
  24.0666080  66.5550361  11.1454817  19.8529092  73.4701687  26.8834625
  19.7525819  74.4196044  26.8146716  19.6350634  73.1419926  26.0110695
  27.2074800  69.5915138  10.6110525  26.6273469  70.2499942  10.2288577
  26.9410733  68.7692483  10.1997942  25.6578367  68.9920196  12.8131845
  26.1578145  69.1036731  12.0046164  26.3013975  68.6881249  13.4532654
  19.7160362  76.8998826  25.6999686  19.2327444  77.6999186  25.9063575
  19.8021301  76.9106771  24.7467130  15.6433700  80.7903360  17.7368120
  16.5976953  80.7587303  17.6698052  15.4446224  80.3293984  18.5518346
  16.2333082  79.3604476  20.3038918  17.0525971  79.8548555  20.3273755
  16.5069890  78.4436445  20.2756485  25.9899678  71.7515229   9.6666873
  25.1025533  72.0364879   9.4487068  26.4053667  71.5908992   8.8194150
  29.3414214  71.7761750  13.3821212  30.1174605  72.2658202  13.6545829
  28.6162349  72.2019804  13.8393082  31.7786773  72.4889369  14.4395153
  32.3731264  72.2485105  13.7288461  31.8513357  71.7696499  15.0668689
  25.9640702  77.2669765   9.8817163  25.9075903  77.7238316   9.0424796
  26.5169044  76.5060449   9.7040006  29.7745508  73.0559497  10.7067283
  29.5182442  72.6556132  11.5375490  29.1498376  73.7703290  10.5817422
  34.0857846  75.7955570  13.2138574  33.5257404  75.8648759  13.9870136
  33.4801349  75.6196554  12.4938070  27.0429589  81.9542433   5.8113353
  27.8775193  81.5223631   5.6290828  26.8813932  81.7824446   6.7390248
  26.6975481  78.4574546   7.1769692  26.6424285  78.2918817   6.2358137
  26.0721537  79.1650579   7.3331882  11.4867996  73.6942610  21.0031115
  12.1326860  73.1841564  21.4918340  11.2785147  74.4311292  21.5774540
  24.0121389  80.7623458  26.5023255  24.8812548  80.9364110  26.1409890
  23.5328140  81.5817875  26.3798985  20.0071607  67.9582655   6.7555011
  19.9950277  68.9024495   6.9123282  20.8995029  67.7752800   6.4614472
  18.1807569  87.8820559  18.1812689  19.0834815  87.9144169  18.4979184
  17.9544939  86.9521010  18.1959025  19.9361171  86.6351545  14.8422768
  18.9856802  86.6353407  14.7287140  20.2393657  85.8884280  14.3258802
  23.8223726  64.5525432  11.0100948  23.0556122  63.9983918  11.1557630
  24.2334431  64.6247300  11.8715099  15.8265487  70.8410227  25.1006129
  16.6896949  70.4847032  25.3109453  15.2530898  70.5024122  25.7881533
  35.6713864  92.4712084  15.9068530  36.3092274  92.3518831  15.2031870
  35.5534707  93.4192928  15.9656482  32.4803571  92.4239512  15.8430055
  32.1422082  92.3080576  14.9550589  33.3493339  92.0230677  15.8231061
  28.3390386  94.2774988  11.8326946  27.7755251  94.1864925  11.0643233
  28.2242781  93.4574893  12.3129438  32.9623354  93.5774364  21.8016260
  32.9511994  93.1827162  20.9296764  33.1243993  92.8440436  22.3950032
  25.8854818  95.7726180  14.6711166  26.6776110  95.4317004  14.2557465
  26.1251468  95.8821155  15.5913319  29.6830615  96.3611475  20.7495444
  29.3920481  97.2657106  20.6342110  30.3187599  96.4028003  21.4639514
  30.6086822  93.7388324  17.3396804  31.2050394  93.5144346  16.6253767
  30.6661793  92.9973069  17.9422252  35.2255133  90.1963538  12.9821738
  36.0118222  89.7782961  12.6312155  35.4893837  91.1009630  13.1503386
  35.3965210  95.6336388   7.6810395  34.7611043  95.7071014   8.3931299
  35.0662616  96.2229987   7.0029474  40.6263560  90.1338771  13.8854716
  41.3588732  89.5637988  14.1192546  39.8702916  89.7460371  14.3261222
  32.2439680  92.5566012  11.0818059  31.8797887  92.0296633  11.7930980
  33.1006795  92.1664481  10.9084544  38.1488980  83.8460345  18.3449325
  37.8172305  84.7155756  18.1210540  37.5534594  83.5296629  19.0243355
  31.8845167  87.5855912   6.0779407  32.0519569  88.4536148   6.4449878
  31.6942336  87.7483194   5.1540697  34.6420500  96.0472891  17.7445238
  34.3421223  96.9497930  17.6361045  34.2971559  95.7805074  18.5966391
  28.0932981  92.4986688  13.7781942  27.1683478  92.3662902  13.9859634
  28.3417394  93.2780907  14.2751885  38.0417644  88.5655431  15.4242675
  37.1334521  88.4970839  15.1301436  37.9905239  89.0427376  16.2524501
  31.8634387  90.0413569   7.0626074  31.7434013  90.4870620   7.9011555
  31.1686976  90.3898887   6.5039612  25.4541792  92.1419961  14.6125731
  25.5834173  92.3954440  15.5265143  24.7739244  92.7347669  14.2930386
  32.1158509  89.9845077  23.3677572  31.3391843  90.5438997  23.3580437
  32.7549072  90.4701860  23.8892442  39.9079290  86.7671869  17.2020549
  39.2653670  87.0604403  16.5560344  39.4034218  86.6524790  18.0073746
  37.5619454  90.5135043   7.8906408  38.4737310  90.7462429   7.7154106
  37.0529101  91.0972087   7.3281487  30.3704882  92.7930530  22.9295539
  31.1119566  93.3315574  22.6530363  29.6641867  93.4196819  23.0867091
  35.8460221  94.9359670  21.5267701  36.2543577  94.4942081  20.7822333
  35.1237483  94.3612298  21.7801894  32.1991291  89.8732277  18.9001258
  33.0452487  90.2971691  19.0435907  32.1389929  89.2165902  19.5939821
  36.1689036  95.4960861  15.2819990  35.5397898  95.6606575  14.5796058
  35.7814698  95.9102471  16.0530954  40.0478268  96.4315299  12.6364354
  39.3629306  96.8114200  12.0861387  40.1322117  97.0410626  13.3696301
  35.3490737  87.5336646  20.5582431  35.1051669  88.2878706  20.0216707
  35.6250667  87.9121993  21.3929679  37.3029199  94.0775258  19.2359697
  37.5146095  94.7207018  18.5594078  37.2558948  93.2437574  18.7681627
  34.9055428  86.6893079  16.1396269  34.0439907  86.9874332  16.4313007
  34.9317863  86.9063477  15.2077302  31.7216998  95.2335269  12.5470075
  32.1855343  95.5122972  11.7574697  31.4573796  94.3318714  12.3643166
  28.6141079  94.7806751  15.4849838  29.1842436  95.2094019  14.8467323
  29.2049191  94.4989335  16.1834024  30.6585884  91.3558422   9.3559640
  31.3609927  91.8079465   9.8233566  30.3266512  90.7142240   9.9839533
  29.1066245  89.9470178  23.7310849  28.4764906  90.6286459  23.9646246
  29.0002333  89.8353260  22.7863988  24.4011218  89.6141974  14.6576774
  23.6110272  89.8699503  14.1816884  24.8922465  90.4290312  14.7628814
  38.4175027  96.9547213  17.4082054  39.2392471  96.5527401  17.1264736
  38.4137430  96.8515448  18.3598170  26.3525963  89.9786553  11.6160250
  25.5557126  90.0905248  12.1343746  26.1251555  90.3173206  10.7501141
  32.1831631  96.5031257  19.5642765  32.2476063  96.9651664  20.4000937
  31.4742555  95.8728622  19.6925075  22.6848921  89.8672465  17.0891764
  22.9356959  90.7519475  17.3549340  23.2208469  89.6877066  16.3166856
  46.5081020  93.2985962  13.7567026  45.7544729  92.7293360  13.6011030
  46.6428562  93.2648626  14.7037661  28.3846988  84.2490944  26.0936100
  27.9913934  83.6957143  26.7683745  29.2013128  84.5601522  26.4842618
  31.3014949  85.6648823  23.6856357  32.0424662  86.2655976  23.6060819
  31.5332872  84.9226461  23.1274400  26.4456287  90.8505190  21.9634587
  26.3309802  89.9490448  22.2641686  25.5900805  91.0968887  21.6119403
  33.5248125  98.7922931  23.5622087  33.0811979  98.0059309  23.2442992
  34.1865338  98.9802081  22.8965978  28.2835246 100.3218732  18.0882766
  28.8342671 100.1935796  17.3159760  27.4446722 100.6213621  17.7377659
  35.6229363  99.0725731  21.5903489  35.6047838  99.8934612  21.0983758
  36.5449283  98.9479806  21.8153630  32.0802417  96.5869860  22.4326997
  32.6130754  95.8258148  22.2026305  31.5516498  96.2943512  23.1751151
  35.2472112  81.6929926  17.9620639  34.9036381  82.5831568  17.8859749
  35.6151075  81.5031584  17.0990224  35.2122395  91.6838537   6.4693074
  34.6969018  92.4543142   6.7081461  34.9399703  91.0103673   7.0926135
  32.7969506  86.5288238  11.5278312  31.9411102  86.1395088  11.3483951
  33.2096458  86.6080199  10.6678098  34.3268652  84.0634581  15.9269872
  33.8233448  84.0264716  15.1137677  34.6199259  84.9727324  15.9866529
  30.5711538  84.1473311  14.9336054  31.4364535  83.9516120  14.5741943
  30.6389047  83.9183663  15.8605410  40.1856669  94.4370892   8.4046247
  39.4086112  94.0982051   7.9601409  40.8648150  94.4423515   7.7301212
  35.0008698  89.5565629   8.2952855  34.6958833  89.8711778   9.1462998
  35.9539140  89.6347049   8.3380188  33.4455130  95.7155853   9.9445809
  32.9176491  94.9808612   9.6319046  32.9442632  96.4930529   9.6985777
  38.4247976  93.9104873  15.0612855  37.7671650  94.6004134  15.1492984
  39.2288375  94.3001305  15.4046842  28.1773857  86.3775519  12.3052420
  28.7517609  86.1550700  11.5725613  28.7644840  86.4464213  13.0581022
  37.2353435  92.2649246  13.1116797  37.7485316  92.8979238  13.6138507
  37.8854658  91.6650441  12.7460157  30.4796525  83.2516768  11.0327490
  29.8260937  82.9365785  10.4084105  30.4376999  82.6292508  11.7587313
  33.7134265  89.7398701  15.3575138  32.7956827  89.9613648  15.1996826
  34.1294409  89.8145012  14.4986845  34.4969313  91.1390117  10.4877818
  35.2441132  91.6511514  10.1784940  34.7660903  90.8174170  11.3482211
  38.0015231  97.2455247  11.2395940  37.5477558  96.4046157  11.2961130
  37.3709198  97.8816646  11.5770720  36.9448150  88.1747233  12.4696607
  36.2070907  87.6624619  12.8006850  37.1974924  87.7347615  11.6579884
  36.4448170  99.0831744  12.1745758  36.7371144  99.6436801  11.4558123
  36.9546791  99.3760305  12.9298917  37.0459778  80.9523485  13.0638376
  37.3518654  80.0920849  12.7764291  37.7712382  81.5441105  12.8637370
  31.3180857  91.2477278  13.5714567  31.3729467  90.2951115  13.4957044
  30.5072059  91.4036717  14.0555866  29.2573217  89.8654338  11.3304946
  28.4441083  90.1648509  11.7370138  29.7532212  89.4710027  12.0479429
  31.4081795  99.8612095  13.2639211  31.3657974 100.0872941  12.3347743
  32.3244494  99.6275470  13.4125012  34.8547429  90.3296163  20.1619840
  35.2096817  90.5567636  21.0214306  35.5019560  90.6614539  19.5397095
  40.5845166  93.4514598  10.8669169  40.4463065  93.6416194   9.9390358
  40.2281385  94.2133981  11.3237220  28.7487292  87.4372694  16.9466181
  29.3886671  87.2961453  16.2489145  27.9164823  87.1507207  16.5704783
  40.6114546  95.5191125  15.8780441  41.0451052  95.4266414  16.7263495
  41.3246126  95.4948626  15.2400457  29.5247596  96.7375124  13.0601174
  30.3188194  96.2425444  12.8583749  28.8139288  96.2092987  12.6968879
  34.3442440  99.1193220  17.4113541  34.3979463  99.6884156  18.1791257
  33.4757222  99.2895105  17.0467578  25.7515909  87.4073019  11.7239168
  26.0122726  88.3218352  11.6148329  26.5733081  86.9397461  11.8735781
  27.2240834  88.8210776  18.8937993  27.8963887  88.6128138  18.2450641
  26.3970620  88.6232862  18.4543225  41.4730095  95.5614826  18.4113326
  41.6665985  96.4660637  18.6572601  41.3730713  95.1022245  19.2451911
  33.1266406  85.4472717  20.9103653  32.4794321  86.1462666  20.8168130
  33.8967421  85.8808861  21.2779902  36.5345204  95.7121569  23.9854207
  36.3830710  95.4832120  23.0684290  36.5249883  96.6692170  23.9985552
  33.3030540  93.2853482  18.9700473  34.2322600  93.4364641  18.7969440
  32.8821570  93.3737502  18.1149120  32.1018872  97.3104146  16.7399011
  31.9629958  96.9422930  17.6124949  31.3133468  97.8251785  16.5682969
  33.6524087  96.6885749  14.1287849  33.3173920  96.6486519  15.0245498
  33.1528033  96.0230465  13.6558259  27.6268331  92.0953379  19.6540430
  27.4888129  91.3633618  20.2551969  28.5373255  92.0062279  19.3724617
  30.2550632  91.8073338  19.1424109  30.9650250  91.1666530  19.1010728
  30.2119940  92.0586233  20.0650290  38.2437410  98.7440691  22.0630689
  38.1849957  98.0599911  21.3961272  38.6456929  99.4859681  21.6111315
  28.9679566  88.7938556  20.9619749  28.4316923  88.3429294  21.6141345
  28.3796274  88.9284465  20.2190213  38.2454818  96.7080275  20.2944668
  37.3581596  96.3706197  20.4171067  38.8153369  95.9763307  20.5313434
  24.7018687  87.9294564  18.0472743  24.6176876  87.3220233  17.3123153
  23.8801393  88.4203582  18.0482240  31.7755971 101.3681728  17.2605911
  31.7026143 102.1736699  17.7725216  31.3333364 101.5673693  16.4353933
  34.8742401  86.4148127  13.4142938  35.3711100  85.6618089  13.0944009
  34.1029382  86.4512444  12.8486148  42.7272158  92.1188493  15.0561230
  42.7162035  93.0013208  14.6855163  41.8589538  91.7660043  14.8615767
  34.2354655 101.2668562  19.4164070  34.9482627 101.9016026  19.3439972
  33.7444683 101.3632428  18.6004072  35.9572182  95.1719814  10.9881362
  35.0228460  95.2921277  10.8186066  36.1348850  94.2692281  10.7241372
  31.4577370  88.5565510  13.1414623  31.0875157  88.0036550  13.8295529
  31.9536462  87.9523644  12.5889623  39.3444733  91.0137134  11.5231396
  39.8105185  91.8465125  11.4491699  39.7952233  90.5482115  12.2276654
  29.2866568  99.0163005  20.2369641  29.9876028  99.6499488  20.3899035
  28.8161683  99.3577737  19.4765280  37.4120964  97.3580955   8.5217548
  37.6880808  97.2437549   9.4311422  36.5425463  96.9598440   8.4829721
  37.3161396  83.3817721  15.5622297  36.4024475  83.6121947  15.7304504
  37.7454497  83.4656165  16.4136330  37.0867854  91.5707613  18.0622191
  36.4339304  91.8183520  17.4074644  37.4648234  90.7571751  17.7284669
  34.0475028 101.6067306  12.1650362  34.2297423 100.7888962  12.6278114
  34.8708014 101.8234998  11.7275252  34.3817194 100.5335491   9.4265410
  34.9104960 100.0227945   8.8135572  34.6445413 100.2178021  10.2910943
  33.1355427  92.3127424  24.5488228  32.4596064  92.2121553  25.2190604
  33.9583061  92.1566637  25.0124226  24.8834286  98.5499360  17.1700744
  25.4687723  97.8043048  17.3028648  24.6859125  98.8603317  18.0537408
  26.8542703  85.9669501  19.3867729  26.9184030  86.8284332  18.9745127
  26.7909824  85.3543503  18.6540088  26.3294976  88.0392633  23.0340763
  26.9567015  87.6569711  23.6478288  25.4722895  87.8206835  23.3996456
  36.7289084  98.4455609  24.6394499  37.2728988  99.0585567  24.1449454
  36.1475929  99.0035187  25.1561512  35.0146597 101.5676327  15.7709527
  34.8897737 100.7666066  15.2620472  35.6725688 102.0622520  15.2823497
  26.6354766  87.9225059  14.9486667  25.9141351  88.5361027  14.8094140
  27.4248021  88.4582824  14.8703313  37.0781506  99.3685347  17.3989077
  36.1311841  99.2490698  17.3267403  37.4264279  98.4807845  17.4815338
  29.4381079  85.2579486  21.2227319  29.9615481  85.5041782  21.9853628
  29.2193412  86.0899520  20.8030456  34.0827939  99.1638063  13.5993429
  33.9352901  98.2354770  13.7800999  34.9081433  99.1858154  13.1150504
  27.9490183  87.8156130   9.4573921  28.2886256  88.3442051   8.7352529
  28.3962304  88.1536536  10.2332488  37.6862061  99.9866622  14.6858302
  38.6108608  99.7809483  14.5482753  37.5177364  99.7383023  15.5947643
  30.6433624  86.1993181  18.9076989  30.3030444  85.4000994  19.3097669
  29.9372630  86.4994892  18.3353822  31.2950096  83.2842493  17.3604312
  32.1176165  82.8102971  17.2383202  31.5388159  84.0632977  17.8602998
  29.9358330  86.3130752   7.6567214  30.6566693  86.6912004   7.1530931
  29.3123635  87.0319628   7.7602192  34.0789453  87.0175901   8.5925546
  34.2953068  87.9000538   8.2914374  33.5983520  86.6262114   7.8631188
  28.8188675  89.9761614  15.1696291  28.6733255  90.2901917  16.0620572
  28.3413878  90.5946514  14.6167189  30.6785058  86.9664162  15.2177180
  30.6646626  86.0705255  14.8809478  31.3957486  86.9734826  15.8515466
  32.5311188  87.4001502  17.2630308  32.2728966  88.3218573  17.2614638
  31.9996229  87.0031937  17.9530772  37.4757377 100.5052289  10.0420393
  37.6494255  99.9398712   9.2894246  37.9686268 101.3053184   9.8599883
  23.2934337  92.5166958  18.1083952  22.7487805  93.2926766  18.2404226
  24.1713687  92.8637763  17.9503073  30.0821954  85.8478542  10.4864750
  30.2037865  84.9195188  10.6855638  29.7923996  85.8617228   9.5743066
  32.9513144  83.5333452  13.6231470  32.9734841  83.5972786  12.6683450
  33.3681203  82.6937961  13.8171976  43.3296768  93.2688712  11.6610693
  43.7727914  92.5196037  11.2629816  42.4523279  93.2598848  11.2784425
  24.0800359  91.6436854  21.0014109  23.3382095  91.7919490  21.5878739
  23.7593103  91.9045120  20.1380858  40.3623973  97.2718759   8.6704622
  40.8875297  97.6106032   7.9453942  40.2746325  96.3365774   8.4867757
  32.0244021 101.1852833  20.7994499  32.3331148 100.9401979  21.6717198
  32.8219503 101.3899471  20.3113369  32.0464633 103.3390742  13.0299875
  31.6069624 102.8467121  13.7232732  32.7972750 102.7963710  12.7891951
  29.4938506  98.8828751  15.1022177  28.8718515  98.2199456  14.8024405
  30.1643372  98.9089883  14.4195825  29.5663033  87.3610539  24.6954683
  29.6151189  88.2372662  24.3132453  30.1085547  86.8187932  24.1226326
  40.0517879  97.9051663  23.9755820  39.2613422  97.8875802  23.4360319
  39.8151233  98.4439956  24.7304857  40.1715754  94.7544129  21.2888549
  40.2213759  94.5894136  22.2304071  40.0629677  93.8871388  20.8986429
  37.4619516  90.7375057  22.6047855  38.3629379  90.5981522  22.3131853
  37.5367491  90.9029512  23.5446033  31.7962321  88.1141912  21.4501042
  30.9265631  88.4075478  21.1783630  32.0321802  88.6982357  22.1708305
  41.6733951  97.1741071  21.5330570  41.3818759  97.5371051  22.3694031
  41.0606082  96.4608079  21.3543902  42.8729633  94.7393950  14.0533140
  43.7076524  95.1783754  14.2170701  43.0088762  94.2632604  13.2341386
  39.9221139  92.2973685  20.0010628  40.3975260  92.4901331  19.1929480
  38.9986704  92.3532871  19.7554012  34.5001355  84.3321529  18.9666462
  35.0183299  85.0682556  18.6412951  34.1456488  84.6385522  19.8013221
  34.7513949  80.7521811  14.4867359  35.0315703  80.0845000  15.1127785
  35.5364556  80.9450907  13.9742022  38.6222808  89.1739445  18.2338934
  39.5740231  89.2737543  18.2551158  38.4526258  88.3817714  18.7437018
  36.6437187  86.2595028  18.4198335  36.0487119  86.5400041  17.7244823
  36.3586884  86.7488929  19.1915076  41.1010886  92.3945565  17.3481233
  41.0687206  91.4561566  17.5340917  41.7111509  92.4729602  16.6147058
  41.2505374  89.1856608  17.3939517  40.7344423  88.4015065  17.2069445
  42.1345323  88.8575325  17.5586036  38.9116101  82.9297624  13.3535329
  38.7140922  82.6212712  14.2378661  39.5215807  83.6559263  13.4833259
  46.9187435  93.4561572  16.4887270  47.6490824  93.1946860  17.0494974
  46.3094381  92.7190294  16.5289338  45.0002733  91.5969434  17.0861721
  44.2735896  91.4625399  16.4778213  44.5850019  91.9046263  17.8918439
  32.8232909  95.3159364  24.8509094  33.7435918  95.4937963  25.0449141
  32.7882492  94.3715409  24.6988794  22.0415074  90.5097958  13.7762369
  21.7217858  89.6563266  13.4836743  21.4948502  90.7246536  14.5320336
  25.8194982  93.2260399  17.4931876  26.0380991  94.1577507  17.5119909
  26.2320755  92.8668373  18.2786679  32.7399199  83.7328484   9.4807564
  31.9299928  83.3875569   9.8562810  33.4283616  83.4236028  10.0695176
  34.6689748  82.8106531  11.1031861  35.2220786  83.2301984  11.7621884
  34.9059834  81.8842279  11.1454817  30.6922847  88.7993604  26.8834625
  30.5919574  89.7487961  26.8146716  30.4744389  88.4711843  26.0110695
  38.0468555  84.9207056  10.6110525  37.4667224  85.5791860  10.2288577
  37.7804487  84.0984401  10.1997942  36.4972121  84.3212114  12.8131845
  36.9971899  84.4328648  12.0046164  37.1407729  84.0173167  13.4532654
  30.5554117  92.2290743  25.6999686  30.0721199  93.0291103  25.9063575
  30.6415056  92.2398688  24.7467130  26.4827454  96.1195278  17.7368120
  27.4370708  96.0879220  17.6698052  26.2839978  95.6585902  18.5518346
  27.0726837  94.6896394  20.3038918  27.8919726  95.1840473  20.3273755
  27.3463644  93.7728362  20.2756485  36.8293433  87.0807146   9.6666873
  35.9419288  87.3656797   9.4487068  37.2447422  86.9200910   8.8194150
  40.1807969  87.1053667  13.3821212  40.9568359  87.5950120  13.6545829
  39.4556103  87.5311722  13.8393082  42.6180528  87.8181287  14.4395153
  43.2125018  87.5777023  13.7288461  42.6907111  87.0988417  15.0668689
  36.8034457  92.5961682   9.8817163  36.7469658  93.0530234   9.0424796
  37.3562799  91.8352367   9.7040006  40.6139262  88.3851414  10.7067283
  40.3576197  87.9848050  11.5375490  39.9892130  89.0995208  10.5817422
  44.9251600  91.1247487  13.2138574  44.3651158  91.1940677  13.9870136
  44.3195104  90.9488472  12.4938070  37.5369236  93.7866464   7.1769692
  37.4818040  93.6210735   6.2358137  36.9115291  94.4942496   7.3331882
  22.3261751  89.0234528  21.0031115  22.9720614  88.5133482  21.4918340
  22.1178902  89.7603210  21.5774540  34.8515143  96.0915375  26.5023255
  35.7206303  96.2656028  26.1409890  34.3721894  96.9109792  26.3798985
  30.8465361  83.2874573   6.7555011  30.8344031  84.2316412   6.9123282
  31.7388783  83.1044718   6.4614472  30.7754925 101.9643463  14.8422768
  29.8250556 101.9645325  14.7287140  31.0787411 101.2176198  14.3258802
  34.6617481  79.8817349  11.0100948  33.8949877  79.3275836  11.1557630
  35.0728186  79.9539218  11.8715099  26.6659242  86.1702145  25.1006129
  27.5290703  85.8138950  25.3109453  26.0924652  85.8316040  25.7881533
  48.9882735  99.1752263  18.3449325  48.6566059 100.0447673  18.1210540
  48.3928348  98.8588547  19.0243355  48.8811398 103.8947349  15.4242675
  47.9728275 103.8262757  15.1301436  48.8298994 104.3719294  16.2524501
  42.9552264 105.3136994  23.3677572  42.1785598 105.8730914  23.3580437
  43.5942827 105.7993777  23.8892442  50.7473044 102.0963787  17.2020549
  50.1047425 102.3896320  16.5560344  50.2427973 101.9816707  18.0073746
  43.0385046 105.2024195  18.9001258  43.8846241 105.6263608  19.0435907
  42.9783683 104.5457819  19.5939821  46.1884491 102.8628563  20.5582431
  45.9445423 103.6170624  20.0216707  46.4644422 103.2413911  21.3929679
  45.7449183 102.0184996  16.1396269  44.8833662 102.3166250  16.4313007
  45.7711618 102.2355395  15.2077302  39.9460000 105.2762096  23.7310849
  39.3158660 105.9578377  23.9646246  39.8396088 105.1645177  22.7863988
  39.2240743  99.5782862  26.0936100  38.8307688  99.0249060  26.7683745
  40.0406883  99.8893440  26.4842618  42.1408704 100.9940741  23.6856357
  42.8818417 101.5947894  23.6060819  42.3726626 100.2518379  23.1274400
  46.0865867  97.0221844  17.9620639  45.7430136  97.9123485  17.8859749
  46.4544829  96.8323501  17.0990224  45.1662407  99.3926499  15.9269872
  44.6627202  99.3556634  15.1137677  45.4593014 100.3019242  15.9866529
  41.4105293  99.4765229  14.9336054  42.2758290  99.2808037  14.5741943
  41.4782802  99.2475580  15.8605410  39.0167612 101.7067437  12.3052420
  39.5911364 101.4842618  11.5725613  39.6038594 101.7756131  13.0581022
  41.3190280  98.5808685  11.0327490  40.6654692  98.2657703  10.4084105
  41.2770754  97.9584426  11.7587313  44.5528020 105.0690619  15.3575138
  43.6350581 105.2905566  15.1996826  44.9688164 105.1436929  14.4986845
  47.8853532  96.2815403  13.0638376  48.1912409  95.4212766  12.7764291
  48.6106137  96.8733023  12.8637370  42.1574612 106.5769196  13.5714567
  42.2123222 105.6243032  13.4957044  41.3465814 106.7328635  14.0555866
  45.6941184 105.6588080  20.1619840  46.0490571 105.8859553  21.0214306
  46.3413315 105.9906457  19.5397095  39.5881047 102.7664611  16.9466181
  40.2280426 102.6253370  16.2489145  38.7558577 102.4799125  16.5704783
  36.5909663 102.7364936  11.7239168  36.8516480 103.6510269  11.6148329
  37.4126835 102.2689379  11.8735781  38.0634588 104.1502693  18.8937993
  38.7357642 103.9420056  18.2450641  37.2364375 103.9524779  18.4543225
  43.9660160 100.7764634  20.9103653  43.3188075 101.4754584  20.8168130
  44.7361176 101.2100778  21.2779902  39.8073320 104.1230474  20.9619749
  39.2710677 103.6721212  21.6141345  39.2190029 104.2576382  20.2190213
  35.5412441 103.2586481  18.0472743  35.4570630 102.6512151  17.3123153
  34.7195148 103.7495500  18.0482240  45.7136155 101.7440045  13.4142938
  46.2104855 100.9910007  13.0944009  44.9423137 101.7804361  12.8486148
  42.2971124 103.8857428  13.1414623  41.9268912 103.3328468  13.8295529
  42.7930217 103.2815561  12.5889623  48.1555150  98.7109638  15.5622297
  47.2418230  98.9413865  15.7304504  48.5848252  98.7948082  16.4136330
  47.9261609 106.8999530  18.0622191  47.2733059 107.1475438  17.4074644
  48.3041989 106.0863668  17.7284669  43.9749182 107.6419341  24.5488228
  43.2989819 107.5413471  25.2190604  44.7976816 107.4858555  25.0124226
  37.6936458 101.2961419  19.3867729  37.7577784 102.1576249  18.9745127
  37.6303578 100.6835420  18.6540088  37.1688730 103.3684551  23.0340763
  37.7960769 102.9861628  23.6478288  36.3116649 103.1498753  23.3996456
  37.4748520 103.2516977  14.9486667  36.7535106 103.8652945  14.8094140
  38.2641776 103.7874742  14.8703313  40.2774834 100.5871403  21.2227319
  40.8009235 100.8333700  21.9853628  40.0587167 101.4191438  20.8030456
  41.4827379 101.5285098  18.9076989  41.1424199 100.7292911  19.3097669
  40.7766385 101.8286809  18.3353822  42.1343850  98.6134411  17.3604312
  42.9569920  98.1394889  17.2383202  42.3781914  99.3924895  17.8602998
  39.6582429 105.3053531  15.1696291  39.5127010 105.6193835  16.0620572
  39.1807633 105.9238432  14.6167189  41.5178812 102.2956079  15.2177180
  41.5040381 101.3997173  14.8809478  42.2351240 102.3026743  15.8515466
  43.3704943 102.7293420  17.2630308  43.1122721 103.6510490  17.2614638
  42.8389983 102.3323854  17.9530772  43.7906898  98.8625370  13.6231470
  43.8128595  98.9264703  12.6683450  44.2074957  98.0229879  13.8171976
  40.4056788 102.6902457  24.6954683  40.4544943 103.5664580  24.3132453
  40.9479302 102.1479850  24.1226326  51.0109508 110.0836047  21.2888549
  51.0607513 109.9186054  22.2304071  50.9023432 109.2163306  20.8986429
  48.3013271 106.0666975  22.6047855  49.2023133 105.9273440  22.3131853
  48.3761245 106.2321430  23.5446033  42.6356076 103.4433830  21.4501042
  41.7659385 103.7367396  21.1783630  42.8715556 104.0274275  22.1708305
  50.7614893 107.6265603  20.0010628  51.2369015 107.8193249  19.1929480
  49.8380459 107.6824789  19.7554012  45.3395110  99.6613446  18.9666462
  45.8577054 100.3974473  18.6412951  44.9850243  99.9677440  19.8013221
  45.5907704  96.0813729  14.4867359  45.8709458  95.4136918  15.1127785
  46.3758311  96.2742825  13.9742022  49.4616562 104.5031363  18.2338934
  50.4133985 104.6029461  18.2551158  49.2920013 103.7109632  18.7437018
  47.4830942 101.5886946  18.4198335  46.8880874 101.8691959  17.7244823
  47.1980639 102.0780847  19.1915076  52.0899129 104.5148526  17.3939517
  51.5738177 103.7306983  17.2069445  52.9739077 104.1867243  17.5586036
  49.7509856  98.2589542  13.3535329  49.5534677  97.9504630  14.2378661
  50.3609561  98.9851181  13.4833259  45.5083502  98.1398449  11.1031861
  46.0614541  98.5593902  11.7621884  45.7453589  97.2134197  11.1454817
  41.5316601 104.1285522  26.8834625  41.4313328 105.0779879  26.8146716
  41.3138143 103.8003761  26.0110695  47.3365876  99.6504031  12.8131845
  47.8365654  99.7620566  12.0046164  47.9801484  99.3465084  13.4532654
  45.5011235  95.2109267  11.0100948  44.7343631  94.6567754  11.1557630
  45.9121940  95.2831136  11.8715099  37.5052996 101.4994063  25.1006129
  38.3684458 101.1430868  25.3109453  36.9318407 101.1607958  25.7881533
  15.0501577  44.7933896  11.3639805  15.5941481  45.4063854  10.8694760
  14.4688421  45.3513474  11.8806818  18.3730371  44.2529950  10.7001127
  17.5825915  44.2354089  10.1605626  18.1363726  44.7918244  11.4550163
  13.1727635  42.4393663  13.2268562  14.0418795  42.6134315  12.8655197
  12.6934387  43.2588080  13.1044291  24.8320111  54.1482289   2.6313837
  25.4698521  54.0289036   1.9277177  24.7140954  55.0963133   2.6901789
  22.1229600  55.2544568   8.5261567  22.1118241  54.8597367   7.6542070
  22.2850240  54.5210641   9.1195338  18.8436861  58.0381680   7.4740751
  18.5526727  58.9427311   7.3587417  19.4793846  58.0798208   8.1884820
  19.7693068  55.4158529   4.0642110  20.3656641  55.1914551   3.3499073
  19.8268040  54.6743274   4.6667558  29.7869807  51.8108976   0.6100023
  30.5194979  51.2408192   0.8437853  29.0309162  51.4230576   1.0506529
  27.3095227  45.5230550   5.0694632  26.9778552  46.3925961   4.8455847
  26.7140840  45.2066834   5.7488662  23.8026747  57.7243096   4.4690544
  23.5027470  58.6268135   4.3606352  23.4577806  57.4575279   5.3211697
  21.2764756  51.6615282  10.0922879  20.4998090  52.2209202  10.0825744
  21.9155319  52.1472065  10.6137749  29.0685537  48.4442074   3.9265856
  28.4259917  48.7374608   3.2805650  28.5640465  48.3294995   4.7319052
  19.5311128  54.4700735   9.6540846  20.2725813  55.0085779   9.3775670
  18.8248114  55.0967024   9.8112398  25.0066468  56.6129875   8.2513008
  25.4149824  56.1712286   7.5067640  24.2843730  56.0382503   8.5047200
  21.3597538  51.5502482   5.6246564  22.2058733  51.9741896   5.7681213
  21.2996176  50.8936106   6.3185128  25.3295283  57.1731066   2.0065296
  24.7004145  57.3376780   1.3041364  24.9420945  57.5872676   2.7776260
  29.2084515  58.1085504  -0.6390340  28.5235553  58.4884405  -1.1893307
  29.2928364  58.7180830   0.0941608  24.5096983  49.2106850   7.2827738
  24.2657915  49.9648911   6.7462014  24.7856914  49.5892198   8.1174985
  26.4635446  55.7545463   5.9605004  26.6752341  56.3977223   5.2839385
  26.4165194  54.9207779   5.4926934  17.7747326  56.4576956   2.2095145
  18.3448683  56.8864224   1.5712629  18.3655437  56.1759540   2.9079330
  18.2672492  51.6240383  10.4556156  17.6371153  52.3056664  10.6891553
  18.1608580  51.5123465   9.5109294  27.5781274  58.6317418   4.1327361
  28.3998718  58.2297606   3.8510043  27.5743677  58.5285652   5.0843477
  21.3437878  58.1801462   6.2888072  21.4082310  58.6421869   7.1246243
  20.6348801  57.5498826   6.4170381  35.6687267  54.9756167   0.4812332
  34.9150976  54.4063565   0.3256337  35.8034808  54.9418831   1.4282967
  17.5453235  45.9261149  12.8181407  17.1520180  45.3727347  13.4929051
  18.3619375  46.2371727  13.2087925  20.4621196  47.3419028  10.4101664
  21.2030909  47.9426181  10.3306126  20.6939119  46.5996666   9.8519706
  15.6062534  52.5275395   8.6879893  15.4916049  51.6260653   8.9886992
  14.7507052  52.7739092   8.3364710  22.6854372  60.4693136  10.2867394
  22.2418226  59.6829514   9.9688298  23.3471585  60.6572286   9.6211285
  17.4441493  61.9988937   4.8128072  17.9948918  61.8706001   4.0405066
  16.6052969  62.2983826   4.4622965  24.7835610  60.7495936   8.3148795
  24.7654085  61.5704817   7.8229064  25.7055530  60.6250011   8.5398936
  21.2408664  58.2640065   9.1572304  21.7737001  57.5028353   8.9271612
  20.7122745  57.9713717   9.8996458  27.5854223  55.5875078   1.7858162
  26.9277897  56.2774339   1.8738291  28.3894622  55.9771510   2.1292148
  27.1621478  58.9225452  -2.0358754  26.7083805  58.0816362  -1.9793563
  26.5315444  59.5586850  -1.6983974  25.6054417  60.7601949  -1.1008936
  25.8977391  61.3207006  -1.8196570  26.1153037  61.0530510  -0.3455776
  20.5688042  61.5382300  -0.0115482  20.5264221  61.7643146  -0.9406950
  21.4850741  61.3045674   0.1370319  24.0153676  52.0066367   6.8865147
  24.3703064  52.2337841   7.7459613  24.6625807  52.3384744   6.2642402
  29.7720792  57.1961330   2.6025747  30.2057299  57.1036619   3.4508801
  30.4852373  57.1718831   1.9645763  23.5048687  60.7963424   4.1358848
  23.5585710  61.3654361   4.9036564  22.6363469  60.9665309   3.7712885
  30.6336342  57.2385031   5.1358633  30.8272232  58.1430841   5.3817908
  30.5336960  56.7792450   5.9697218  22.2872653  47.1242922   7.6348960
  21.6400568  47.8232871   7.5413436  23.0573668  47.5579065   8.0025208
  25.6951451  57.3891774  10.7099513  25.5436957  57.1602325   9.7929597
  25.6856130  58.3462375  10.7230858  22.4636787  54.9623686   5.6945780
  23.3928847  55.1134846   5.5214747  22.0427817  55.0507707   4.8394426
  21.2625119  58.9874351   3.4644317  21.1236204  58.6193135   4.3370256
  20.4739715  59.5021990   3.2928275  22.8130334  58.3655954   0.8533155
  22.4780167  58.3256724   1.7490805  22.3134280  57.7000669   0.3803565
  16.7874578  53.7723584   6.3785736  16.6494376  53.0403822   6.9797275
  17.6979501  53.6832484   6.0969924  19.4156879  53.4843543   5.8669416
  20.1256497  52.8436735   5.8256034  19.3726187  53.7356438   6.7895597
  27.4043657  60.4210896   8.7875995  27.3456203  59.7370116   8.1206578
  27.8063176  61.1629886   8.3356621  18.1285813  50.4708761   7.6865055
  17.5923170  50.0199499   8.3386652  17.5402521  50.6054670   6.9435520
  27.4061064  58.3850480   7.0189975  26.5187843  58.0476402   7.1416374
  27.9759616  57.6533511   7.2558740  20.9362218  63.0451933   3.9851218
  20.8632389  63.8506904   4.4970523  20.4939611  63.2443898   3.1599239
  31.8878405  53.7958698   1.7806537  31.8768281  54.6783413   1.4100470
  31.0195784  53.4430248   1.5861074  23.3960901  62.9438767   6.1409377
  24.1088874  63.5786231   6.0685278  22.9050930  63.0402633   5.3249379
  18.4472815  60.6933210   6.9614948  19.1482274  61.3269693   7.1144342
  17.9767930  61.0347942   6.2010587  26.2474101  53.2477818   4.7867498
  25.5945551  53.4953725   4.1319951  26.6254481  52.4341956   4.4529975
  23.2081275  63.2837511  -1.1104332  23.3903669  62.4659167  -0.6476579
  24.0314261  63.5005203  -1.5479442  22.2961674  53.9897629  11.2733535
  21.6202311  53.8891758  11.9435910  23.1189308  53.8336842  11.7369532
  14.0440533  60.2269565   3.8946050  14.6293970  59.4813253   4.0273954
  13.8465371  60.5373522   4.7782714  21.0384457  65.2964556   5.5091151
  21.5902765  65.4596178   6.2740236  21.3790650  65.8868994   4.8371176
  15.4901223  49.7162838   9.7586070  16.1173261  49.3339916  10.3723594
  14.6329141  49.4977040  10.1241762  25.8895331  60.1225814  11.3639805
  26.4335235  60.7355772  10.8694760  25.3082176  60.6805392  11.8806818
  24.1752844  63.2446532   2.4954833  24.0503984  62.4436271   1.9865779
  24.8331935  63.7392725   2.0068803  26.2387752  61.0455552   4.1234383
  25.2918088  60.9260903   4.0512710  26.5870526  60.1578050   4.2060645
  18.5987326  46.9349691   7.9472625  19.1221728  47.1811987   8.7098934
  18.3799659  47.7669725   7.5275762  23.2434186  60.8408268   0.3238735
  23.0959148  59.9124975   0.5046306  24.0687679  60.8628359  -0.1604189
  26.8468308  61.6636827   1.4103608  27.7714855  61.4579688   1.2728059
  26.6783611  61.4153228   2.3192950  26.6363624  62.1822494  -3.2334300
  26.8100501  61.6168916  -3.9860448  27.1292515  62.9823389  -3.4154810
  32.4903015  54.9458917  -1.6144001  32.9334161  54.1966242  -2.0124877
  31.6129525  54.9369053  -1.9970269  13.2406605  53.3207059   7.7259415
  12.4988342  53.4689695   8.3124046  12.9199350  53.5815325   6.8626165
  21.1850268  62.8623038   7.5239805  21.4937395  62.6172184   8.3962505
  21.9825750  63.0669676   7.0358676  21.2070880  65.0160947  -0.2454818
  20.7675870  64.5237326   0.4478039  21.9578997  64.4733915  -0.4862743
  18.6544752  60.5598956   1.8267484  18.0324762  59.8969661   1.5269711
  19.3249619  60.5860088   1.1441131  18.7269280  49.0380744  11.4199990
  18.7757435  49.9142867  11.0377759  19.2691794  48.4958137  10.8471633
  29.2124125  59.5821868  10.7001127  28.4219669  59.5646006  10.1605626
  28.9757480  60.1210161  11.4550163  29.3322001  56.4314334   8.0133855
  29.3820005  56.2664341   8.9549378  29.2235924  55.5641593   7.6231736
  26.6225763  52.4145262   9.3293162  27.5235626  52.2751727   9.0377160
  26.6973737  52.5799717  10.2691339  20.9568568  49.7912117   8.1746348
  20.0871878  50.0845683   7.9028937  21.1928049  50.3752562   8.8953612
  30.8340197  58.8511275   8.2575877  30.5425006  59.2141256   9.0939338
  30.2212329  58.1378284   8.0789209  32.0335880  56.4164155   0.7778447
  32.8682771  56.8553959   0.9416007  32.1695008  55.9402808  -0.0413307
  29.0827386  53.9743890   6.7255935  29.5581507  54.1671536   5.9174786
  28.1592951  54.0303076   6.4799318  23.6607602  46.0091734   5.6911769
  24.1789546  46.7452761   5.3658257  23.3062735  46.3155727   6.5258528
  27.7829055  50.8509650   4.9584240  28.7346478  50.9507748   4.9796464
  27.6132505  50.0587919   5.4682325  25.8043434  47.9365233   5.1443641
  25.2093366  48.2170246   4.4490130  25.5193131  48.4259134   5.9160382
  30.2617132  54.0715770   4.0726540  30.2293453  53.1331771   4.2586224
  30.8717756  54.1499807   3.3392365  30.4111621  50.8626813   4.1184823
  29.8950670  50.0785270   3.9314752  31.2951569  50.5345530   4.2831343
  36.0793682  55.1331777   3.2132577  36.8097071  54.8717065   3.7740280
  35.4700628  54.3960499   3.2534645  34.1608979  53.2739639   3.8107028
  33.4342143  53.1395604   3.2023520  33.7456266  53.5816468   4.6163746
  21.9839156  56.9929569  11.5754401  22.9042165  57.1708168  11.7694448
  21.9488739  56.0485614  11.4234100  14.9801228  54.9030604   4.2177182
  15.1987238  55.8347711   4.2365216  15.3927002  54.5438578   5.0031986
  19.8529094  50.4763809  13.6079931  19.7525821  51.4258166  13.5392022
  19.6350636  50.1482048  12.7356001  19.7160364  53.9060948  12.4244993
  19.2327445  54.7061308  12.6308882  19.8021303  53.9168893  11.4712437
  15.6433701  57.7965483   4.4613427  16.5976955  57.7649425   4.3943358
  15.4446225  57.3356107   5.2763652  16.2333083  56.3666599   7.0284224
  17.0525972  56.8610678   7.0519062  16.5069891  55.4498567   7.0001792
  31.7786774  49.4951492   1.1640460  32.3731265  49.2547227   0.4533768
  31.8513358  48.7758622   1.7913996  34.0857847  52.8017692  -0.0616119
  33.5257405  52.8710882   0.7115443  33.4801350  52.6258677  -0.7816623
  24.0121390  57.7685580  13.2268562  24.8812549  57.9426233  12.8655197
  23.5328141  58.5879997  13.1044291  18.1807570  64.8882681   4.9057996
  19.0834817  64.9206292   5.2224490  17.9544940  63.9583132   4.9204331
  19.9361172  63.6413668   1.5668074  18.9856803  63.6415530   1.4532446
  20.2393658  62.8946402   1.0504109  15.8265489  47.8472350  11.8251436
  16.6896950  47.4909155  12.0354760  15.2530899  47.5086245  12.5126840
  35.6713865  69.4774206   2.6313837  36.3092275  69.3580954   1.9277177
  35.5534708  70.4255050   2.6901789  32.4803572  69.4301634   2.5675361
  32.1422083  69.3142699   1.6795896  33.3493340  69.0292799   2.5476367
  28.3390387  71.2837111  -1.4427748  27.7755253  71.1927048  -2.2111460
  28.2242783  70.4637015  -0.9625255  32.9623355  70.5836486   8.5261567
  32.9511996  70.1889284   7.6542070  33.1243994  69.8502559   9.1195338
  25.8854819  72.7788302   1.3956473  26.6776111  72.4379127   0.9802772
  26.1251470  72.8883277   2.3158626  29.6830616  73.3673598   7.4740751
  29.3920482  74.2719229   7.3587417  30.3187600  73.4090126   8.1884820
  30.6086823  70.7450446   4.0642110  31.2050395  70.5206469   3.3499073
  30.6661794  70.0035192   4.6667558  35.2255134  67.2025660  -0.2932955
  36.0118223  66.7845083  -0.6442538  35.4893838  68.1071752  -0.1251307
  35.3965211  72.6398510  -5.5944299  34.7611044  72.7133137  -4.8823394
  35.0662618  73.2292109  -6.2725219  40.6263561  67.1400893   0.6100023
  41.3588733  66.5700110   0.8437853  39.8702917  66.7522494   1.0506529
  32.2439681  69.5628135  -2.1936634  31.8797888  69.0358756  -1.4823713
  33.1006797  69.1726604  -2.3670149  38.1488981  60.8522467   5.0694632
  37.8172306  61.7217878   4.8455847  37.5534595  60.5358751   5.7488662
  31.8845168  64.5918035  -7.1975286  32.0519570  65.4598271  -6.8304815
  31.6942337  64.7545316  -8.1213997  34.6420501  73.0535013   4.4690544
  34.3421224  73.9560052   4.3606352  34.2971561  72.7867197   5.3211697
  28.0932982  69.5048810   0.5027249  27.1683479  69.3725024   0.7104941
  28.3417396  70.2843030   0.9997191  38.0417645  65.5717554   2.1487982
  37.1334522  65.5032962   1.8546743  37.9905241  66.0489499   2.9769807
  31.8634389  67.0475692  -6.2128619  31.7434014  67.4932743  -5.3743139
  31.1686977  67.3961010  -6.7715081  25.4541794  69.1482084   1.3371038
  25.5834175  69.4016563   2.2510450  24.7739245  69.7409792   1.0175693
  32.1158511  66.9907199  10.0922879  31.3391845  67.5501119  10.0825744
  32.7549074  67.4763982  10.6137749  39.9079291  63.7733992   3.9265856
  39.2653671  64.0666525   3.2805650  39.4034220  63.6586912   4.7319052
  37.5619455  67.5197165  -5.3848285  38.4737311  67.7524552  -5.5600588
  37.0529102  68.1034209  -5.9473206  30.3704883  69.7992653   9.6540846
  31.1119567  70.3377697   9.3775670  29.6641868  70.4258941   9.8112398
  35.8460223  71.9421793   8.2513008  36.2543579  71.5004204   7.5067640
  35.1237484  71.3674421   8.5047200  32.1991293  66.8794400   5.6246564
  33.0452488  67.3033813   5.7681213  32.1389930  66.2228024   6.3185128
  36.1689037  72.5022984   2.0065296  35.5397900  72.6668698   1.3041364
  35.7814699  72.9164593   2.7776260  40.0478269  73.4377422  -0.6390340
  39.3629307  73.8176323  -1.1893307  40.1322118  74.0472748   0.0941608
  35.3490738  64.5398768   7.2827738  35.1051670  65.2940829   6.7462014
  35.6250668  64.9184116   8.1174985  37.3029201  71.0837381   5.9605004
  37.5146096  71.7269140   5.2839385  37.2558949  70.2499697   5.4926934
  34.9055430  63.6955201   2.8641576  34.0439909  63.9936455   3.1558313
  34.9317864  63.9125600   1.9322608  31.7216999  72.2397392  -0.7284619
  32.1855345  72.5185095  -1.5179996  31.4573797  71.3380836  -0.9111528
  28.6141080  71.7868873   2.2095145  29.1842437  72.2156142   1.5712629
  29.2049192  71.5051458   2.9079330  30.6585885  68.3620544  -3.9195053
  31.3609928  68.8141588  -3.4521127  30.3266514  67.7204363  -3.2915160
  29.1066247  66.9532301  10.4556156  28.4764907  67.6348582  10.6891553
  29.0002335  66.8415382   9.5109294  24.4011219  66.6204097   1.3822080
  23.6110273  66.8761625   0.9062191  24.8922466  67.4352435   1.4874121
  38.4175029  73.9609336   4.1327361  39.2392472  73.5589523   3.8510043
  38.4137431  73.8577570   5.0843477  26.3525964  66.9848676  -1.6594443
  25.5557128  67.0967370  -1.1410947  26.1251557  67.3235328  -2.5253553
  32.1831632  73.5093379   6.2888072  32.2476065  73.9713786   7.1246243
  31.4742556  72.8790744   6.4170381  22.6848922  66.8734587   3.8137071
  22.9356960  67.7581597   4.0794647  23.2208470  66.6939189   3.0412163
  46.5081022  70.3048084   0.4812332  45.7544730  69.7355483   0.3256337
  46.6428563  70.2710749   1.4282967  28.3846989  61.2553067  12.8181407
  27.9913935  60.7019265  13.4929051  29.2013130  61.5663645  13.2087925
  31.3014950  62.6710946  10.4101664  32.0424664  63.2718099  10.3306126
  31.5332873  61.9288583   9.8519706  26.4456288  67.8567313   8.6879893
  26.3309803  66.9552570   8.9886992  25.5900806  68.1031010   8.3364710
  33.5248126  75.7985053  10.2867394  33.0811980  75.0121432   9.9688298
  34.1865340  75.9864204   9.6211285  28.2835247  77.3280855   4.8128072
  28.8342672  77.1997918   4.0405066  27.4446723  77.6275744   4.4622965
  35.6229364  76.0787853   8.3148795  35.6047840  76.8996734   7.8229064
  36.5449284  75.9541928   8.5398936  32.0802418  73.5931983   9.1572304
  32.6130755  72.8320271   8.9271612  31.5516499  73.3005634   9.8996458
  35.2472113  58.6992049   4.6865945  34.9036383  59.5893690   4.6105056
  35.6151076  58.5093706   3.8235530  35.2122396  68.6900660  -6.8061620
  34.6969019  69.4605264  -6.5673232  34.9399704  68.0165796  -6.1828558
  32.7969507  63.5350361  -1.7476381  31.9411103  63.1457211  -1.9270742
  33.2096459  63.6142321  -2.6076596  34.3268654  61.0696704   2.6515179
  33.8233449  61.0326839   1.8382984  34.6199261  61.9789447   2.7111835
  30.5711540  61.1535434   1.6581360  31.4364536  60.9578242   1.2987250
  30.6389048  60.9245785   2.5850717  40.1856670  71.4433014  -4.8708446
  39.4086113  71.1044174  -5.3153284  40.8648151  71.4485638  -5.5453481
  35.0008699  66.5627752  -4.9801838  34.6958835  66.8773901  -4.1291695
  35.9539141  66.6409172  -4.9374505  33.4455131  72.7217975  -3.3308884
  32.9176493  71.9870735  -3.6435647  32.9442634  73.4992651  -3.5768916
  38.4247977  70.9166996   1.7858162  37.7671651  71.6066257   1.8738291
  39.2288376  71.3063428   2.1292148  28.1773859  63.3837641  -0.9702273
  28.7517611  63.1612823  -1.7029080  28.7644841  63.4526336  -0.2173672
  37.2353436  69.2711368  -0.1637896  37.7485318  69.9041360   0.3383813
  37.8854660  68.6712564  -0.5294536  30.4796526  60.2578890  -2.2427203
  29.8260939  59.9427908  -2.8670589  30.4377000  59.6354631  -1.5167381
  33.7134267  66.7460824   2.0820444  32.7956828  66.9675771   1.9242132
  34.1294410  66.8207134   1.2232151  34.4969314  68.1452240  -2.7876876
  35.2441133  68.6573637  -3.0969754  34.7660904  67.8236292  -1.9272482
  38.0015232  74.2517370  -2.0358754  37.5477559  73.4108280  -1.9793563
  37.3709199  74.8878768  -1.6983974  36.9448152  65.1809356  -0.8058086
  36.2070908  64.6686742  -0.4747844  37.1974925  64.7409737  -1.6174809
  36.4448171  76.0893866  -1.1008936  36.7371146  76.6498924  -1.8196570
  36.9546792  76.3822427  -0.3455776  37.0459779  57.9585608  -0.2116317
  37.3518656  57.0982971  -0.4990402  37.7712384  58.5503228  -0.4117323
  31.3180859  68.2539401   0.2959874  31.3729468  67.3013237   0.2202351
  30.5072061  68.4098840   0.7801172  29.2573219  66.8716461  -1.9449747
  28.4441084  67.1710631  -1.5384555  29.7532213  66.4772149  -1.2275265
  31.4081796  76.8674218  -0.0115482  31.3657975  77.0935064  -0.9406950
  32.3244495  76.6337592   0.1370319  34.8547430  67.3358285   6.8865147
  35.2096818  67.5629758   7.7459613  35.5019562  67.6676662   6.2642402
  40.5845167  70.4576721  -2.4085524  40.4463066  70.6478317  -3.3364335
  40.2281386  71.2196104  -1.9517473  28.7487293  64.4434816   3.6711488
  29.3886673  64.3023575   2.9734451  27.9164824  64.1569330   3.2950090
  40.6114547  72.5253248   2.6025747  41.0451053  72.4328537   3.4508801
  41.3246128  72.5010748   1.9645763  29.5247597  73.7437247  -0.2153520
  30.3188196  73.2487567  -0.4170945  28.8139290  73.2155110  -0.5785814
  34.3442442  76.1255342   4.1358848  34.3979464  76.6946278   4.9036564
  33.4757223  76.2957227   3.7712885  25.7515910  64.4135141  -1.5515525
  26.0122727  65.3280474  -1.6606365  26.5733082  63.9459584  -1.4018913
  27.2240835  65.8272898   5.6183299  27.8963889  65.6190260   4.9695948
  26.3970622  65.6294984   5.1788532  41.4730096  72.5676949   5.1358633
  41.6665986  73.4722759   5.3817908  41.3730715  72.1084368   5.9697218
  33.1266407  62.4534839   7.6348960  32.4794322  63.1524789   7.5413436
  33.8967423  62.8870983   8.0025208  36.5345205  72.7183691  10.7099513
  36.3830711  72.4894243   9.7929597  36.5249885  73.6754293  10.7230858
  33.3030541  70.2915604   5.6945780  34.2322601  70.4426764   5.5214747
  32.8821571  70.3799625   4.8394426  32.1018873  74.3166269   3.4644317
  31.9629959  73.9485053   4.3370256  31.3133469  74.8313908   3.2928275
  33.6524088  73.6947871   0.8533155  33.3173921  73.6548641   1.7490805
  33.1528034  73.0292587   0.3803565  27.6268332  69.1015501   6.3785736
  27.4888130  68.3695740   6.9797275  28.5373256  69.0124401   6.0969924
  30.2550633  68.8135461   5.8669416  30.9650252  68.1728653   5.8256034
  30.2119941  69.0648355   6.7895597  38.2437412  75.7502814   8.7875995
  38.1849958  75.0662034   8.1206578  38.6456930  76.4921804   8.3356621
  28.9679567  65.8000678   7.6865055  28.4316924  65.3491417   8.3386652
  28.3796275  65.9346587   6.9435520  38.2454819  73.7142398   7.0189975
  37.3581598  73.3768320   7.1416374  38.8153370  72.9825429   7.2558740
  24.7018688  64.9356686   4.7718050  24.6176877  64.3282356   4.0368460
  23.8801395  65.4265704   4.7727546  31.7755972  78.3743850   3.9851218
  31.7026144  79.1798822   4.4970523  31.3333365  78.5735816   3.1599239
  34.8742402  63.4210250   0.1388245  35.3711102  62.6680212  -0.1810685
  34.1029384  63.4574566  -0.4268546  42.7272160  69.1250615   1.7806537
  42.7162036  70.0075331   1.4100470  41.8589539  68.7722166   1.5861074
  34.2354656  78.2730684   6.1409377  34.9482628  78.9078149   6.0685278
  33.7444685  78.3694550   5.3249379  35.9572183  72.1781937  -2.2873332
  35.0228462  72.2983399  -2.4568627  36.1348851  71.2754404  -2.5513322
  31.4577371  65.5627633  -0.1340070  31.0875158  65.0098673   0.5540835
  31.9536463  64.9585766  -0.6865070  39.3444734  68.0199256  -1.7523297
  39.8105186  68.8527248  -1.8262995  39.7952235  67.5544238  -1.0478039
  29.2866569  76.0225128   6.9614948  29.9876029  76.6561611   7.1144342
  28.8161684  76.3639859   6.2010587  37.4120965  74.3643078  -4.7537145
  37.6880809  74.2499672  -3.8443271  36.5425464  73.9660562  -4.7924972
  37.3161397  60.3879843   2.2867604  36.4024477  60.6184070   2.4549811
  37.7454498  60.4718287   3.1381636  37.0867855  68.5769735   4.7867498
  36.4339306  68.8245643   4.1319951  37.4648235  67.7633873   4.4529975
  34.0475029  78.6129428  -1.1104332  34.2297424  77.7951084  -0.6476579
  34.8708015  78.8297121  -1.5479442  34.3817195  77.5397613  -3.8489283
  34.9104961  77.0290068  -4.4619121  34.6445414  77.2240144  -2.9843750
  33.1355428  69.3189546  11.2733535  32.4596065  69.2183676  11.9435910
  33.9583062  69.1628760  11.7369532  24.8834287  75.5561483   3.8946050
  25.4687724  74.8105171   4.0273954  24.6859126  75.8665439   4.7782714
  31.8778211  80.6256474   5.5091151  32.4296519  80.7888095   6.2740236
  32.2184405  81.2160912   4.8371176  26.8542705  62.9731623   6.1113036
  26.9184031  63.8346454   5.6990433  26.7909825  62.3605625   5.3785394
  26.3294977  65.0454756   9.7586070  26.9567016  64.6631833  10.3723594
  25.4722896  64.8268958  10.1241762  36.7289086  75.4517731  11.3639805
  37.2728990  76.0647689  10.8694760  36.1475930  76.0097310  11.8806818
  35.0146599  78.5738449   2.4954833  34.8897738  77.7728189   1.9865779
  35.6725690  79.0684643   2.0068803  26.6354767  64.9287182   1.6731973
  25.9141353  65.5423149   1.5339447  27.4248023  65.4644947   1.5948619
  37.0781507  76.3747469   4.1234383  36.1311842  76.2552820   4.0512710
  37.4264280  75.4869967   4.2060645  29.4381080  62.2641608   7.9472625
  29.9615482  62.5103905   8.7098934  29.2193414  63.0961643   7.5275762
  34.0827940  76.1700186   0.3238735  33.9352903  75.2416893   0.5046306
  34.9081434  76.1920276  -0.1604189  27.9490185  64.8218253  -3.8180772
  28.2886257  65.3504174  -4.5402164  28.3962305  65.1598659  -3.0422206
  37.6862062  76.9928744   1.4103608  38.6108610  76.7871606   1.2728059
  37.5177365  76.7445145   2.3192950  30.6433625  63.2055303   5.6322296
  30.3030446  62.4063116   6.0342976  29.9372632  63.5057014   5.0599129
  31.2950097  60.2904616   4.0849619  32.1176167  59.8165094   3.9628509
  31.5388161  61.0695100   4.5848305  29.9358332  63.3192874  -5.6187480
  30.6566694  63.6974127  -6.1223763  29.3123636  64.0381751  -5.5152502
  34.0789455  64.0238023  -4.6829147  34.2953069  64.9062661  -4.9840319
  33.5983522  63.6324237  -5.4123505  28.8188676  66.9823736   1.8941597
  28.6733257  67.2964039   2.7865879  28.3413880  67.6008637   1.3412496
  30.6785059  63.9726284   1.9422487  30.6646628  63.0767378   1.6054785
  31.3957487  63.9796948   2.5760773  32.5311190  64.4063625   3.9875614
  32.2728967  65.3280695   3.9859945  31.9996230  64.0094059   4.6776078
  37.4757378  77.5114412  -3.2334300  37.6494256  76.9460834  -3.9860448
  37.9686270  78.3115307  -3.4154810  23.2934338  69.5229081   4.8329259
  22.7487806  70.2988889   4.9649533  24.1713688  69.8699885   4.6748380
  30.0821955  62.8540665  -2.7889943  30.2037866  61.9257311  -2.5899055
  29.7923997  62.8679351  -3.7011628  32.9513145  60.5395575   0.3476777
  32.9734842  60.6034908  -0.6071244  33.3681204  59.7000084   0.5417283
  43.3296769  70.2750835  -1.6144001  43.7727916  69.5258160  -2.0124877
  42.4523280  70.2660971  -1.9970269  24.0800360  68.6498977   7.7259415
  23.3382096  68.7981612   8.3124046  23.7593104  68.9107243   6.8626165
  40.3623974  74.2780882  -4.6050071  40.8875298  74.6168154  -5.3300751
  40.2746326  73.3427897  -4.7886937  32.0244023  78.1914955   7.5239805
  32.3331149  77.9464102   8.3962505  32.8219505  78.3961594   7.0358676
  32.0464635  80.3452865  -0.2454818  31.6069625  79.8529244   0.4478039
  32.7972752  79.8025833  -0.4862743  29.4938507  75.8890874   1.8267484
  28.8718516  75.2261579   1.5269711  30.1643374  75.9152006   1.1441131
  29.5663034  64.3672662  11.4199990  29.6151190  65.2434785  11.0377759
  30.1085549  63.8250055  10.8471633  40.0517880  74.9113785  10.7001127
  39.2613424  74.8937924  10.1605626  39.8151235  75.4502079  11.4550163
  40.1715755  71.7606252   8.0133855  40.2213760  71.5956259   8.9549378
  40.0629678  70.8933511   7.6231736  37.4619517  67.7437180   9.3293162
  38.3629380  67.6043645   9.0377160  37.5367492  67.9091635  10.2691339
  31.7962323  65.1204034   8.1746348  30.9265632  65.4137600   7.9028937
  32.0321803  65.7044479   8.8953612  41.6733952  74.1803193   8.2575877
  41.3818760  74.5433174   9.0939338  41.0606083  73.4670201   8.0789209
  42.8729634  71.7456073   0.7778447  43.7076526  72.1845877   0.9416007
  43.0088763  71.2694726  -0.0413307  39.9221140  69.3035808   6.7255935
  40.3975262  69.4963454   5.9174786  38.9986705  69.3594994   6.4799318
  34.5001357  61.3383651   5.6911769  35.0183300  62.0744678   5.3658257
  34.1456489  61.6447645   6.5258528  34.7513951  57.7583934   1.2112665
  35.0315705  57.0907123   1.8373092  35.5364558  57.9513029   0.6987329
  38.6222809  66.1801568   4.9584240  39.5740232  66.2799666   4.9796464
  38.4526260  65.3879836   5.4682325  36.6437189  63.2657151   5.1443641
  36.0487121  63.5462164   4.4490130  36.3586885  63.7551052   5.9160382
  41.1010887  69.4007688   4.0726540  41.0687207  68.4623688   4.2586224
  41.7111511  69.4791724   3.3392365  41.2505375  66.1918731   4.1184823
  40.7344424  65.4077188   3.9314752  42.1345324  65.8637448   4.2831343
  38.9116102  59.9359747   0.0780636  38.7140923  59.6274835   0.9623968
  39.5215808  60.6621385   0.2078566  46.9187437  70.4623694   3.2132577
  47.6490825  70.2008983   3.7740280  46.3094382  69.7252416   3.2534645
  45.0002734  68.6031557   3.8107028  44.2735897  68.4687522   3.2023520
  44.5850021  68.9108386   4.6163746  32.8232910  72.3221487  11.5754401
  33.7435920  72.5000086  11.7694448  32.7882493  71.3777532  11.4234100
  22.0415075  67.5160080   0.5007676  21.7217860  66.6625389   0.2082050
  21.4948503  67.7308658   1.2565643  25.8194983  70.2322521   4.2177182
  26.0380993  71.1639629   4.2365216  26.2320757  69.8730496   5.0031986
  32.7399201  60.7390607  -3.7947129  31.9299929  60.3937692  -3.4191883
  33.4283618  60.4298150  -3.2059518  34.6689749  59.8168653  -2.1722833
  35.2220788  60.2364107  -1.5132810  34.9059835  58.8904402  -2.1299877
  30.6922848  65.8055727  13.6079931  30.5919575  66.7550084  13.5392022
  30.4744390  65.4773966  12.7356001  38.0468556  61.9269179  -2.6644169
  37.4667225  62.5853983  -3.0466116  37.7804489  61.1046523  -3.0756751
  36.4972122  61.3274236  -0.4622848  36.9971901  61.4390771  -1.2708529
  37.1407730  61.0235289   0.1777960  30.5554118  69.2352866  12.4244993
  30.0721200  70.0353226  12.6308882  30.6415057  69.2460811  11.4712437
  26.4827456  73.1257401   4.4613427  27.4370709  73.0941343   4.3943358
  26.2839979  72.6648024   5.2763652  27.0726838  71.6958517   7.0284224
  27.8919727  72.1902595   7.0519062  27.3463646  70.7790485   7.0001792
  36.8293434  64.0869269  -3.6087820  35.9419289  64.3718920  -3.8267625
  37.2447423  63.9263032  -4.4560543  40.1807970  64.1115790   0.1066519
  40.9568360  64.6012242   0.3791136  39.4556104  64.5373844   0.5638388
  42.6180529  64.8243409   1.1640460  43.2125020  64.5839145   0.4533768
  42.6907112  64.1050540   1.7913996  36.8034458  69.6023805  -3.3937530
  36.7469659  70.0592356  -4.2329898  37.3562800  68.8414490  -3.5714687
  40.6139264  65.3913537  -2.5687411  40.3576198  64.9910172  -1.7379203
  39.9892132  66.1057331  -2.6937271  44.9251602  68.1309610  -0.0616119
  44.3651160  68.2002799   0.7115443  44.3195105  67.9550595  -0.7816623
  37.5369237  70.7928586  -6.0985001  37.4818041  70.6272858  -7.0396557
  36.9115292  71.5004619  -5.9422811  22.3261752  66.0296651   7.7276421
  22.9720616  65.5195605   8.2163646  22.1178903  66.7665332   8.3019847
  34.8515144  73.0977498  13.2268562  35.7206304  73.2718150  12.8655197
  34.3721896  73.9171915  13.1044291  29.0201324  80.2174599   4.9057996
  29.9228571  80.2498209   5.2224490  28.7938695  79.2875050   4.9204331
  30.7754927  78.9705586   1.5668074  29.8250558  78.9707447   1.4532446
  31.0787413  78.2238320   1.0504109  34.6617482  56.8879472  -2.2653746
  33.8949878  56.3337959  -2.1197063  35.0728187  56.9601341  -1.4039594
  26.6659243  63.1764268  11.8251436  27.5290705  62.8201072  12.0354760
  26.0924654  62.8378162  12.5126840  43.3197326  84.7593552   2.5675361
  42.9815838  84.6434617   1.6795896  44.1887094  84.3584717   2.5476367
  43.8017109  85.9128404   8.5261567  43.7905750  85.5181202   7.6542070
  43.9637749  85.1794476   9.1195338  36.7248574  88.1080220   1.3956473
  37.5169866  87.7671045   0.9802772  36.9645224  88.2175195   2.3158626
  40.5224370  88.6965516   7.4740751  40.2314236  89.6011146   7.3587417
  41.1581355  88.7382043   8.1884820  41.4480577  86.0742364   4.0642110
  42.0444150  85.8498387   3.3499073  41.5055549  85.3327110   4.6667558
  48.9882736  76.1814385   5.0694632  48.6566061  77.0509796   4.8455847
  48.3928349  75.8650669   5.7488662  38.9326737  84.8340728   0.5027249
  38.0077233  84.7016942   0.7104941  39.1811150  85.6134947   0.9997191
  48.8811399  80.9009471   2.1487982  47.9728277  80.8324880   1.8546743
  48.8298995  81.3781416   2.9769807  36.2935548  84.4774002   1.3371038
  36.4227929  84.7308480   2.2510450  35.6132999  85.0701710   1.0175693
  42.9552265  82.3199117  10.0922879  42.1785599  82.8793037  10.0825744
  43.5942828  82.8055900  10.6137749  50.7473046  79.1025910   3.9265856
  50.1047426  79.3958443   3.2805650  50.2427974  78.9878830   4.7319052
  41.2098637  85.1284570   9.6540846  41.9513322  85.6669614   9.3775670
  40.5035623  85.7550859   9.8112398  46.6853977  87.2713711   8.2513008
  47.0937333  86.8296121   7.5067640  45.9631239  86.6966338   8.5047200
  43.0385047  82.2086317   5.6246564  43.8846242  82.6325731   5.7681213
  42.9783685  81.5519942   6.3185128  46.1884492  79.8690686   7.2827738
  45.9445424  80.6232746   6.7462014  46.4644423  80.2476033   8.1174985
  48.1422955  86.4129298   5.9605004  48.3539850  87.0561058   5.2839385
  48.0952703  85.5791615   5.4926934  45.7449184  79.0247119   2.8641576
  44.8833663  79.3228372   3.1558313  45.7711619  79.2417518   1.9322608
  39.9460001  82.2824218  10.4556156  39.3158662  82.9640499  10.6891553
  39.8396089  82.1707300   9.5109294  35.2404974  81.9496014   1.3822080
  34.4504028  82.2053543   0.9062191  35.7316221  82.7644352   1.4874121
  43.0225387  88.8385297   6.2888072  43.0869819  89.3005704   7.1246243
  42.3136310  88.2082662   6.4170381  33.5242677  82.2026505   3.8137071
  33.7750715  83.0873515   4.0794647  34.0602225  82.0231106   3.0412163
  39.2240744  76.5844984  12.8181407  38.8307689  76.0311183  13.4929051
  40.0406884  76.8955563  13.2087925  42.1408705  78.0002863  10.4101664
  42.8818418  78.6010016  10.3306126  42.3726628  77.2580501   9.8519706
  37.2850043  83.1859231   8.6879893  37.1703558  82.2844488   8.9886992
  36.4294561  83.4322927   8.3364710  44.3641881  91.1276971  10.2867394
  43.9205735  90.3413349   9.9688298  45.0259094  91.3156121   9.6211285
  46.4623119  91.4079771   8.3148795  46.4441594  92.2288652   7.8229064
  47.3843039  91.2833846   8.5398936  42.9196173  88.9223900   9.1572304
  43.4524510  88.1612189   8.9271612  42.3910254  88.6297552   9.8996458
  46.0865868  74.0283966   4.6865945  45.7430137  74.9185608   4.6105056
  46.4544830  73.8385624   3.8235530  45.1662408  76.3988621   2.6515179
  44.6627204  76.3618757   1.8382984  45.4593015  77.3081364   2.7111835
  41.4105294  76.4827351   1.6581360  42.2758291  76.2870160   1.2987250
  41.4782803  76.2537703   2.5850717  39.0167613  78.7129559  -0.9702273
  39.5911365  78.4904741  -1.7029080  39.6038596  78.7818254  -0.2173672
  41.3190281  75.5870808  -2.2427203  40.6654693  75.2719825  -2.8670589
  41.2770755  74.9646548  -1.5167381  44.5528021  82.0752742   2.0820444
  43.6350583  82.2967689   1.9242132  44.9688165  82.1499052   1.2232151
  47.8853533  73.2877525  -0.2116317  48.1912410  72.4274889  -0.4990402
  48.6106138  73.8795146  -0.4117323  42.1574613  83.5831319   0.2959874
  42.2123223  82.6305155   0.2202351  41.3465815  83.7390758   0.7801172
  45.6941185  82.6650203   6.8865147  46.0490572  82.8921676   7.7459613
  46.3413316  82.9968580   6.2642402  39.5881048  79.7726734   3.6711488
  40.2280427  79.6315493   2.9734451  38.7558578  79.4861247   3.2950090
  36.5909664  79.7427059  -1.5515525  36.8516482  80.6572392  -1.6606365
  37.4126837  79.2751501  -1.4018913  38.0634590  81.1564816   5.6183299
  38.7357643  80.9482178   4.9695948  37.2364376  80.9586902   5.1788532
  43.9660162  77.7826757   7.6348960  43.3188077  78.4816707   7.5413436
  44.7361177  78.2162901   8.0025208  47.3738960  88.0475609  10.7099513
  47.2224466  87.8186161   9.7929597  47.3643639  89.0046210  10.7230858
  44.1424296  85.6207522   5.6945780  45.0716356  85.7718681   5.5214747
  43.7215326  85.7091543   4.8394426  38.4662087  84.4307419   6.3785736
  38.3281885  83.6987658   6.9797275  39.3767010  84.3416319   6.0969924
  41.0944388  84.1427378   5.8669416  41.8044006  83.5020570   5.8256034
  41.0513696  84.3940273   6.7895597  49.0831166  91.0794732   8.7875995
  49.0243712  90.3953952   8.1206578  49.4850685  91.8213722   8.3356621
  39.8073322  81.1292596   7.6865055  39.2710679  80.6783335   8.3386652
  39.2190030  81.2638505   6.9435520  49.0848573  89.0434316   7.0189975
  48.1975352  88.7060237   7.1416374  49.6547125  88.3117347   7.2558740
  35.5412443  80.2648604   4.7718050  35.4570631  79.6574273   4.0368460
  34.7195149  80.7557622   4.7727546  45.7136157  78.7502167   0.1388245
  46.2104856  77.9972130  -0.1810685  44.9423138  78.7866484  -0.4268546
  42.2971125  80.8919550  -0.1340070  41.9268913  80.3390591   0.5540835
  42.7930218  80.2877684  -0.6865070  40.1260324  91.3517045   6.9614948
  40.8269783  91.9853528   7.1144342  39.6555439  91.6931777   6.2010587
  48.1555151  75.7171761   2.2867604  47.2418231  75.9475988   2.4549811
  48.5848253  75.8010205   3.1381636  47.9261610  83.9061653   4.7867498
  47.2733060  84.1537560   4.1319951  48.3041990  83.0925791   4.4529975
  43.9749183  84.6481464  11.2733535  43.2989820  84.5475593  11.9435910
  44.7976817  84.4920678  11.7369532  35.7228042  90.8853400   3.8946050
  36.3081479  90.1397088   4.0273954  35.5252880  91.1957357   4.7782714
  37.6936459  78.3023541   6.1113036  37.7577786  79.1638372   5.6990433
  37.6303579  77.6897543   5.3785394  37.1688732  80.3746674   9.7586070
  37.7960770  79.9923751  10.3723594  36.3116650  80.1560876  10.1241762
  47.5682840  90.7809649  11.3639805  48.1122744  91.3939607  10.8694760
  46.9869685  91.3389227  11.8806818  37.4748521  80.2579099   1.6731973
  36.7535107  80.8715067   1.5339447  38.2641777  80.7936864   1.5948619
  40.2774835  77.5933526   7.9472625  40.8009237  77.8395822   8.7098934
  40.0587168  78.4253561   7.5275762  41.4827380  78.5347221   5.6322296
  41.1424200  77.7355034   6.0342976  40.7766386  78.8348932   5.0599129
  42.1343852  75.6196533   4.0849619  42.9569921  75.1457012   3.9628509
  42.3781915  76.3987017   4.5848305  39.6582430  82.3115654   1.8941597
  39.5127011  82.6255957   2.7865879  39.1807634  82.9300554   1.3412496
  41.5178813  79.3018202   1.9422487  41.5040382  78.4059295   1.6054785
  42.2351241  79.3088866   2.5760773  43.3704944  79.7355542   3.9875614
  43.1122722  80.6572613   3.9859945  42.8389984  79.3385977   4.6776078
  34.1328093  84.8520998   4.8329259  33.5881561  85.6280806   4.9649533
  35.0107442  85.1991803   4.6748380  43.7906900  75.8687493   0.3476777
  43.8128596  75.9326826  -0.6071244  44.2074959  75.0292001   0.5417283
  34.9194114  83.9790895   7.7259415  34.1775851  84.1273530   8.3124046
  34.5986859  84.2399160   6.8626165  42.8637777  93.5206873   7.5239805
  43.1724904  93.2756020   8.3962505  43.6613259  93.7253511   7.0358676
  40.4056789  79.6964580  11.4199990  40.4544944  80.5726702  11.0377759
  40.9479303  79.1541973  10.8471633  50.8911634  90.2405703  10.7001127
  50.1007178  90.2229842  10.1605626  50.6544989  90.7793997  11.4550163
  51.0109510  87.0898169   8.0133855  51.0607514  86.9248177   8.9549378
  50.9023433  86.2225428   7.6231736  48.3013272  83.0729097   9.3293162
  49.2023135  82.9335562   9.0377160  48.3761246  83.2383552  10.2691339
  42.6356077  80.4495952   8.1746348  41.7659387  80.7429518   7.9028937
  42.8715558  81.0336397   8.8953612  52.5127706  89.5095111   8.2575877
  52.2212515  89.8725091   9.0939338  51.8999838  88.7962119   8.0789209
  50.7614895  84.6327725   6.7255935  51.2369016  84.8255372   5.9174786
  49.8380460  84.6886911   6.4799318  45.3395111  76.6675569   5.6911769
  45.8577055  77.4036596   5.3658257  44.9850244  76.9739562   6.5258528
  45.5907705  73.0875852   1.2112665  45.8709459  72.4199041   1.8373092
  46.3758312  73.2804947   0.6987329  49.4616564  81.5093486   4.9584240
  50.4133986  81.6091583   4.9796464  49.2920014  80.7171754   5.4682325
  47.4830943  78.5949069   5.1443641  46.8880875  78.8754081   4.4490130
  47.1980640  79.0842970   5.9160382  52.0899130  81.5210649   4.1184823
  51.5738179  80.7369105   3.9314752  52.9739078  81.1929365   4.2831343
  49.7509857  75.2651664   0.0780636  49.5534678  74.9566752   0.9623968
  50.3609562  75.9913303   0.2078566  43.6626665  87.6513404  11.5754401
  44.5829674  87.8292003  11.7694448  43.6276248  86.7069450  11.4234100
  32.8808830  82.8451998   0.5007676  32.5611614  81.9917306   0.2082050
  32.3342258  83.0600576   1.2565643  36.6588737  85.5614439   4.2177182
  36.8774747  86.4931547   4.2365216  37.0714511  85.2022413   5.0031986
  45.5083503  75.1460571  -2.1722833  46.0614542  75.5656025  -1.5132810
  45.7453590  74.2196319  -2.1299877  41.5316603  81.1347645  13.6079931
  41.4313330  82.0842002  13.5392022  41.3138145  80.8065884  12.7356001
  47.3365877  76.6566154  -0.4622848  47.8365655  76.7682689  -1.2708529
  47.9801485  76.3527207   0.1777960  41.3947873  84.5644784  12.4244993
  40.9114954  85.3645144  12.6308882  41.4808812  84.5752728  11.4712437
  37.3221210  88.4549318   4.4613427  38.2764464  88.4233261   4.3943358
  37.1233734  87.9939942   5.2763652  37.9120592  87.0250434   7.0284224
  38.7313481  87.5194513   7.0519062  38.1857400  86.1082402   7.0001792
  33.1655507  81.3588568   7.7276421  33.8114370  80.8487522   8.2163646
  32.9572658  82.0957250   8.3019847  45.6908899  88.4269416  13.2268562
  46.5600058  88.6010068  12.8655197  45.2115650  89.2463833  13.1044291
  45.5011236  72.2171389  -2.2653746  44.7343632  71.6629876  -2.1197063
  45.9121941  72.2893258  -1.4039594  37.5052998  78.5056185  11.8251436
  38.3684459  78.1492990  12.0354760  36.9318408  78.1670080  12.5126840
  50.0634498  91.9136902  12.8181407  49.6701444  91.3603101  13.4929051
  50.8800639  92.2247480  13.2087925  48.0082486  95.7038591   9.7586070
  48.6354525  95.3215669  10.3723594  47.1510405  95.4852793  10.1241762
  52.3710357  96.4639562  13.6079931  52.2707084  97.4133919  13.5392022
  52.1531899  96.1357801  12.7356001  48.3446752  93.8348103  11.8251436
  49.2078214  93.4784908  12.0354760  47.7712163  93.4961998  12.5126840
  36.7289087  52.4579854  -1.9114888  37.2728991  53.0709812  -2.4059933
  36.1475932  53.0159432  -1.3947875  40.0517881  51.9175908  -2.5753567
  39.2613425  51.9000047  -3.1149067  39.8151236  52.4564202  -1.8204530
  34.8515146  50.1039621  -0.0486132  35.7206305  50.2780273  -0.4099497
  34.3721897  50.9234037  -0.1710402  43.8017111  62.9190526  -4.7493127
  43.7905751  62.5243325  -5.6212623  43.9637750  62.1856599  -4.1559355
  40.5224372  65.7027638  -5.8013943  40.2314238  66.6073269  -5.9167276
  41.1581356  65.7444166  -5.0869873  41.4480579  63.0804487  -9.2112583
  42.0444151  62.8560509  -9.9255620  41.5055550  62.3389232  -8.6087135
  48.9882737  53.1876508  -8.2060062  48.6566062  54.0571919  -8.4298847
  48.3928351  52.8712792  -7.5266031  42.9552266  59.3261239  -3.1831814
  42.1785600  59.8855160  -3.1928950  43.5942829  59.8118022  -2.6616944
  50.7473047  56.1088032  -9.3488838  50.1047427  56.4020565  -9.9949043
  50.2427975  55.9940953  -8.5435641  41.2098639  62.1346693  -3.6213847
  41.9513323  62.6731737  -3.8979024  40.5035624  62.7612982  -3.4642296
  46.6853978  64.2775833  -5.0241686  47.0937334  63.8358244  -5.7687054
  45.9631240  63.7028461  -4.7707493  43.0385048  59.2148440  -7.6508129
  43.8846244  59.6387854  -7.5073480  42.9783686  58.5582064  -6.9569566
  46.1884494  56.8752808  -5.9926955  45.9445426  57.6294869  -6.5292680
  46.4644424  57.2538156  -5.1579708  48.1422956  63.4191421  -7.3149690
  48.3539852  64.0623181  -7.9915309  48.0952705  62.5853737  -7.7827760
  39.9460002  59.2886341  -2.8198537  39.3158663  59.9702622  -2.5863141
  39.8396090  59.1769423  -3.7645399  43.0225388  65.8447420  -6.9866622
  43.0869820  66.3067827  -6.1508450  42.3136312  65.2144784  -6.8584312
  39.2240745  53.5907107  -0.4573286  38.8307691  53.0373305   0.2174358
  40.0406885  53.9017685  -0.0666769  42.1408706  55.0064986  -2.8653030
  42.8818419  55.6072139  -2.9448567  42.3726629  54.2642624  -3.4234987
  37.2850044  60.1921353  -4.5874800  37.1703559  59.2906610  -4.2867701
  36.4294562  60.4385050  -4.9389984  44.3641882  68.1339094  -2.9887299
  43.9205736  67.3475472  -3.3066395  45.0259095  68.3218244  -3.6543409
  46.4623120  68.4141893  -4.9605898  46.4441595  69.2350775  -5.4525629
  47.3843040  68.2895969  -4.7355757  42.9196174  65.9286023  -4.1182390
  43.4524511  65.1674311  -4.3483082  42.3910255  65.6359675  -3.3758235
  45.6941186  59.6712325  -6.3889547  46.0490574  59.8983799  -5.5295081
  46.3413317  60.0030702  -7.0112291  43.9660163  54.7888879  -5.6405733
  43.3188078  55.4878829  -5.7341257  44.7361178  55.2225023  -5.2729485
  47.3738961  65.0537732  -2.5655180  47.2224467  64.8248283  -3.4825096
  47.3643640  66.0108333  -2.5523835  44.1424297  62.6269644  -7.5808914
  45.0716357  62.7780804  -7.7539946  43.7215327  62.7153665  -8.4360267
  38.4662088  61.4369542  -6.8968957  38.3281886  60.7049780  -6.2957418
  39.3767012  61.3478442  -7.1784769  41.0944389  61.1489501  -7.4085277
  41.8044007  60.5082693  -7.4498659  41.0513697  61.4002396  -6.4859097
  49.0831167  68.0856854  -4.4878698  49.0243714  67.4016074  -5.1548115
  49.4850686  68.8275844  -4.9398072  39.8073323  58.1354719  -5.5889638
  39.2710680  57.6845457  -4.9368042  39.2190031  58.2700628  -6.3319174
  49.0848575  66.0496438  -6.2564718  48.1975353  65.7122360  -6.1338320
  49.6547126  65.3179469  -6.0195953  40.1260325  68.3579168  -6.3139746
  40.8269785  68.9915651  -6.1610352  39.6555440  68.6993900  -7.0744107
  47.9261611  60.9123775  -8.4887195  47.2733061  61.1599683  -9.1434743
  48.3041991  60.0987914  -8.8224718  43.9749184  61.6543587  -2.0021158
  43.2989821  61.5537716  -1.3318783  44.7976818  61.4982800  -1.5385161
  35.7228043  67.8915523  -9.3808643  36.3081480  67.1459211  -9.2480739
  35.5252882  68.2019480  -8.4971979  37.1688733  57.3808796  -3.5168623
  37.7960772  56.9985874  -2.9031099  36.3116652  57.1622998  -3.1512931
  47.5682841  67.7871771  -1.9114888  48.1122745  68.4001730  -2.4059933
  46.9869686  68.3451350  -1.3947875  40.2774836  54.5995648  -5.3282068
  40.8009238  54.8457945  -4.5655759  40.0587169  55.4315683  -5.7478931
  34.9194116  60.9853017  -5.5495278  34.1775852  61.1335653  -4.9630648
  34.5986860  61.2461283  -6.4128529  42.8637778  70.5268996  -5.7514888
  43.1724905  70.2818142  -4.8792188  43.6613260  70.7315634  -6.2396018
  40.4056790  56.7026702  -1.8554704  40.4544946  57.5788825  -2.2376934
  40.9479304  56.1604095  -2.4283061  50.8911636  67.2467826  -2.5753567
  50.1007179  67.2291964  -3.1149067  50.6544990  67.7856119  -1.8204530
  51.0109511  64.0960292  -5.2620838  51.0607516  63.9310299  -4.3205315
  50.9023434  63.2287551  -5.6522957  48.3013273  60.0791220  -3.9461531
  49.2023136  59.9397685  -4.2377534  48.3761248  60.2445675  -3.0063354
  42.6356078  57.4558075  -5.1008345  41.7659388  57.7491641  -5.3725757
  42.8715559  58.0398520  -4.3801081  52.5127708  66.5157233  -5.0178817
  52.2212516  66.8787214  -4.1815356  51.8999839  65.8024242  -5.1965485
  50.7614896  61.6389848  -6.5498759  51.2369017  61.8317494  -7.3579907
  49.8380461  61.6949034  -6.7955375  45.3395112  53.6737692  -7.5842925
  45.8577056  54.4098719  -7.9096436  44.9850245  53.9801685  -6.7496166
  49.4616565  58.5155608  -8.3170453  50.4133988  58.6153706  -8.2958229
  49.2920015  57.7233877  -7.8072369  47.4830944  55.6011191  -8.1311052
  46.8880876  55.8816204  -8.8264563  47.1980641  56.0905092  -7.3594311
  52.0899131  58.5272771  -9.1569870  51.5738180  57.7431228  -9.3439941
  52.9739080  58.1991488  -8.9923351  43.6626666  64.6575527  -1.7000292
  44.5829675  64.8354126  -1.5060246  43.6276249  63.7131572  -1.8520593
  36.6588739  62.5676562  -9.0577511  36.8774748  63.4993669  -9.0389477
  37.0714512  62.2084536  -8.2722707  41.5316604  58.1409767   0.3325238
  41.4313331  59.0904124   0.2637329  41.3138146  57.8128006  -0.5398692
  41.3947874  61.5706906  -0.8509701  40.9114956  62.3707266  -0.6445812
  41.4808813  61.5814851  -1.8042257  37.3221211  65.4611441  -8.8141267
  38.2764465  65.4295383  -8.8811335  37.1233735  65.0002065  -7.9991041
  37.9120594  64.0312557  -6.2470469  38.7313483  64.5256636  -6.2235632
  38.1857401  63.1144525  -6.2752902  45.6908900  65.4331538  -0.0486132
  46.5600060  65.6072191  -0.4099497  45.2115651  66.2525955  -0.1710402
  37.5052999  55.5118308  -1.4503258  38.3684460  55.1555113  -1.2399933
  36.9318409  55.1732203  -0.7627854  50.0634500  68.9199025  -0.4573286
  49.6701445  68.3665223   0.2174358  50.8800640  69.2309603  -0.0666769
  48.0082487  72.7100714  -3.5168623  48.6354526  72.3277791  -2.9031099
  47.1510406  72.4914916  -3.1512931  52.3710358  73.4701685   0.3325238
  52.2707085  74.4196042   0.2637329  52.1531900  73.1419924  -0.5398692
  48.3446753  70.8410226  -1.4503258  49.2078215  70.4847030  -1.2399933
  47.7712164  70.5024120  -0.7627854
 108.7404101 108.7404101 108.7404101 109.4712190 109.4712190 109.4712190
