; cand_003_GMX.itp created by acpype (v: 2023.10.27) on Fri Aug 21 12:36:28 2026

[ atomtypes ]
;name   bond_type     mass     charge   ptype   sigma         epsilon       Amb
 c3       c3          0.00000  0.00000   A     3.39771e-01   4.51035e-01 ; 1.91  0.1078
 ca       ca          0.00000  0.00000   A     3.31521e-01   4.13379e-01 ; 1.86  0.0988
 cc       cc          0.00000  0.00000   A     3.31521e-01   4.13379e-01 ; 1.86  0.0988
 os       os          0.00000  0.00000   A     3.15610e-01   3.03758e-01 ; 1.77  0.0726
 oh       oh          0.00000  0.00000   A     3.24287e-01   3.89112e-01 ; 1.82  0.0930
 c        c           0.00000  0.00000   A     3.31521e-01   4.13379e-01 ; 1.86  0.0988
 o        o           0.00000  0.00000   A     3.04812e-01   6.12119e-01 ; 1.71  0.1463
 cd       cd          0.00000  0.00000   A     3.31521e-01   4.13379e-01 ; 1.86  0.0988
 f        f           0.00000  0.00000   A     3.03422e-01   3.48109e-01 ; 1.70  0.0832
 hc       hc          0.00000  0.00000   A     2.60018e-01   8.70272e-02 ; 1.46  0.0208
 ha       ha          0.00000  0.00000   A     2.62548e-01   6.73624e-02 ; 1.47  0.0161
 ho       ho          0.00000  0.00000   A     5.37925e-02   1.96648e-02 ; 0.30  0.0047

[ moleculetype ]
;name            nrexcl
 cand_003         3

[ atoms ]
;   nr  type  resi  res  atom  cgnr     charge      mass       ; qtot   bond_type
     1   c3     1   MOL    C1    1    -0.073800     12.01000 ; qtot -0.074
     2   ca     1   MOL    C2    2    -0.027300     12.01000 ; qtot -0.101
     3   ca     1   MOL    C3    3    -0.107000     12.01000 ; qtot -0.208
     4   ca     1   MOL    C4    4    -0.021800     12.01000 ; qtot -0.230
     5   cc     1   MOL    C5    5     0.136900     12.01000 ; qtot -0.093
     6   os     1   MOL    O1    6    -0.212200     16.00000 ; qtot -0.305
     7   ca     1   MOL    C6    7     0.189100     12.01000 ; qtot -0.116
     8   ca     1   MOL    C7    8    -0.206000     12.01000 ; qtot -0.322
     9   ca     1   MOL    C8    9    -0.030000     12.01000 ; qtot -0.352
    10   ca     1   MOL    C9   10    -0.210000     12.01000 ; qtot -0.562
    11   ca     1   MOL   C10   11     0.236100     12.01000 ; qtot -0.326
    12   oh     1   MOL    O2   12    -0.491100     16.00000 ; qtot -0.817
    13   ca     1   MOL   C11   13    -0.303600     12.01000 ; qtot -1.121
    14    c     1   MOL   C12   14     0.583900     12.01000 ; qtot -0.537
    15    o     1   MOL    O3   15    -0.590100     16.00000 ; qtot -1.127
    16   cd     1   MOL   C13   16    -0.056100     12.01000 ; qtot -1.183
    17   oh     1   MOL    O4   17    -0.488100     16.00000 ; qtot -1.671
    18   ca     1   MOL   C14   18    -0.100000     12.01000 ; qtot -1.771
    19   ca     1   MOL   C15   19    -0.089000     12.01000 ; qtot -1.860
    20   ca     1   MOL   C16   20    -0.156300     12.01000 ; qtot -2.016
    21   c3     1   MOL   C17   21     0.689200     12.01000 ; qtot -1.327
    22    f     1   MOL    F1   22    -0.236967     19.00000 ; qtot -1.564
    23    f     1   MOL    F2   23    -0.236967     19.00000 ; qtot -1.801
    24    f     1   MOL    F3   24    -0.236967     19.00000 ; qtot -2.038
    25   hc     1   MOL    H1   25     0.060367      1.00800 ; qtot -1.978
    26   hc     1   MOL    H2   26     0.060367      1.00800 ; qtot -1.917
    27   hc     1   MOL    H3   27     0.060367      1.00800 ; qtot -1.857
    28   ha     1   MOL    H4   28     0.154000      1.00800 ; qtot -1.703
    29   ha     1   MOL    H5   29     0.160000      1.00800 ; qtot -1.543
    30   ha     1   MOL    H6   30     0.146000      1.00800 ; qtot -1.397
    31   ha     1   MOL    H7   31     0.162000      1.00800 ; qtot -1.235
    32   ho     1   MOL    H8   32     0.463000      1.00800 ; qtot -0.772
    33   ho     1   MOL    H9   33     0.448000      1.00800 ; qtot -0.324
    34   ha     1   MOL   H10   34     0.167000      1.00800 ; qtot -0.157
    35   ha     1   MOL   H11   35     0.157000      1.00800 ; qtot -0.000

[ bonds ]
;   ai     aj funct   r             k
     1      2   1    1.5147e-01    2.0410e+05 ;     C1 - C2    
     1     25   1    1.0962e-01    2.8891e+05 ;     C1 - H1    
     1     26   1    1.0962e-01    2.8891e+05 ;     C1 - H2    
     1     27   1    1.0962e-01    2.8891e+05 ;     C1 - H3    
     2      3   1    1.3986e-01    2.9644e+05 ;     C2 - C3    
     2     20   1    1.3986e-01    2.9644e+05 ;     C2 - C16   
     3      4   1    1.3986e-01    2.9644e+05 ;     C3 - C4    
     3     28   1    1.0860e-01    3.0183e+05 ;     C3 - H4    
     4      5   1    1.4528e-01    2.4811e+05 ;     C4 - C5    
     4     18   1    1.3986e-01    2.9644e+05 ;     C4 - C14   
     5      6   1    1.3622e-01    2.9388e+05 ;     C5 - O1    
     5     16   1    1.3730e-01    3.2321e+05 ;     C5 - C13   
     6      7   1    1.3688e-01    2.8731e+05 ;     O1 - C6    
     7      8   1    1.3986e-01    2.9644e+05 ;     C6 - C7    
     7     13   1    1.3986e-01    2.9644e+05 ;     C6 - C11   
     8      9   1    1.3986e-01    2.9644e+05 ;     C7 - C8    
     8     29   1    1.0860e-01    3.0183e+05 ;     C7 - H5    
     9     10   1    1.3986e-01    2.9644e+05 ;     C8 - C9    
     9     30   1    1.0860e-01    3.0183e+05 ;     C8 - H6    
    10     11   1    1.3986e-01    2.9644e+05 ;     C9 - C10   
    10     31   1    1.0860e-01    3.0183e+05 ;     C9 - H7    
    11     12   1    1.3644e-01    2.9167e+05 ;    C10 - O2    
    11     13   1    1.3986e-01    2.9644e+05 ;    C10 - C11   
    12     32   1    9.7250e-02    4.4811e+05 ;     O2 - H8    
    13     14   1    1.4907e-01    2.1994e+05 ;    C11 - C12   
    14     15   1    1.2190e-01    4.9421e+05 ;    C12 - O3    
    14     16   1    1.4728e-01    2.3273e+05 ;    C12 - C13   
    16     17   1    1.3492e-01    3.0737e+05 ;    C13 - O4    
    17     33   1    9.7250e-02    4.4811e+05 ;     O4 - H9    
    18     19   1    1.3986e-01    2.9644e+05 ;    C14 - C15   
    18     34   1    1.0860e-01    3.0183e+05 ;    C14 - H10   
    19     20   1    1.3986e-01    2.9644e+05 ;    C15 - C16   
    19     35   1    1.0860e-01    3.0183e+05 ;    C15 - H11   
    20     21   1    1.5147e-01    2.0410e+05 ;    C16 - C17   
    21     22   1    1.3512e-01    2.7973e+05 ;    C17 - F1    
    21     23   1    1.3512e-01    2.7973e+05 ;    C17 - F2    
    21     24   1    1.3512e-01    2.7973e+05 ;    C17 - F3    

[ pairs ]
;   ai     aj    funct
     1      4      1 ;     C1 - C4    
     1     19      1 ;     C1 - C15   
     1     21      1 ;     C1 - C17   
     1     28      1 ;     C1 - H4    
     2      5      1 ;     C2 - C5    
     2     18      1 ;     C2 - C14   
     2     22      1 ;     C2 - F1    
     2     23      1 ;     C2 - F2    
     2     24      1 ;     C2 - F3    
     2     35      1 ;     C2 - H11   
     3      6      1 ;     C3 - O1    
     3     16      1 ;     C3 - C13   
     3     19      1 ;     C3 - C15   
     3     21      1 ;     C3 - C17   
     3     34      1 ;     C3 - H10   
     4      7      1 ;     C4 - C6    
     4     14      1 ;     C4 - C12   
     4     17      1 ;     C4 - O4    
     4     20      1 ;     C4 - C16   
     4     35      1 ;     C4 - H11   
     5      8      1 ;     C5 - C7    
     5     13      1 ;     C5 - C11   
     5     15      1 ;     C5 - O3    
     5     19      1 ;     C5 - C15   
     5     28      1 ;     C5 - H4    
     5     33      1 ;     C5 - H9    
     5     34      1 ;     C5 - H10   
     6      9      1 ;     O1 - C8    
     6     11      1 ;     O1 - C10   
     6     14      1 ;     O1 - C12   
     6     17      1 ;     O1 - O4    
     6     18      1 ;     O1 - C14   
     6     29      1 ;     O1 - H5    
     7     10      1 ;     C6 - C9    
     7     12      1 ;     C6 - O2    
     7     15      1 ;     C6 - O3    
     7     16      1 ;     C6 - C13   
     7     30      1 ;     C6 - H6    
     8     11      1 ;     C7 - C10   
     8     14      1 ;     C7 - C12   
     8     31      1 ;     C7 - H7    
     9     12      1 ;     C8 - O2    
     9     13      1 ;     C8 - C11   
    10     14      1 ;     C9 - C12   
    10     29      1 ;     C9 - H5    
    10     32      1 ;     C9 - H8    
    11     15      1 ;    C10 - O3    
    11     16      1 ;    C10 - C13   
    11     30      1 ;    C10 - H6    
    12     14      1 ;     O2 - C12   
    12     31      1 ;     O2 - H7    
    13     17      1 ;    C11 - O4    
    13     29      1 ;    C11 - H5    
    13     31      1 ;    C11 - H7    
    13     32      1 ;    C11 - H8    
    14     33      1 ;    C12 - H9    
    15     17      1 ;     O3 - O4    
    16     18      1 ;    C13 - C14   
    18     21      1 ;    C14 - C17   
    18     28      1 ;    C14 - H4    
    19     22      1 ;    C15 - F1    
    19     23      1 ;    C15 - F2    
    19     24      1 ;    C15 - F3    
    20     28      1 ;    C16 - H4    
    20     34      1 ;    C16 - H10   
    21     35      1 ;    C17 - H11   
    25      3      1 ;     H1 - C3    
    25     20      1 ;     H1 - C16   
    26      3      1 ;     H2 - C3    
    26     20      1 ;     H2 - C16   
    27      3      1 ;     H3 - C3    
    27     20      1 ;     H3 - C16   
    29     30      1 ;     H5 - H6    
    30     31      1 ;     H6 - H7    
    34     35      1 ;    H10 - H11   

[ angles ]
;   ai     aj     ak    funct   theta         cth
     1      2      3      1    1.2083e+02    5.0827e+02 ;     C1 - C2     - C3    
     1      2     20      1    1.2083e+02    5.0827e+02 ;     C1 - C2     - C16   
     2      1     25      1    1.1063e+02    3.6493e+02 ;     C2 - C1     - H1    
     2      1     26      1    1.1063e+02    3.6493e+02 ;     C2 - C1     - H2    
     2      1     27      1    1.1063e+02    3.6493e+02 ;     C2 - C1     - H3    
     2      3      4      1    1.2002e+02    5.3279e+02 ;     C2 - C3     - C4    
     2      3     28      1    1.1988e+02    3.7572e+02 ;     C2 - C3     - H4    
     2     20     19      1    1.2002e+02    5.3279e+02 ;     C2 - C16    - C15   
     2     20     21      1    1.2083e+02    5.0827e+02 ;     C2 - C16    - C17   
     3      2     20      1    1.2002e+02    5.3279e+02 ;     C3 - C2     - C16   
     3      4      5      1    1.2091e+02    5.2041e+02 ;     C3 - C4     - C5    
     3      4     18      1    1.2002e+02    5.3279e+02 ;     C3 - C4     - C14   
     4      3     28      1    1.1988e+02    3.7572e+02 ;     C4 - C3     - H4    
     4      5      6      1    1.1590e+02    6.5764e+02 ;     C4 - C5     - O1    
     4      5     16      1    1.1603e+02    5.3555e+02 ;     C4 - C5     - C13   
     4     18     19      1    1.2002e+02    5.3279e+02 ;     C4 - C14    - C15   
     4     18     34      1    1.1988e+02    3.7572e+02 ;     C4 - C14    - H10   
     5      4     18      1    1.2091e+02    5.2041e+02 ;     C5 - C4     - C14   
     5      6      7      1    1.0590e+02    8.0023e+02 ;     C5 - O1     - C6    
     5     16     14      1    1.2132e+02    5.1965e+02 ;     C5 - C13    - C12   
     5     16     17      1    1.2370e+02    6.5948e+02 ;     C5 - C13    - O4    
     6      5     16      1    1.1153e+02    6.9136e+02 ;     O1 - C5     - C13   
     6      7      8      1    1.1911e+02    6.6107e+02 ;     O1 - C6     - C7    
     6      7     13      1    1.1911e+02    6.6107e+02 ;     O1 - C6     - C11   
     7      8      9      1    1.2002e+02    5.3279e+02 ;     C6 - C7     - C8    
     7      8     29      1    1.1988e+02    3.7572e+02 ;     C6 - C7     - H5    
     7     13     11      1    1.2002e+02    5.3279e+02 ;     C6 - C11    - C10   
     7     13     14      1    1.2033e+02    5.1413e+02 ;     C6 - C11    - C12   
     8      7     13      1    1.2002e+02    5.3279e+02 ;     C7 - C6     - C11   
     8      9     10      1    1.2002e+02    5.3279e+02 ;     C7 - C8     - C9    
     8      9     30      1    1.1988e+02    3.7572e+02 ;     C7 - C8     - H6    
     9      8     29      1    1.1988e+02    3.7572e+02 ;     C8 - C7     - H5    
     9     10     11      1    1.2002e+02    5.3279e+02 ;     C8 - C9     - C10   
     9     10     31      1    1.1988e+02    3.7572e+02 ;     C8 - C9     - H7    
    10      9     30      1    1.1988e+02    3.7572e+02 ;     C9 - C8     - H6    
    10     11     12      1    1.1990e+02    6.5990e+02 ;     C9 - C10    - O2    
    10     11     13      1    1.2002e+02    5.3279e+02 ;     C9 - C10    - C11   
    11     10     31      1    1.1988e+02    3.7572e+02 ;    C10 - C9     - H7    
    11     12     32      1    1.0858e+02    5.6409e+02 ;    C10 - O2     - H8    
    11     13     14      1    1.2033e+02    5.1413e+02 ;    C10 - C11    - C12   
    12     11     13      1    1.1990e+02    6.5990e+02 ;     O2 - C10    - C11   
    13     14     15      1    1.2260e+02    6.5237e+02 ;    C11 - C12    - O3    
    13     14     16      1    1.1749e+02    5.0827e+02 ;    C11 - C12    - C13   
    14     16     17      1    1.1373e+02    6.6107e+02 ;    C12 - C13    - O4    
    15     14     16      1    1.2371e+02    6.5530e+02 ;     O3 - C12    - C13   
    16     17     33      1    1.0720e+02    5.7354e+02 ;    C13 - O4     - H9    
    18     19     20      1    1.2002e+02    5.3279e+02 ;    C14 - C15    - C16   
    18     19     35      1    1.1988e+02    3.7572e+02 ;    C14 - C15    - H11   
    19     18     34      1    1.1988e+02    3.7572e+02 ;    C15 - C14    - H10   
    19     20     21      1    1.2083e+02    5.0827e+02 ;    C15 - C16    - C17   
    20     19     35      1    1.1988e+02    3.7572e+02 ;    C16 - C15    - H11   
    20     21     22      1    1.1178e+02    6.6308e+02 ;    C16 - C17    - F1    
    20     21     23      1    1.1178e+02    6.6308e+02 ;    C16 - C17    - F2    
    20     21     24      1    1.1178e+02    6.6308e+02 ;    C16 - C17    - F3    
    22     21     23      1    1.0737e+02    8.9437e+02 ;     F1 - C17    - F2    
    22     21     24      1    1.0737e+02    8.9437e+02 ;     F1 - C17    - F3    
    23     21     24      1    1.0737e+02    8.9437e+02 ;     F2 - C17    - F3    
    25      1     26      1    1.0773e+02    2.9957e+02 ;     H1 - C1     - H2    
    25      1     27      1    1.0773e+02    2.9957e+02 ;     H1 - C1     - H3    
    26      1     27      1    1.0773e+02    2.9957e+02 ;     H2 - C1     - H3    

[ dihedrals ] ; propers
; for gromacs 4.5 or higher, using funct 9
;    i      j      k      l   func   phase     kd      pn
     1      2      3      4      9   180.00  15.16700   2 ;     C1-    C2-    C3-    C4
     1      2      3     28      9   180.00  15.16700   2 ;     C1-    C2-    C3-    H4
     1      2     20     19      9   180.00  15.16700   2 ;     C1-    C2-   C16-   C15
     1      2     20     21      9   180.00  15.16700   2 ;     C1-    C2-   C16-   C17
     2      3      4      5      9   180.00  15.16700   2 ;     C2-    C3-    C4-    C5
     2      3      4     18      9   180.00  15.16700   2 ;     C2-    C3-    C4-   C14
     2     20     19     18      9   180.00  15.16700   2 ;     C2-   C16-   C15-   C14
     2     20     19     35      9   180.00  15.16700   2 ;     C2-   C16-   C15-   H11
     2     20     21     22      9     0.00   0.00000   0 ;     C2-   C16-   C17-    F1
     2     20     21     23      9     0.00   0.00000   0 ;     C2-   C16-   C17-    F2
     2     20     21     24      9     0.00   0.00000   0 ;     C2-   C16-   C17-    F3
     3      2     20     19      9   180.00  15.16700   2 ;     C3-    C2-   C16-   C15
     3      2     20     21      9   180.00  15.16700   2 ;     C3-    C2-   C16-   C17
     3      4      5      6      9   180.00   2.92880   2 ;     C3-    C4-    C5-    O1
     3      4      5     16      9   180.00   2.44764   2 ;     C3-    C4-    C5-   C13
     3      4     18     19      9   180.00  15.16700   2 ;     C3-    C4-   C14-   C15
     3      4     18     34      9   180.00  15.16700   2 ;     C3-    C4-   C14-   H10
     4      3      2     20      9   180.00  15.16700   2 ;     C4-    C3-    C2-   C16
     4      5      6      7      9   180.00   2.71960   1 ;     C4-    C5-    O1-    C6
     4      5     16     14      9   180.00  16.73600   2 ;     C4-    C5-   C13-   C12
     4      5     16     17      9   180.00  16.73600   2 ;     C4-    C5-   C13-    O4
     4     18     19     20      9   180.00  15.16700   2 ;     C4-   C14-   C15-   C16
     4     18     19     35      9   180.00  15.16700   2 ;     C4-   C14-   C15-   H11
     5      4      3     28      9   180.00  15.16700   2 ;     C5-    C4-    C3-    H4
     5      4     18     19      9   180.00  15.16700   2 ;     C5-    C4-   C14-   C15
     5      4     18     34      9   180.00  15.16700   2 ;     C5-    C4-   C14-   H10
     5      6      7      8      9   180.00   7.63580   2 ;     C5-    O1-    C6-    C7
     5      6      7     13      9   180.00   7.63580   2 ;     C5-    O1-    C6-   C11
     5     16     14     13      9   180.00  12.02900   2 ;     C5-   C13-   C12-   C11
     5     16     14     15      9   180.00  12.02900   2 ;     C5-   C13-   C12-    O3
     5     16     17     33      9   180.00   5.35552   2 ;     C5-   C13-    O4-    H9
     6      5      4     18      9   180.00   2.92880   2 ;     O1-    C5-    C4-   C14
     6      5     16     14      9   180.00  16.73600   2 ;     O1-    C5-   C13-   C12
     6      5     16     17      9   180.00  16.73600   2 ;     O1-    C5-   C13-    O4
     6      7      8      9      9   180.00  15.16700   2 ;     O1-    C6-    C7-    C8
     6      7      8     29      9   180.00  15.16700   2 ;     O1-    C6-    C7-    H5
     6      7     13     11      9   180.00  15.16700   2 ;     O1-    C6-   C11-   C10
     6      7     13     14      9   180.00  15.16700   2 ;     O1-    C6-   C11-   C12
     7      6      5     16      9   180.00   2.71960   1 ;     C6-    O1-    C5-   C13
     7      8      9     10      9   180.00  15.16700   2 ;     C6-    C7-    C8-    C9
     7      8      9     30      9   180.00  15.16700   2 ;     C6-    C7-    C8-    H6
     7     13     11     10      9   180.00  15.16700   2 ;     C6-   C11-   C10-    C9
     7     13     11     12      9   180.00  15.16700   2 ;     C6-   C11-   C10-    O2
     7     13     14     15      9   180.00   2.42672   2 ;     C6-   C11-   C12-    O3
     7     13     14     16      9   180.00   4.18400   2 ;     C6-   C11-   C12-   C13
     8      7     13     11      9   180.00  15.16700   2 ;     C7-    C6-   C11-   C10
     8      7     13     14      9   180.00  15.16700   2 ;     C7-    C6-   C11-   C12
     8      9     10     11      9   180.00  15.16700   2 ;     C7-    C8-    C9-   C10
     8      9     10     31      9   180.00  15.16700   2 ;     C7-    C8-    C9-    H7
     9      8      7     13      9   180.00  15.16700   2 ;     C8-    C7-    C6-   C11
     9     10     11     12      9   180.00  15.16700   2 ;     C8-    C9-   C10-    O2
     9     10     11     13      9   180.00  15.16700   2 ;     C8-    C9-   C10-   C11
    10      9      8     29      9   180.00  15.16700   2 ;     C9-    C8-    C7-    H5
    10     11     12     32      9   180.00   3.57732   2 ;     C9-   C10-    O2-    H8
    10     11     13     14      9   180.00  15.16700   2 ;     C9-   C10-   C11-   C12
    11     10      9     30      9   180.00  15.16700   2 ;    C10-    C9-    C8-    H6
    11     13     14     15      9   180.00   2.42672   2 ;    C10-   C11-   C12-    O3
    11     13     14     16      9   180.00   4.18400   2 ;    C10-   C11-   C12-   C13
    12     11     10     31      9   180.00  15.16700   2 ;     O2-   C10-    C9-    H7
    12     11     13     14      9   180.00  15.16700   2 ;     O2-   C10-   C11-   C12
    13      7      8     29      9   180.00  15.16700   2 ;    C11-    C6-    C7-    H5
    13     11     10     31      9   180.00  15.16700   2 ;    C11-   C10-    C9-    H7
    13     11     12     32      9   180.00   3.57732   2 ;    C11-   C10-    O2-    H8
    13     14     16     17      9   180.00  12.02900   2 ;    C11-   C12-   C13-    O4
    14     16     17     33      9   180.00   5.35552   2 ;    C12-   C13-    O4-    H9
    15     14     16     17      9   180.00  12.02900   2 ;     O3-   C12-   C13-    O4
    16      5      4     18      9   180.00   2.44764   2 ;    C13-    C5-    C4-   C14
    18      4      3     28      9   180.00  15.16700   2 ;    C14-    C4-    C3-    H4
    18     19     20     21      9   180.00  15.16700   2 ;    C14-   C15-   C16-   C17
    19     20     21     22      9     0.00   0.00000   0 ;    C15-   C16-   C17-    F1
    19     20     21     23      9     0.00   0.00000   0 ;    C15-   C16-   C17-    F2
    19     20     21     24      9     0.00   0.00000   0 ;    C15-   C16-   C17-    F3
    20      2      3     28      9   180.00  15.16700   2 ;    C16-    C2-    C3-    H4
    20     19     18     34      9   180.00  15.16700   2 ;    C16-   C15-   C14-   H10
    21     20     19     35      9   180.00  15.16700   2 ;    C17-   C16-   C15-   H11
    25      1      2      3      9     0.00   0.00000   0 ;     H1-    C1-    C2-    C3
    25      1      2     20      9     0.00   0.00000   0 ;     H1-    C1-    C2-   C16
    26      1      2      3      9     0.00   0.00000   0 ;     H2-    C1-    C2-    C3
    26      1      2     20      9     0.00   0.00000   0 ;     H2-    C1-    C2-   C16
    27      1      2      3      9     0.00   0.00000   0 ;     H3-    C1-    C2-    C3
    27      1      2     20      9     0.00   0.00000   0 ;     H3-    C1-    C2-   C16
    29      8      9     30      9   180.00  15.16700   2 ;     H5-    C7-    C8-    H6
    30      9     10     31      9   180.00  15.16700   2 ;     H6-    C8-    C9-    H7
    34     18     19     35      9   180.00  15.16700   2 ;    H10-   C14-   C15-   H11

[ dihedrals ] ; impropers
; treated as propers in GROMACS to use correct AMBER analytical function
;    i      j      k      l   func   phase     kd      pn
     1      2     20      3      4   180.00   4.60240   2 ;     C1-    C2-   C16-    C3
     2      4      3     28      4   180.00   4.60240   2 ;     C2-    C4-    C3-    H4
     3     18      4      5      4   180.00   4.60240   2 ;     C3-   C14-    C4-    C5
     4     16      5      6      4   180.00  43.93200   2 ;     C4-   C13-    C5-    O1
     4     19     18     34      4   180.00   4.60240   2 ;     C4-   C15-   C14-   H10
     7      9      8     29      4   180.00   4.60240   2 ;     C6-    C8-    C7-    H5
     8     10      9     30      4   180.00   4.60240   2 ;     C7-    C9-    C8-    H6
     8     13      7      6      4   180.00  43.93200   2 ;     C7-   C11-    C6-    O1
     9     11     10     31      4   180.00   4.60240   2 ;     C8-   C10-    C9-    H7
    10     13     11     12      4   180.00  43.93200   2 ;     C9-   C11-   C10-    O2
    13     16     14     15      4   180.00  43.93200   2 ;    C11-   C13-   C12-    O3
    14      5     16     17      4   180.00  43.93200   2 ;    C12-    C5-   C13-    O4
    14      7     13     11      4   180.00  43.93200   2 ;    C12-    C6-   C11-   C10
    18     20     19     35      4   180.00   4.60240   2 ;    C14-   C16-   C15-   H11
    21      2     20     19      4   180.00   4.60240   2 ;    C17-    C2-   C16-   C15
