cand_003_GMX.gro created by acpype (v: 2023.10.27) on Fri Aug 21 12:36:28 2026
 35
    1  MOL   C1    1  18.005   1.418   4.474
    1  MOL   C2    2  18.037   1.562   4.447
    1  MOL   C3    3  17.989   1.661   4.535
    1  MOL   C4    4  18.017   1.797   4.515
    1  MOL   C5    5  17.963   1.897   4.610
    1  MOL   O1    6  17.824   1.896   4.616
    1  MOL   C6    7  17.761   1.985   4.700
    1  MOL   C7    8  17.622   1.981   4.703
    1  MOL   C8    9  17.551   2.068   4.786
    1  MOL   C9   10  17.620   2.159   4.867
    1  MOL  C10   11  17.759   2.162   4.864
    1  MOL   O2   12  17.821   2.253   4.946
    1  MOL  C11   13  17.830   2.075   4.781
    1  MOL  C12   14  17.976   2.075   4.775
    1  MOL   O3   15  18.044   2.151   4.844
    1  MOL  C13   16  18.041   1.979   4.683
    1  MOL   O4   17  18.179   1.979   4.679
    1  MOL  C14   18  18.091   1.834   4.403
    1  MOL  C15   19  18.139   1.738   4.314
    1  MOL  C16   20  18.113   1.601   4.334
    1  MOL  C17   21  18.167   1.500   4.236
    1  MOL   F1   22  18.155   1.540   4.106
    1  MOL   F2   23  18.104   1.379   4.243
    1  MOL   F3   24  18.299   1.473   4.255
    1  MOL   H1   25  18.002   1.401   4.583
    1  MOL   H2   26  17.908   1.392   4.430
    1  MOL   H3   27  18.084   1.354   4.430
    1  MOL   H4   28  17.930   1.630   4.623
    1  MOL   H5   29  17.567   1.910   4.640
    1  MOL   H6   30  17.441   2.066   4.788
    1  MOL   H7   31  17.565   2.227   4.933
    1  MOL   H8   32  17.899   2.297   4.918
    1  MOL   H9   33  18.228   1.936   4.746
    1  MOL  H10   34  18.113   1.941   4.385
    1  MOL  H11   35  18.198   1.769   4.227
   17.16400    18.85000    16.79400
